ITEM: TIMESTEP
34500
ITEM: NUMBER OF ATOMS
48840
ITEM: BOX BOUNDS pp pp ff
0.0 122.37
0.0 122.37
0.0 489.48
ITEM: ATOMS x y z vx vy vz type
10.2809 2.21041 40.9875 0.550237 -0.122416 -0.357342 5
8.06236 12.2837 40.8529 -1.0731 0.375025 -1.33175 5
1.99993 26.5852 41.0287 -0.772814 0.58858 -0.74514 4
14.2846 26.5451 40.94 -1.20738 -0.431225 -0.618731 4
122.309 28.3725 40.9558 1.25512 -0.618381 1.51805 4
53.0886 36.5155 41.1291 0.191736 -0.187509 0.361319 5
47.0681 38.497 41.0832 1.40674 -0.480641 0.423669 5
49.2113 40.7139 40.9046 -1.80983 0.103891 -0.258456 5
51.1714 42.8686 40.8281 1.96947 0.289129 -0.709264 5
71.3487 54.9197 40.8597 0.910609 0.457583 -2.0748 5
89.8835 61.2043 40.897 -0.478967 -1.14497 -0.877438 5
4.12336 69.5437 40.8697 -0.65505 -1.42877 0.612187 7
4.2926 81.6354 40.9282 1.07941 0.140144 1.25359 7
1.81375 2.11262 44.619 0.344369 1.30758 -0.273389 5
4.05088 2.07199 42.8621 1.50766 1.2561 1.20145 5
6.1019 2.20609 45.1674 -0.0885481 1.60659 -0.675776 5
3.94926 0.182903 44.8307 1.29245 1.77722 -1.32096 5
6.05461 0.0910581 42.9881 -1.23966 0.215269 0.549065 5
10.2237 1.94319 45.1193 0.278447 -0.285644 2.50537 5
10.4461 -0.0623507 42.9816 0.600937 -0.705591 -0.0239873 5
8.17798 -0.0284168 44.922 -0.285531 -1.77653 1.57871 5
12.4191 2.2671 43.0081 0.133255 -0.456632 3.67819 5
14.3821 0.0825882 42.9023 1.3674 2.34799 -1.17181 5
14.2858 2.0839 45.2768 1.22551 -0.495097 -1.837 5
16.378 2.2395 43.1791 0.389115 -2.27581 1.21712 5
18.8022 2.22008 45.2145 -0.731031 0.701906 0.733473 5
18.4653 0.321093 43.2284 1.35345 0.170227 2.59118 5
20.9134 2.40358 43.2531 1.61453 0.0592661 0.351962 5
20.5561 0.262618 45.1615 0.13727 -0.170387 -0.608865 4
44.5249 2.31343 43.0717 -1.87561 0.0651419 1.11463 5
42.5152 0.0822197 42.8954 -0.641705 -0.264248 -0.0123996 5
44.506 0.217056 45.0132 1.57861 -1.34385 0.965915 5
48.9509 2.25131 43.1325 -0.525863 -1.51853 -0.0794466 5
46.8192 2.4504 44.7648 -1.01397 0.756849 0.606288 5
46.84 0.250331 43.0604 1.00822 0.630203 0.428636 5
53.0893 1.96222 42.8458 -1.22087 -2.1252 2.51905 5
51.3479 1.84417 45.134 0.75412 1.32556 0.017361 5
53.2313 122.102 45.1316 -1.19134 1.13871 0.3741 5
50.9229 0.0312513 42.9121 0.16741 1.16525 -0.902507 5
55.1822 2.05856 45.0248 1.30777 0.73418 0.388939 5
57.1176 1.96556 42.9259 0.867352 0.588124 1.06884 5
59.2874 2.00052 45.0659 -1.64577 0.0616536 0.126096 5
61.361 1.98875 42.8228 -1.34426 0.777068 2.03724 5
63.1217 1.87257 45.0086 -0.78713 -0.121267 0.745859 5
65.305 2.04603 42.6706 -0.330852 0.650305 -0.269522 5
67.3683 2.02963 44.8445 -0.785119 0.529322 -2.4147 5
69.2923 2.14688 42.8641 -1.16011 0.919118 0.133161 5
71.2889 2.02487 44.7996 1.02752 -0.262579 -1.35184 5
69.3218 122.198 44.7885 0.614138 0.553776 0.910178 5
71.2308 -0.0777999 42.9785 -0.905013 0.0894042 1.51996 5
73.4086 2.21399 43.0135 -0.874379 -1.36422 1.00521 6
75.6648 2.28204 44.8743 -1.46648 0.578042 0.583365 6
73.3116 0.002746 45.0136 0.0920988 1.39118 0.646101 6
75.2464 0.0674154 43.117 2.00033 -2.22626 -0.594206 6
77.4722 2.20161 42.8023 0.35339 0.492098 -0.736243 6
79.4589 2.19555 44.7306 2.17229 1.41765 -0.416937 6
79.4796 0.09349 42.6809 0.29377 -2.00867 1.48918 6
77.455 0.145872 44.9055 0.350545 -1.11054 0.529496 6
81.5832 2.37518 42.687 -0.91826 -0.692481 -0.647996 6
83.6565 2.38055 44.8974 1.14426 -0.727929 -1.16159 6
83.6373 0.204262 42.7808 -0.828902 1.7202 -0.519712 6
81.4959 0.303515 44.672 1.36849 -0.367743 -0.436961 6
85.6464 2.38041 42.8783 -2.5248 1.51418 -1.1647 6
87.599 2.39242 44.801 -2.89569 1.39462 2.06124 6
85.6321 0.309409 44.8697 -1.49452 0.099015 -1.31148 6
87.6406 0.114963 42.9682 0.799668 -0.866494 -0.542167 6
89.6908 2.21358 42.8621 -2.84417 -0.705041 -1.53016 6
89.6342 0.210383 44.8254 -0.0888551 1.87749 0.0326425 6
91.9038 2.25214 44.6253 0.422465 1.65719 -0.304868 6
91.933 -0.141064 42.9461 -1.59444 0.0668999 -0.161146 6
93.687 2.14221 42.6632 -1.55572 -0.343882 -1.63017 6
94.054 -0.00735066 44.9234 0.298816 -0.220266 0.427907 6
98.0558 2.07426 42.7962 2.14855 0.272453 -0.135465 6
96.033 2.34021 44.6337 0.432595 1.98257 -1.23825 6
95.9292 122.508 42.9584 -0.505457 0.349291 -0.268325 6
98.1129 0.112804 44.7269 -1.78136 0.299785 1.54107 6
99.7055 2.34153 44.898 0.494933 -0.349498 0.119377 6
100.113 122.576 42.9708 1.11876 1.31974 -0.799354 6
101.423 0.23184 45.4105 -0.336301 -0.221834 -0.771849 6
121.941 2.33255 42.9983 0.29696 1.65149 -0.6226 5
119.992 2.29888 44.7716 1.2919 0.173305 -1.38313 5
2.05112 4.20327 42.9322 -0.306236 0.210632 0.91073 5
1.92376 6.00587 44.9372 1.16008 0.0109698 0.434973 5
3.87069 5.98747 42.786 0.446924 0.242503 1.5329 5
121.985 4.29314 44.9237 2.29346 -1.17163 1.15134 5
6.27306 3.99839 42.8847 0.151954 -0.76263 0.931144 5
4.03933 4.12247 44.9355 1.42736 -1.44108 -1.30837 5
5.96798 6.08132 44.9103 -1.41594 0.935256 0.992393 5
10.0425 4.2205 43.0936 0.0389255 -1.6015 -0.268461 5
7.91726 4.11995 45.158 -0.0872719 -0.604104 0.540749 5
7.96901 5.9798 42.7709 -0.437016 0.402583 0.209169 5
10.104 6.02679 45.1747 0.248912 1.423 0.250389 5
14.4743 4.12069 43.135 0.266983 -0.909105 1.66059 5
12.1927 4.04869 45.2854 1.30824 0.711475 0.820311 5
12.1479 5.93024 42.7523 -0.832673 -0.978381 -0.0126447 5
14.1831 6.00409 44.9131 0.835382 -1.51657 -1.52156 5
18.686 3.9544 43.0743 1.31211 0.383929 -0.608705 5
16.4974 5.82138 42.945 0.994884 -0.209596 -0.455596 5
16.5301 4.03437 45.1482 0.430811 0.383179 0.944297 5
18.5578 5.97171 45.2266 1.3405 0.0405606 1.54515 5
20.6995 5.94948 43.0609 -1.92595 0.848168 0.379316 5
20.765 4.25702 45.587 0.481302 2.166 -0.198294 5
49.2519 3.98142 45.2631 2.41755 1.6093 1.06385 5
46.7699 4.32724 42.9036 0.124754 -1.05971 -3.19493 5
49.0635 5.9231 43.2212 0.712657 -1.96382 0.545541 5
47.1161 5.54637 45.2435 1.35255 3.33411 -1.34292 5
52.9889 3.79525 44.9526 0.19149 -0.667255 -0.680436 5
51.0484 3.78186 42.9707 0.818141 -2.52535 -1.41217 5
53.023 6.05183 43.2932 -3.55084 1.19933 -0.247895 5
50.6325 8.27001 43.2179 0.470668 0.110118 2.37048 5
52.855 8.1502 45.1331 -1.27808 1.0452 0.417472 5
55.0792 4.05458 42.9414 -0.248554 0.941246 2.17144 5
57.1835 5.89898 43.0057 -1.29782 0.495962 0.0746737 5
55.304 6.15872 44.9393 1.02097 0.322909 0.175652 5
57.2177 3.93665 44.9529 -1.97303 -0.816041 -0.801548 5
59.1728 3.91269 42.8617 -2.63832 -0.0493674 0.26945 5
59.166 6.03449 44.7197 0.106214 -2.35469 0.794033 5
61.1165 3.92486 44.7153 0.687522 0.509306 0.852476 5
61.1359 5.99528 42.7324 -0.541192 -1.40236 0.0149903 5
63.2713 4.0537 42.5702 -1.00704 0.845799 0.38815 5
63.3764 6.11423 44.5146 1.03003 -1.98832 0.765422 5
65.1954 3.83868 44.7959 1.97141 -2.217 -1.1706 5
67.3547 3.97846 42.7829 0.131219 1.9628 0.00991956 5
65.4512 6.17308 42.8101 1.42656 -0.114269 0.583306 5
67.0604 6.27348 44.8776 0.977606 0.0913874 1.47571 5
69.2352 4.27681 44.797 -2.71732 -0.921205 1.30104 5
69.2422 6.28893 43.0351 0.693706 -1.51628 -0.895123 5
71.0191 6.70449 45.1451 1.0125 -0.373485 0.23418 5
71.3809 4.32897 42.7854 -0.514939 -0.265158 0.324237 5
73.2802 4.34075 44.7022 1.31971 1.07344 -1.13585 6
75.462 4.45829 42.9962 -0.682533 0.023297 0.594488 6
73.1256 6.49053 42.8962 0.378196 -0.0426932 -1.03925 6
75.4259 6.44703 44.8132 0.903038 0.509231 -1.00998 6
79.5677 4.44798 42.8337 0.409532 -1.79473 -0.507861 6
77.6014 4.30858 44.887 0.10507 -0.128826 1.43932 6
79.5578 6.36753 44.8333 1.0195 0.666491 0.0566549 6
77.4085 6.38363 42.7873 0.957587 0.136756 -1.04953 6
81.5212 6.57082 43.0121 -1.70613 -0.0822026 0.52643 6
83.5107 4.51393 42.6483 0.263562 0.806651 -0.117122 6
81.5718 4.2459 44.8297 -0.241531 -0.231121 0.0259583 6
83.6363 6.47318 44.8453 -1.34239 -0.31692 -0.371805 6
85.4967 4.53796 44.7989 0.185073 0.373832 0.347057 6
85.3989 6.58138 42.6807 0.692693 -0.620127 -1.36391 6
87.9038 6.65683 44.8614 -0.0802552 -2.07049 2.32941 6
87.489 4.52136 42.9384 -2.01778 -0.531703 0.286482 6
89.7387 6.3633 42.8907 -1.27564 -1.21258 0.0320895 6
89.7923 4.40216 44.8643 0.513713 -1.42679 0.399396 6
91.7264 4.33687 42.7096 -0.151441 -1.24252 -1.08991 6
91.8917 6.42563 44.7595 -0.257788 -0.911069 0.709781 6
93.7452 4.34909 44.73 0.855648 -0.394549 -0.148164 6
93.9839 6.41885 42.7537 -1.57237 -1.1635 0.0863657 6
95.7988 6.90495 44.9617 1.42583 -1.29194 -1.11307 6
95.8958 4.33097 42.8853 -1.05225 0.290287 0.935403 6
97.6827 6.54931 42.9283 -1.78373 -0.38392 0.406634 6
97.5137 4.68113 45.2236 -0.691785 -0.923199 1.19427 6
99.6221 4.44034 43.2506 0.121201 0.225701 0.758058 6
101.737 6.34346 43.0699 0.546613 -1.37063 1.33455 6
99.7142 6.38667 45.5147 -0.298931 -1.29511 -1.44622 6
101.739 4.17319 44.704 -2.87194 0.606117 0.534278 6
117.84 6.18381 42.8703 1.22005 -0.946665 0.890058 5
117.929 4.18533 45.0808 -0.186657 -0.107666 0.269737 5
116.016 6.05889 45.0941 -0.682285 0.279207 -0.712101 5
119.809 4.25119 42.9478 -1.0192 -0.585528 1.01234 5
122.279 6.06602 42.846 -0.753509 1.38981 -0.347558 5
120.007 6.1466 44.9708 0.749984 -1.11578 -1.14161 5
1.91642 8.13436 42.8721 0.785825 -0.134293 -1.83285 5
1.75307 10.1126 44.9947 -0.991772 -0.104102 -1.98517 5
3.97886 10.1063 43.0203 -0.510217 0.879996 -0.192259 5
3.91988 7.96008 44.9711 1.62365 0.624294 1.05087 5
5.96461 7.98135 42.8638 -3.54499 1.58547 -0.254882 5
5.99453 9.99024 45.0562 -0.931069 1.08256 -0.0477178 5
8.15774 7.98471 44.9651 -0.900062 -0.462483 -0.612116 5
10.0154 8.04307 43.0481 0.451222 1.11994 0.50467 5
10.3059 10.0248 45.0948 -1.91311 -0.895693 -0.288175 5
14.499 8.07297 42.7936 -1.20718 -1.08052 -0.612595 5
12.2658 10.0982 42.9506 -1.10749 -0.708059 -1.7959 5
12.2856 8.0162 44.7051 0.0822632 0.180006 0.3113 5
14.2858 10.3607 44.8136 -0.586627 2.10828 -0.582958 5
18.2744 8.08384 42.9515 0.00814871 -1.13832 -0.479089 5
16.3278 9.97832 42.9219 -2.24304 -1.46355 1.97802 5
16.2925 7.89124 44.9598 -0.894674 -0.880222 0.549468 5
18.4418 10.2102 44.91 0.445231 0.699352 -0.711097 5
22.6437 8.03038 43.1579 -0.6473 -1.17299 0.996189 5
20.6756 10.1823 42.9538 -0.365004 0.736206 -0.243411 5
20.4845 8.0846 44.8974 -1.46353 0.498188 -0.952214 5
22.6023 10.3123 44.7374 0.361329 -1.14386 -0.0971868 5
24.6818 10.0701 43.0388 -0.968489 -2.61869 0.8118 5
52.8661 10.1641 43.0109 1.93007 2.27181 -2.15293 5
50.5418 9.71181 45.5199 -0.388697 0.822071 0.558632 5
55.0225 8.09953 43.117 -1.3963 -0.160532 1.53036 5
56.997 10.4627 43.0115 0.650335 1.08203 -0.465433 5
55.0048 10.1066 45.0637 -0.862251 1.37859 -0.179035 5
57.1758 8.30292 44.8734 0.706632 1.18622 0.403692 5
59.2001 8.28802 42.9125 1.88857 0.834854 -1.93567 5
59.1927 10.4883 44.6478 -1.00774 0.698048 0.41517 5
61.4088 10.4427 42.9044 -0.255854 0.579288 1.74112 5
61.3927 8.17958 44.634 1.27466 -1.49992 1.71034 5
63.3438 8.43084 42.8457 -0.287906 -1.78655 2.49742 5
63.7075 10.8692 44.8663 -0.526725 -2.09705 -1.56531 5
65.5527 10.6049 43.1115 -0.647137 1.49586 -0.21879 5
67.5413 8.42783 43.0264 -1.50496 0.798041 0.53225 5
65.3623 8.44823 44.6286 -0.912882 -1.07376 0.12461 5
68.7324 8.47989 45.5032 -0.421044 -1.20432 -1.00284 5
75.2218 8.44985 42.7825 -0.182936 -1.29273 -0.913981 6
73.2794 8.5785 44.8539 -0.14674 0.104873 -1.15635 6
75.1882 10.338 44.7288 -2.54922 1.63394 -0.071855 6
77.2962 8.66112 44.657 2.30763 1.50069 -1.13947 6
79.3943 8.56856 42.9389 -1.38393 -1.54971 0.771924 6
79.0403 10.7359 44.8581 1.09866 -0.460022 1.69341 6
81.5387 8.58426 44.7695 -0.698604 -0.156691 0.788538 6
83.509 8.75558 43.0675 0.0522975 -1.17112 0.81585 6
81.4033 10.6774 43.1906 -0.889793 -1.65213 -0.068014 6
83.6135 10.8177 44.8572 2.88078 0.996852 1.50254 6
85.7934 10.8679 43.1001 -0.922963 0.373374 -1.57682 6
85.7572 8.69294 44.8047 -0.598796 -1.54804 -0.205286 6
87.4676 8.50182 42.6606 -0.620642 -1.56561 -1.94932 6
87.9225 10.6361 44.6714 -0.347478 1.27779 1.8398 6
89.7645 8.70144 44.6084 -0.100276 -1.74884 0.446931 6
89.9214 10.8425 42.7638 -0.671939 0.51811 0.801312 6
91.9206 8.58101 42.8749 0.575356 -0.0216525 0.273103 6
91.8313 10.6707 44.9056 -0.788386 0.478591 -1.19712 6
93.6488 8.62304 45.0051 -0.56405 -0.601499 0.752054 6
93.9568 10.5397 42.9381 0.0719757 -0.547801 0.495519 6
98.0932 8.57431 44.9714 0.0574925 -1.04588 0.498038 6
95.7409 8.69076 42.9845 -1.29719 -0.136091 -0.637704 6
99.9052 8.37793 43.0684 0.566318 -1.19564 0.612561 6
118.034 10.3223 42.8398 0.417837 -2.12927 0.0575355 5
116.003 8.28734 42.9113 0.735589 0.63436 -1.19023 5
116.098 10.1152 45.1457 -0.359457 1.2522 1.10599 5
118.068 8.09016 44.9371 0.0695091 0.0751579 1.81884 5
122.287 7.88525 44.8711 1.68936 0.350295 -0.934387 5
122.212 10.0791 42.9287 0.981208 1.09898 -0.752911 5
120.071 8.17422 42.7899 -0.61566 -1.00584 -1.14155 5
120.197 9.87681 44.9527 1.66253 -1.43061 -1.70791 5
1.94969 14.3797 44.8436 0.999618 1.33442 -0.769142 5
2.00948 12.2008 42.9978 -0.920314 1.84016 -2.08066 5
4.04961 14.1757 43.0265 -0.978655 0.39642 0.071571 4
3.91591 12.0602 45.1345 1.45285 1.09134 0.703945 5
5.9713 14.1812 45.0538 -0.537196 -0.21459 -2.31981 5
6.09388 12.1441 42.9632 -0.997455 -0.463718 -0.210976 5
10.0696 12.0449 42.9549 -0.620098 0.781306 0.594249 5
8.32666 14.3306 42.8217 1.19732 0.210259 -1.29552 5
7.92451 12.0879 45.0055 1.83076 0.996226 1.51346 5
9.9627 14.0758 44.8911 -0.366115 1.30639 -0.408261 5
14.0836 12.2762 43.0582 -0.947395 2.47665 0.00957402 5
12.1999 14.3022 42.8709 -1.523 0.15486 -1.27303 4
14.2536 14.2347 45.0514 1.58287 0.223298 -1.47803 5
12.1588 12.38 45.0461 0.199303 2.51321 1.2106 5
16.3538 12.3478 44.7885 1.65062 -1.32526 1.21246 5
16.3004 14.367 42.9721 0.169475 -1.47377 1.71284 5
18.5026 14.2266 45.1042 0.298291 -0.26384 1.21286 5
18.4684 12.2767 42.8744 -0.272397 1.12652 -0.591229 5
20.5772 14.6444 42.863 -1.09868 -0.103871 -0.722179 5
20.5741 12.1588 44.8566 -1.14201 -0.328204 -2.22539 5
22.5088 12.4296 42.9275 -1.78551 -0.783596 0.145741 5
22.7376 14.2899 44.9017 -1.59171 -0.317512 -0.478841 5
24.9157 12.2049 44.7048 -0.242265 0.523262 1.25831 5
52.4061 11.3825 45.2585 1.27576 0.175018 0.449352 5
54.8528 12.3754 43.5087 -1.61736 -0.380152 1.79528 5
56.966 12.32 45.1726 1.26769 0.284888 0.152929 5
59.2515 12.6749 43.193 2.33127 -1.38592 -1.48009 5
61.5444 12.6351 44.8102 -0.0467078 1.39088 -0.223576 5
63.4928 12.7381 43.0297 0.682426 -0.135 -0.62723 5
117.793 14.3374 42.9875 0.312828 1.4811 -0.392975 5
117.998 12.1671 44.905 -0.168408 3.02751 -0.126555 5
116.174 14.0956 45.385 1.1077 -2.29558 2.37725 5
122.16 12.1472 44.8783 -1.60897 2.2867 -0.386313 5
122.177 14.159 42.7558 -0.631478 1.61035 -0.978183 5
120.011 12.1405 42.9049 0.783827 2.84172 0.790309 5
119.964 14.1298 44.6987 0.14048 0.363285 -0.135923 5
1.9062 16.1264 42.9281 -0.276679 -0.69265 1.2483 4
1.93344 18.1559 45.0283 -0.264245 -0.181389 -0.918757 4
4.1662 16.3865 45.18 -1.09931 0.0905406 -0.00545614 4
4.09492 18.2213 43.1676 -0.301289 0.106187 0.752766 4
6.08732 18.1938 44.9902 0.117932 2.32904 0.821105 4
6.04965 16.3074 42.8537 1.05434 0.572457 -0.265228 5
8.07071 18.1842 42.9191 1.47263 0.153953 -0.40259 4
10.1499 16.197 43.0303 2.82892 1.03051 -0.898486 4
8.08216 16.1268 44.932 0.954376 -1.67991 0.758404 5
10.0504 18.1332 45.1895 0.280323 -0.607111 0.0921368 4
12.2235 18.2292 42.9784 1.8712 0.969712 -0.0401491 4
14.2718 16.4561 43.0174 -2.33712 -1.39561 0.244443 4
12.2211 16.12 44.9044 -1.00519 1.42678 -1.02723 5
14.5317 18.3317 45.0875 0.18645 -0.480056 2.50944 5
16.4354 18.2079 42.9363 -1.3099 -0.604645 -0.0986127 5
18.4107 16.2016 42.9343 0.773922 -0.469243 1.49057 4
16.3615 16.0872 45.1654 0.360234 1.6942 3.2142 5
18.4974 18.2859 44.873 1.99493 -0.390369 0.5834 5
20.3736 18.1793 42.9703 -1.53382 -0.577896 0.346098 4
20.7302 16.2192 45.05 -0.989213 -0.340646 -1.53309 5
22.6001 18.647 44.8768 -1.92649 -0.556136 -0.522507 5
118.058 18.4239 42.9973 1.88724 -1.74632 1.10804 4
117.884 16.2692 44.8416 -0.912651 1.61675 0.26195 5
116.125 18.2323 45.1494 1.18258 -1.07765 0.975922 5
122.313 18.3706 42.9347 0.289348 1.13861 -0.789665 4
122.19 16.2742 44.6461 0.345316 0.960651 0.519077 5
120.026 16.3235 43.0157 0.647763 -1.47988 -1.35665 4
120.169 18.509 44.8198 0.114459 1.90302 0.911186 4
2.05081 20.3085 42.7383 0.277771 1.77518 0.0275597 4
2.06022 22.4663 45.0545 0.713509 1.07124 0.96937 4
3.76188 20.3079 44.9758 -0.768012 -0.392978 2.96812 4
6.00226 20.2903 42.9351 -0.465282 -1.29802 -1.20321 4
4.01605 22.3229 43.0627 -1.44719 -0.69677 -1.70477 4
6.08371 22.2049 44.9198 1.59066 1.24614 0.316881 4
10.1682 20.3578 43.0451 -0.409426 0.0693171 0.829206 4
8.22155 22.3899 43.0224 1.32754 -0.799443 1.33107 4
10.3119 22.4872 44.8492 -3.98191 -0.905083 -0.362025 4
7.97058 20.1609 44.9155 -0.774127 1.13476 -2.54358 4
12.1247 22.347 42.9513 1.49173 -0.780295 0.502445 4
14.2533 20.3727 42.9334 -1.15924 0.997596 0.0191801 4
12.3849 20.2737 45.0437 -1.9169 -0.0631542 -1.33249 4
14.3483 22.3585 44.8784 -0.811922 -1.512 -0.701745 4
16.3332 22.4899 42.9455 -2.27454 0.0633195 -2.23983 4
18.2874 20.19 42.9468 -0.497768 0.630068 -0.0153823 4
16.3543 20.5756 45.1032 -0.138965 0.629144 -1.36701 5
18.4184 22.4428 44.7958 -0.305259 -0.291212 -0.363179 4
20.5087 20.4364 44.6879 0.14963 -1.20642 -1.67631 4
20.4657 22.3409 42.9059 0.448445 0.998967 -0.465131 4
22.3845 22.3961 44.8345 2.43137 1.86451 -0.517434 4
114.038 22.6428 43.0748 1.66736 -1.62322 -1.76498 4
115.908 22.2881 45.2111 1.73411 1.01653 0.289374 4
115.958 20.3037 43.1104 2.18771 -0.745422 -1.01442 4
118.06 20.3251 44.9667 0.653134 1.28913 1.90589 4
122.557 22.5502 43.0522 -0.0342452 1.14023 0.843601 4
-0.0357857 20.3776 44.8904 -0.514199 -0.143485 1.078 4
120.387 22.3059 44.803 -3.06893 0.347349 0.467741 4
2.06504 24.5232 43.0056 0.0308869 -0.127017 -1.13592 4
2.04801 26.535 45.2563 -0.584736 -1.04336 1.1249 4
4.00993 24.4895 45.1376 0.525157 -0.956883 -1.02574 4
6.18928 24.4066 43.0941 0.212356 -0.72488 -0.53781 4
5.94926 26.5917 44.8284 -1.47805 -1.08716 0.330217 4
3.99494 26.5387 42.9911 -0.0228184 -0.611698 1.04667 4
8.12341 26.4781 42.8549 1.30076 1.40836 2.17122 4
10.151 24.4127 42.7515 0.287915 1.30698 -0.175919 4
8.18669 24.3694 44.9805 -1.04988 -0.669288 -0.056263 4
10.3343 26.1674 44.8914 0.559659 -0.909449 -1.23267 4
14.3395 24.3506 42.8165 1.29219 0.767117 -0.142335 4
12.2495 24.348 44.9451 -0.169191 0.120366 -0.121776 4
14.3404 26.3871 44.7733 -0.00958926 1.0106 2.57331 4
12.278 26.36 42.9131 1.50966 -2.04109 -0.72926 4
18.524 24.4857 42.9333 0.782099 -0.950041 -0.0666678 4
16.493 24.7887 44.7514 -0.65789 1.63463 1.4245 4
18.6411 26.6384 44.8022 1.26437 1.64459 -0.363552 4
20.7407 24.6248 44.6996 0.43274 2.09161 0.160814 4
20.511 26.4765 42.86 -0.642204 -0.808279 0.906433 4
114.067 24.3247 45.0146 0.654104 1.62704 -0.313997 4
114.185 26.3804 43.1573 -0.526716 -2.20887 2.57524 4
115.99 24.2683 43.0904 0.632734 0.856341 -1.4587 4
118.097 24.2214 45.0332 2.10316 -0.223831 -0.153971 4
116.187 26.2922 45.0834 -2.19588 0.906986 2.10877 4
118.025 26.3834 42.9067 1.1194 -1.8004 -1.24543 4
122.255 26.3989 43.0424 2.80544 2.5518 -0.255127 4
122.396 24.6741 45.2032 -0.717754 0.506596 1.0975 4
120.138 24.4181 43.0983 -1.58066 -0.145637 -0.0606373 4
119.937 26.3303 45.262 -0.0487746 -0.925286 0.139599 4
1.9207 28.3803 43.0737 0.685538 -1.03652 -2.22648 4
2.03488 30.4288 45.1149 0.449675 0.759211 -0.153665 4
122.263 28.288 45.1243 -0.578777 -0.686769 0.227353 4
4.15154 28.4672 44.9827 1.99392 -0.211911 0.380457 4
5.99398 28.4531 42.9839 -0.813031 0.44572 0.85793 4
6.05999 30.6174 45.1363 -0.168031 0.0522549 0.175913 4
10.2885 28.4357 42.8196 -3.33257 0.509879 0.291458 4
8.26937 28.4626 44.9489 -1.08246 -1.67052 0.157362 4
10.4558 30.6306 44.754 -0.271923 0.527665 -0.779184 4
14.3353 28.5971 42.8768 1.29002 -0.334793 3.95811 4
12.3568 28.5276 45.0016 1.43576 0.561775 0.559053 4
14.5538 30.656 44.812 -1.15334 -0.429234 -0.11138 4
12.3478 30.6619 42.8711 -0.606245 -0.968069 0.237536 4
18.3909 28.4737 42.9149 -0.793548 -1.75075 1.09556 4
16.493 28.3859 45.0101 0.175077 1.96385 2.94998 4
44.8267 30.5204 42.9718 1.75431 2.10949 7.07281e-05 5
79.2023 28.115 43.0417 1.13385 -1.38422 -0.303825 5
77.2018 30.1589 42.8707 -2.42148 -0.28847 0.566454 5
79.669 30.1248 44.678 -0.493392 -2.23377 2.19413 5
81.5796 29.9676 42.85 -0.967495 1.05455 0.908015 5
83.8757 30.161 44.4452 0.565319 -1.66432 -0.358173 5
81.5413 27.7238 44.433 0.472532 1.60947 -1.48418 5
84.0675 27.491 45.2953 -0.94387 -0.877648 0.737295 5
83.6692 28.0146 42.5977 0.294454 -0.621726 0.00478262 5
85.9228 30.0745 42.541 -1.13156 -0.742616 -1.47004 5
86.3092 29.4358 45.3542 -1.54175 0.148667 0.226799 5
86.2363 27.3836 43.5362 -0.818719 0.381352 -0.396505 5
88.4694 29.0055 43.2214 0.972193 -0.750556 -0.0236658 5
112.069 28.6835 43.0963 2.45301 0.649867 -0.758584 4
113.851 28.4896 45.0245 -0.670576 0.564643 1.59483 4
112.381 30.7112 45.1456 -1.08438 0.626523 -2.05577 4
115.975 28.3793 43.0998 0.584983 -0.582058 -0.843332 4
118.048 28.4329 44.9911 0.221259 0.492747 0.140483 4
115.879 30.4648 45.0963 0.667101 -0.790876 1.59008 4
120.255 28.1171 43.1127 -3.24267 0.911321 0.412195 4
120.306 30.3426 44.9485 0.841614 -1.25916 -0.294433 4
1.95424 32.5451 43.1617 -0.847363 -0.159753 -0.578685 4
4.07784 30.4796 43.0518 -0.343989 0.21794 0.0405699 4
3.92047 32.5298 45.2927 -0.965496 -2.14916 0.88677 4
6.04095 32.6669 43.1012 0.527145 0.881409 -0.00237797 4
8.01481 30.505 43.012 1.11144 -0.00413403 0.161823 4
8.38134 32.5563 45.0431 -1.22751 0.116476 -0.82559 4
10.1224 32.5682 42.7649 -0.214175 0.898439 -0.325758 4
14.5597 32.5712 42.9054 1.13686 0.654319 -0.063724 4
12.3234 32.6261 44.995 0.778989 0.048832 0.363363 4
16.6735 30.4691 42.99 1.68825 0.239158 0.171306 4
18.6155 32.5065 42.8892 0.0711283 -0.0514573 0.774976 4
16.3605 32.6644 44.7316 1.39381 -1.51391 1.06171 4
34.7536 32.2999 42.6531 0.760522 -0.511359 1.57964 5
36.6599 32.3584 44.676 0.603594 0.421952 -1.02688 5
39.0121 32.2261 42.8515 -0.876692 0.123225 0.359068 5
41.0027 32.5167 44.8557 3.83597 0.417664 -1.73472 5
43.0092 32.464 42.8998 1.59014 1.19702 1.03821 5
44.8914 32.2736 44.9288 0.1788 -1.36176 0.288308 5
43.0855 34.3154 44.9658 1.92645 -0.56512 0.601526 5
46.958 32.4837 42.9819 -1.59108 -2.14417 -0.88208 5
49.1423 34.3696 43.1184 0.313095 -0.122992 0.906918 5
47.0174 34.2857 45.1348 0.876574 1.43292 0.45989 5
51.093 32.3847 43.054 -1.56793 -0.696291 1.1022 5
51.2766 34.4186 44.9192 0.736658 1.46675 0.676165 5
53.1508 34.4132 42.9687 -0.846479 -0.241963 0.0113021 5
75.3086 32.0968 42.9636 -2.01107 -0.239132 1.943 5
75.3769 34.2599 44.6354 -0.61835 -0.668684 -0.890306 5
73.2346 34.2472 43.0135 1.12775 2.45396 -0.314734 5
79.532 32.1964 42.6352 1.31323 -0.423163 -1.39991 5
77.5016 32.1591 44.7601 -0.665518 -1.31701 0.656841 5
77.2548 34.2403 42.9061 0.517124 -0.982099 -2.59874 5
79.5499 34.2091 44.8636 2.47298 0.544844 -0.925741 5
81.7502 32.3291 44.7829 0.43631 2.01383 -0.296801 5
83.5918 32.352 42.6443 -0.157217 -2.61746 -0.813742 5
83.7654 34.3719 44.5581 -0.9945 0.975497 0.475138 5
81.5101 34.3027 42.8153 0.321492 0.17192 -1.84562 5
85.9044 32.1743 44.3798 0.612322 -0.973752 1.36817 5
85.4884 34.4768 42.5259 1.61016 0.655206 1.41909 5
88.0535 32.3094 42.3838 -0.10942 1.17744 0.543441 5
87.7253 34.2212 44.3205 1.05222 1.76846 1.06864 5
90.4644 33.4703 44.8852 -0.26384 -0.773813 -0.278102 5
90.5102 31.273 43.1442 -1.16886 -1.3119 0.695985 5
88.504 31.2883 45.0656 1.49089 -0.120568 -0.66369 5
90.0296 34.1011 42.4624 2.0919 0.932527 -2.08036 5
92.5903 33.097 43.1123 -1.06335 -1.11529 -0.631771 5
95.4166 34.1368 44.2134 -1.66433 -1.03233 -0.898791 5
97.9992 34.466 42.8559 -0.0999932 1.50759 1.29086 5
113.929 30.5942 43.0527 -1.37665 0.157493 -1.19601 4
114.179 32.8669 44.7524 2.20702 1.67138 0.823155 4
118.151 30.4461 43.1405 -0.025263 -0.933744 0.50031 4
116.241 32.4879 43.0486 -0.0843721 -0.0361045 -1.28281 4
118.131 32.4155 45.1852 -0.579343 -0.37319 1.09951 4
-0.0825947 30.3375 43.0115 -1.33234 1.31472 1.44968 4
-0.0901373 32.3998 45.1662 -0.579162 0.799054 -1.00339 4
120.311 32.4801 42.9662 -0.93094 1.42865 1.03524 4
1.95941 34.5045 45.029 -0.106171 0.205038 -0.539357 4
1.9169 36.653 43.0524 0.409501 1.30995 0.273512 4
6.29821 34.5642 45.0082 0.088219 -0.941788 -6.38915e-05 4
4.20667 34.7718 42.9008 -0.00727098 -0.714661 0.888459 4
4.21022 36.5209 44.9973 -0.0431312 -2.06901 1.48734 4
6.17382 36.9212 42.9985 -1.6675 -0.386103 2.71932 4
10.4036 34.7312 44.8109 -0.051264 -1.66788 0.462075 4
8.09449 34.8208 42.9434 0.432058 0.307275 2.96567 4
10.302 36.895 43.2296 1.07964 0.715863 0.883196 4
8.08047 36.757 45.0143 -0.286324 0.582674 -0.636533 4
12.6046 34.7109 43.0271 0.968968 -0.614965 -1.32972 4
14.4667 36.7251 42.8524 0.394137 0.797697 2.93989 4
12.5878 36.688 44.9492 0.171198 -1.44515 0.582395 4
14.5506 34.6026 44.893 -0.961856 1.43102 -0.0115678 4
16.4263 34.582 42.685 -0.239706 0.182945 2.6174 4
30.7164 36.6701 42.5935 0.103546 0.782077 0.745093 5
30.5962 38.5386 44.8268 -1.35244 -1.65114 -0.691977 5
32.7373 34.5779 42.7217 3.07639 0.381138 1.06954 5
32.5505 36.6159 44.8857 0.547478 0.607221 -0.137719 5
34.6827 34.4192 44.649 0.670168 0.270685 -1.0106 5
36.7832 34.4376 42.741 -0.160643 -0.117412 -1.70768 5
34.56 36.5227 42.98 0.514831 -0.0482584 0.520711 5
36.8352 36.3955 44.7225 0.76693 -0.615364 -0.932946 5
38.9271 34.4359 44.7843 -1.88071 -1.02094 0.734618 5
40.9322 34.5001 42.9321 0.250562 -0.418767 1.1416 5
38.85 36.5247 42.933 -0.709674 0.415651 -1.01056 5
40.9263 36.4613 44.9954 -0.0703248 0.445271 -0.809486 5
45.0345 34.55 43.0305 -0.117161 0.755225 -0.675104 5
43.0048 36.5693 43.1711 -0.49354 0.704293 -0.359617 5
45.0909 36.4249 45.0796 -1.36067 0.586273 -0.394005 5
47.2256 36.2172 43.2152 0.78302 -2.02365 0.763049 5
49.1024 36.5632 45.0007 -1.24958 2.15932 -0.881169 5
51.0622 36.3853 43.0674 -1.3326 0.844527 -0.737372 5
53.3383 36.4983 45.0089 -0.738495 -1.58755 -1.37492 5
55.1497 36.5555 42.9946 0.954556 0.918343 -0.606529 5
71.2465 34.3564 44.6173 2.37304 0.782973 -0.8011 5
71.0732 36.3896 42.9396 -0.457553 0.765128 1.15346 5
69.6617 36.3644 45.0829 0.783684 1.56005 0.00896331 5
73.1596 36.2724 44.9834 -1.50326 -0.146667 -0.129881 5
75.414 36.4669 42.872 -0.51794 1.71971 0.921518 5
79.3256 36.2257 42.7421 0.774087 0.487461 -0.0466514 5
77.2786 36.3298 45.0036 0.477019 -0.0264309 1.21719 5
81.3932 36.2766 44.9642 -0.739309 0.735235 -0.478612 5
83.298 36.3861 42.8749 0.747451 -1.23557 1.41202 5
85.9158 36.4341 44.657 0.883936 1.08015 -1.26681 5
87.8916 36.5914 42.6117 0.101704 -0.980174 -0.0146549 5
89.8554 36.1581 44.4003 1.1733 0.978167 0.950721 5
91.7149 36.5779 42.4314 1.72597 -1.36908 0.0362005 5
93.4762 36.0382 44.2993 -0.678524 -0.0164573 0.51441 5
95.6996 37.9212 45.0939 -1.86325 2.718 0.817734 5
95.9847 36.4599 42.6556 2.01565 0.414708 -0.257938 5
97.5547 35.9025 45.0815 0.297292 -1.54788 -0.580724 5
114.209 34.8257 43.0866 1.24749 0.146561 0.509127 4
116.173 34.8278 45.0856 -0.911905 2.19121 1.20475 4
116.222 36.9121 43.2722 0.519792 0.496435 0.199871 4
118.143 34.7057 43.1574 -0.348262 -1.80549 2.07985 4
118.428 36.6803 45.0318 0.248284 0.619182 -2.34671 4
122.18 34.7923 43.1591 1.33894 -0.569208 -1.51054 4
122.259 36.757 45.1292 0.315037 -0.107791 -1.96036 4
120.3 36.8404 43.0984 1.67105 0.111954 -0.511272 4
120.184 34.4373 45.1314 1.88529 -0.736776 1.40265 4
2.07305 38.6009 45.1313 0.0476549 0.915633 -0.442982 4
2.00357 40.8721 43.2324 0.447691 1.16111 1.02902 4
4.01477 38.8987 43.0578 0.583013 -0.100222 0.877928 4
4.1181 40.8439 45.127 0.964114 -0.101983 -0.376736 4
6.09893 38.998 45.0935 -1.2075 1.57899 -0.896485 4
6.25682 41.0146 43.2074 1.49918 0.767382 0.94177 4
8.13104 38.9955 43.0701 0.311064 -1.09285 -0.492747 4
10.1779 40.7442 42.8083 -2.03623 2.31105 0.0926523 4
8.23786 41.0072 45.2259 -0.154845 1.50264 -1.37161 4
10.3252 38.9116 45.0421 -1.94756 -0.678608 -0.996874 4
12.3301 38.8731 42.7477 -2.69458 0.417568 0.201067 4
26.5039 40.5719 42.6547 0.388959 0.31836 -0.347714 5
28.6108 38.358 42.7894 -0.983821 0.255755 -0.684192 5
28.2945 40.2966 44.8178 -0.036077 -0.214475 -0.158797 5
30.5763 40.7429 42.9076 0.634471 1.13508 1.74676 5
32.6648 38.6772 42.7969 1.12288 -2.45194 0.906096 5
32.6225 40.5805 44.8521 -0.504087 -1.0182 -2.70965 5
34.9386 40.6161 42.8171 -0.891609 -0.158477 -0.206345 5
34.8352 38.6863 44.7734 -0.20967 0.634426 -0.195828 5
36.9576 38.7209 42.8804 0.24409 -1.02093 1.05935 5
36.9203 40.7285 44.8969 -1.6117 -0.281435 -1.60401 5
38.9059 38.5274 44.987 -0.605576 -0.130275 0.364101 5
40.9966 38.5635 42.9725 -1.64469 -1.32258 -0.749359 5
38.9598 40.7908 42.9277 -0.433887 -0.55517 -1.539 5
40.9024 40.6611 44.8645 -1.4838 0.264108 -0.032889 5
43.0554 38.5618 45.1328 -0.722671 0.828587 0.244132 5
42.9658 40.5675 42.9411 0.419519 0.125233 -0.919077 5
45.0169 38.6215 43.041 -1.66484 1.35869 0.647431 5
45.0267 40.6167 45.0626 -1.14734 0.430649 -1.0587 5
47.0873 38.4189 45.0497 -2.2275 -0.651464 0.0348708 5
49.1435 38.619 43.0965 1.28592 2.10631 -2.04919 5
47.192 40.6765 42.836 2.09511 0.353957 1.39718 5
49.3268 40.5975 45.0982 1.34756 1.33842 -0.694043 5
53.301 38.4768 43.0763 -0.645754 0.28587 0.00905694 5
51.1538 38.6008 45.0434 -1.07237 -0.0200274 0.786102 5
51.1651 40.6529 42.9115 -1.43667 -0.338482 -0.962013 5
53.2859 40.6526 44.9496 0.74094 -0.873766 0.916334 5
55.5456 38.4696 45.1382 1.2193 0.231491 -1.19665 5
56.9754 40.5882 45.0788 -0.115325 2.04899 -0.287122 5
67.3902 40.4496 42.6501 -0.865012 -0.94507 -2.14428 5
69.0381 40.6686 44.7771 -1.34932 -0.369661 0.247017 5
71.4241 38.4597 45.1965 3.18683 -0.12432 2.43383 5
71.5451 40.5334 43.1058 2.22759 -0.49743 -0.642017 5
69.4745 38.4946 42.97 0.434292 0.940928 1.95029 5
73.1754 38.3329 42.9746 0.992468 -0.29188 -1.11955 5
75.3962 38.2677 44.8001 -0.251633 -4.22743 1.19114 5
75.4004 40.4148 42.9384 0.327942 -1.66934 -1.50086 5
73.7336 40.5695 45.0735 -0.344636 1.01245 -0.491059 5
79.5843 38.1914 44.8454 -0.924711 0.980865 -0.528083 5
77.5497 38.4674 42.847 0.96452 -0.845457 1.41849 5
79.4529 40.5372 42.9613 -0.868152 -0.175733 -2.82084 5
77.4802 40.3888 45.0418 1.51886 2.58076 0.462836 5
81.3291 38.3511 42.7174 -0.0142556 -1.58473 2.56383 5
83.5108 40.4673 42.8142 0.116599 -1.81954 1.93089 5
83.4663 38.3444 44.765 -0.967447 -0.338261 -0.667583 5
81.6386 40.2433 44.9365 -0.478884 1.54847 0.569433 5
85.4886 38.5189 42.8679 0.575401 -0.577405 3.06716 5