LAMMPS (15 Sep 2022)
OMP_NUM_THREADS environment is not set. Defaulting to 1 thread. (src/comm.cpp:98)
  using 1 OpenMP thread(s) per MPI task
Loaded 1 plugins from C:\Users\becat\AppData\Local\LAMMPS 64-bit 15Sep2022\plugins
Lattice spacing in x,y,z = 4.079 4.079 4.079
Created orthogonal box = (0 0 0) to (40.79 40.79 40.79)
  1 by 1 by 1 MPI processor grid
Read molecule template np:
  1 molecules
  0 fragments
  520 atoms with max type 1
  0 bonds with max type 0
  0 angles with max type 0
  0 dihedrals with max type 0
  0 impropers with max type 0
Created 520 atoms
  using lattice units in orthogonal box = (8.3798666 7.2884757 8.6135055) to (32.947564 33.527411 32.176495)
  create_atoms CPU = 0.000 seconds
Neighbor list info ...
  update: every = 1 steps, delay = 10 steps, check = yes
  max neighbors/atom: 2000, page size: 100000
  master list distance cutoff = 7.55
  ghost atom cutoff = 7.55
  binsize = 3.775, bins = 7 7 7
  1 neighbor lists, perpetual/occasional/extra = 1 0 0
  (1) pair eam, perpetual
      attributes: half, newton on
      pair build: half/bin/atomonly/newton
      stencil: half/bin/3d
      bin: standard
Setting up Verlet run ...
  Unit style    : metal
  Current step  : 0
  Time step     : 0.001
Per MPI rank memory allocation (min/avg/max) = 4.567 | 4.567 | 4.567 Mbytes
   Step          Temp          PotEng         KinEng         TotEng         Volume    
         0   300           -1908.5436      20.125805     -1888.4178      15189.415    
      1000   322.41397     -1910.0424      21.629469     -1888.4129      15189.415    
      2000   315.57961     -1909.564       21.170979     -1888.393       15189.415    
      3000   286.3101      -1907.5676      19.207403     -1888.3601      15189.415    
      4000   292.95312     -1907.966       19.653057     -1888.3129      15189.415    
      5000   278.99696     -1906.9667      18.716795     -1888.2499      15189.415    
      6000   262.53501     -1905.7838      17.612427     -1888.1714      15189.415    
      7000   271.57486     -1906.2945      18.218875     -1888.0757      15189.415    
      8000   304.84075     -1908.413       20.450551     -1887.9625      15189.415    
      9000   286.28466     -1907.0384      19.205697     -1887.8327      15189.415    
     10000   287.77651     -1906.9917      19.305779     -1887.6859      15189.415    
     11000   318.20095     -1908.8705      21.346834     -1887.5237      15189.415    
     12000   289.48023     -1906.7701      19.420075     -1887.35        15189.415    
     13000   292.81048     -1906.8119      19.643488     -1887.1684      15189.415    
     14000   290.08491     -1906.4458      19.460641     -1886.9852      15189.415    
     15000   303.80594     -1907.1859      20.38113      -1886.8048      15189.415    
     16000   304.9444      -1907.0927      20.457505     -1886.6352      15189.415    
     17000   310.45691     -1907.3077      20.827317     -1886.4804      15189.415    
     18000   313.00342     -1907.3424      20.998152     -1886.3443      15189.415    
     19000   302.32655     -1906.5126      20.281883     -1886.2307      15189.415    
     20000   298.37985     -1906.1561      20.017115     -1886.139       15189.415    
     21000   298.05564     -1906.0638      19.995365     -1886.0684      15189.415    
     22000   294.06041     -1905.7428      19.727341     -1886.0155      15189.415    
     23000   317.69779     -1907.2922      21.313078     -1885.9792      15189.415    
     24000   312.89099     -1906.9466      20.990609     -1885.956       15189.415    
     25000   299.23204     -1906.0196      20.074285     -1885.9453      15189.415    
     26000   310.52099     -1906.7759      20.831616     -1885.9443      15189.415    
     27000   302.57874     -1906.2498      20.298802     -1885.951       15189.415    
     28000   306.55785     -1906.5312      20.565745     -1885.9654      13892.467    
     29000   307.98737     -1906.6471      20.661646     -1885.9855      14258.205    
     30000   307.88332     -1906.666       20.654665     -1886.0113      14258.205    
     31000   289.60055     -1905.4708      19.428147     -1886.0426      13861.212    
     32000   302.88825     -1906.3984      20.319566     -1886.0788      13861.212    
     33000   298.38877     -1906.1379      20.017714     -1886.1202      13861.212    
     34000   313.91842     -1907.2257      21.059536     -1886.1662      13861.212    
     35000   320.16861     -1907.6959      21.478836     -1886.2171      13861.212    
     36000   306.72956     -1906.8499      20.577264     -1886.2726      13861.212    
     37000   294.24611     -1906.0717      19.739799     -1886.3319      14228.168    
     38000   301.31665     -1906.6089      20.214133     -1886.3947      14228.168    
     39000   304.62803     -1906.897       20.43628      -1886.4607      13765.411    
     40000   303.15844     -1906.8669      20.337692     -1886.5292      13765.411    
     41000   283.24406     -1905.6024      19.001716     -1886.6007      14059.028    
     42000   309.97478     -1907.4696      20.794973     -1886.6747      14059.028    
     43000   292.93025     -1906.4013      19.651523     -1886.7498      14059.028    
     44000   297.8402      -1906.8068      19.980912     -1886.8259      14059.028    
     45000   284.37539     -1905.9796      19.077612     -1886.902       14059.028    
     46000   295.28227     -1906.7874      19.809311     -1886.978       14059.028    
     47000   295.46329     -1906.8766      19.821455     -1887.0551      14143.039    
     48000   285.77679     -1906.3048      19.171626     -1887.1332      14143.039    
     49000   297.63893     -1907.1788      19.96741      -1887.2114      13934.726    
     50000   295.15048     -1907.0909      19.800469     -1887.2904      13934.726    
Loop time of 40.4372 on 1 procs for 50000 steps with 520 atoms

Performance: 106.832 ns/day, 0.225 hours/ns, 1236.485 timesteps/s
98.3% CPU use with 1 MPI tasks x 1 OpenMP threads

MPI task timing breakdown:
Section |  min time  |  avg time  |  max time  |%varavg| %total
---------------------------------------------------------------
Pair    | 39.458     | 39.458     | 39.458     |   0.0 | 97.58
Neigh   | 0.009196   | 0.009196   | 0.009196   |   0.0 |  0.02
Comm    | 0.014256   | 0.014256   | 0.014256   |   0.0 |  0.04
Output  | 0.12593    | 0.12593    | 0.12593    |   0.0 |  0.31
Modify  | 0.68745    | 0.68745    | 0.68745    |   0.0 |  1.70
Other   |            | 0.1425     |            |       |  0.35

Nlocal:            520 ave         520 max         520 min
Histogram: 1 0 0 0 0 0 0 0 0 0
Nghost:              0 ave           0 max           0 min
Histogram: 1 0 0 0 0 0 0 0 0 0
Neighs:          18729 ave       18729 max       18729 min
Histogram: 1 0 0 0 0 0 0 0 0 0

Total # of neighbors = 18729
Ave neighs/atom = 36.017308
Neighbor list builds = 12
Dangerous builds = 0
Total wall time: 0:00:40
