LAMMPS (15 Sep 2022)
OMP_NUM_THREADS environment is not set. Defaulting to 1 thread. (src/comm.cpp:98)
  using 1 OpenMP thread(s) per MPI task
Loaded 1 plugins from C:\Users\becat\AppData\Local\LAMMPS 64-bit 15Sep2022\plugins
Lattice spacing in x,y,z = 4.079 4.079 4.079
Created orthogonal box = (0 0 0) to (40.79 40.79 40.79)
  1 by 1 by 1 MPI processor grid
Read molecule template np:
  1 molecules
  0 fragments
  887 atoms with max type 1
  0 bonds with max type 0
  0 angles with max type 0
  0 dihedrals with max type 0
  0 impropers with max type 0
Created 887 atoms
  using lattice units in orthogonal box = (5.6036726 4.9010735 6.3537328) to (35.281176 35.884889 34.436279)
  create_atoms CPU = 0.000 seconds
Neighbor list info ...
  update: every = 1 steps, delay = 10 steps, check = yes
  max neighbors/atom: 2000, page size: 100000
  master list distance cutoff = 7.55
  ghost atom cutoff = 7.55
  binsize = 3.775, bins = 8 9 8
  1 neighbor lists, perpetual/occasional/extra = 1 0 0
  (1) pair eam, perpetual
      attributes: half, newton on
      pair build: half/bin/atomonly/newton
      stencil: half/bin/3d
      bin: standard
Setting up Verlet run ...
  Unit style    : metal
  Current step  : 0
  Time step     : 0.001
Per MPI rank memory allocation (min/avg/max) = 4.589 | 4.589 | 4.589 Mbytes
   Step          Temp          PotEng         KinEng         TotEng         Volume    
         0   300           -3319.7677      34.357347     -3285.4104      25822.527    
      1000   149.38141     -3302.4319      17.107829     -3285.3241      25822.527    
      2000   155.51738     -3302.8804      17.810548     -3285.0699      25822.527    
      3000   160.55978     -3303.0844      18.388027     -3284.6963      25822.527    
      4000   160.66782     -3302.7071      18.4004       -3284.3067      25822.527    
      5000   160.1967      -3302.3057      18.346445     -3283.9593      25822.527    
      6000   165.00954     -3302.5164      18.897633     -3283.6187      25822.527    
      7000   165.14232     -3302.1577      18.91284      -3283.2448      25822.527    
      8000   166.55318     -3301.8996      19.074418     -3282.8252      25822.527    
      9000   166.68508     -3301.4599      19.089523     -3282.3704      25822.527    
     10000   168.64498     -3301.2039      19.31398      -3281.8899      25822.527    
     11000   172.78522     -3301.1823      19.788138     -3281.3942      25822.527    
     12000   174.90574     -3300.9151      20.030991     -3280.8842      25822.527    
     13000   185.41842     -3301.5949      21.23495      -3280.36        25822.527    
     14000   179.97775     -3300.4321      20.61186      -3279.8202      25822.527    
     15000   180.72381     -3299.9668      20.697302     -3279.2695      25822.527    
     16000   189.82583     -3300.4441      21.739706     -3278.7044      25822.527    
     17000   186.40543     -3299.4744      21.347987     -3278.1264      25822.527    
     18000   188.85246     -3299.1666      21.628231     -3277.5384      25822.527    
     19000   192.39963     -3298.974       22.03447      -3276.9395      25822.527    
     20000   194.51605     -3298.6067      22.276851     -3276.3298      25822.527    
     21000   193.95312     -3297.9225      22.212382     -3275.7101      25822.527    
     22000   196.39741     -3297.5736      22.492312     -3275.0812      25822.527    
     23000   200.56598     -3297.4125      22.969716     -3274.4428      25822.527    
     24000   208.47643     -3297.6747      23.875657     -3273.799       25822.527    
     25000   202.37041     -3296.3226      23.176368     -3273.1462      25822.527    
     26000   210.89095     -3296.6378      24.152178     -3272.4856      25822.527    
     27000   215.81914     -3296.5368      24.716576     -3271.8202      25822.527    
     28000   210.5185      -3295.2542      24.109524     -3271.1447      25822.527    
     29000   223.55836     -3296.0684      25.602907     -3270.4654      25822.527    
     30000   215.44953     -3294.4554      24.674247     -3269.7811      25822.527    
     31000   217.43822     -3293.996       24.902001     -3269.094       25822.527    
     32000   230.45955     -3294.7948      26.393262     -3268.4016      25822.527    
     33000   233.1435      -3294.4041      26.70064      -3267.7035      25822.527    
     34000   235.72333     -3294.0035      26.996094     -3267.0074      25822.527    
     35000   232.69189     -3292.9534      26.64892      -3266.3045      25822.527    
     36000   228.45401     -3291.7646      26.163578     -3265.601       25822.527    
     37000   240.89037     -3292.4868      27.587847     -3264.899       25822.527    
     38000   247.74789     -3292.5686      28.3732       -3264.1954      25822.527    
     39000   245.42686     -3291.5993      28.107386     -3263.4919      25822.527    
     40000   249.89385     -3291.4076      28.618965     -3262.7886      25822.527    
     41000   260.16501     -3291.886       29.795265     -3262.0908      25822.527    
     42000   258.41106     -3290.9879      29.594394     -3261.3935      25822.527    
     43000   257.34889     -3290.1723      29.47275      -3260.6995      25822.527    
     44000   257.71859     -3289.5262      29.515089     -3260.0111      25822.527    
     45000   270.54731     -3290.3135      30.984292     -3259.3292      25822.527    
     46000   270.92682     -3289.6777      31.027755     -3258.6499      25822.527    
     47000   272.40877     -3289.1783      31.197475     -3257.9808      25822.527    
     48000   272.71045     -3288.553       31.232024     -3257.321       25822.527    
     49000   281.07397     -3288.8552      32.189853     -3256.6653      25822.527    
     50000   285.43896     -3288.7125      32.689751     -3256.0227      25822.527    
Loop time of 48.429 on 1 procs for 50000 steps with 887 atoms

Performance: 89.203 ns/day, 0.269 hours/ns, 1032.440 timesteps/s
100.0% CPU use with 1 MPI tasks x 1 OpenMP threads

MPI task timing breakdown:
Section |  min time  |  avg time  |  max time  |%varavg| %total
---------------------------------------------------------------
Pair    | 47.454     | 47.454     | 47.454     |   0.0 | 97.99
Neigh   | 0          | 0          | 0          |   0.0 |  0.00
Comm    | 0.006427   | 0.006427   | 0.006427   |   0.0 |  0.01
Output  | 0.1341     | 0.1341     | 0.1341     |   0.0 |  0.28
Modify  | 0.70467    | 0.70467    | 0.70467    |   0.0 |  1.46
Other   |            | 0.13       |            |       |  0.27

Nlocal:            887 ave         887 max         887 min
Histogram: 1 0 0 0 0 0 0 0 0 0
Nghost:              0 ave           0 max           0 min
Histogram: 1 0 0 0 0 0 0 0 0 0
Neighs:          33491 ave       33491 max       33491 min
Histogram: 1 0 0 0 0 0 0 0 0 0

Total # of neighbors = 33491
Ave neighs/atom = 37.75761
Neighbor list builds = 0
Dangerous builds = 0
Total wall time: 0:00:48
