LAMMPS (15 Sep 2022)
OMP_NUM_THREADS environment is not set. Defaulting to 1 thread. (src/comm.cpp:98)
  using 1 OpenMP thread(s) per MPI task
Loaded 1 plugins from C:\Users\becat\AppData\Local\LAMMPS 64-bit 15Sep2022\plugins
Lattice spacing in x,y,z = 4.079 4.079 4.079
Created orthogonal box = (0 0 0) to (40.79 40.79 40.79)
  1 by 1 by 1 MPI processor grid
Read molecule template np:
  1 molecules
  0 fragments
  699 atoms with max type 1
  0 bonds with max type 0
  0 angles with max type 0
  0 dihedrals with max type 0
  0 impropers with max type 0
Created 699 atoms
  using lattice units in orthogonal box = (5.9816127 5.6713211 5.6674656) to (34.801328 35.291675 35.665362)
  create_atoms CPU = 0.000 seconds
Neighbor list info ...
  update: every = 1 steps, delay = 10 steps, check = yes
  max neighbors/atom: 2000, page size: 100000
  master list distance cutoff = 7.55
  ghost atom cutoff = 7.55
  binsize = 3.775, bins = 8 8 8
  1 neighbor lists, perpetual/occasional/extra = 1 0 0
  (1) pair eam, perpetual
      attributes: half, newton on
      pair build: half/bin/atomonly/newton
      stencil: half/bin/3d
      bin: standard
Setting up Verlet run ...
  Unit style    : metal
  Current step  : 0
  Time step     : 0.001
Per MPI rank memory allocation (min/avg/max) = 4.578 | 4.578 | 4.578 Mbytes
   Step          Temp          PotEng         KinEng         TotEng         Volume    
         0   300           -2587.0177      27.067074     -2559.9506      25607.709    
      1000   249.57275     -2582.4313      22.517347     -2559.9139      25607.709    
      2000   247.55776     -2582.1324      22.335547     -2559.7968      25607.709    
      3000   241.7808      -2581.4164      21.814329     -2559.6021      25607.709    
      4000   250.80321     -2581.9657      22.628364     -2559.3373      25607.709    
      5000   256.33688     -2582.1521      23.127631     -2559.0245      25607.709    
      6000   264.81261     -2582.5889      23.892342     -2558.6965      25607.709    
      7000   258.69355     -2581.7254      23.340258     -2558.3851      25607.709    
      8000   260.32177     -2581.5938      23.487163     -2558.1066      22670.93     
      9000   267.67292     -2582.0032      24.15041      -2557.8528      22670.93     
     10000   258.82878     -2580.962       23.35246      -2557.6096      22670.93     
     11000   262.24521     -2581.0253      23.660702     -2557.3646      22670.93     
     12000   257.45252     -2580.3349      23.228288     -2557.1066      22670.93     
     13000   261.19458     -2580.4008      23.56591      -2556.8349      23056.082    
     14000   267.24807     -2580.6579      24.112078     -2556.5459      23056.082    
     15000   260.17101     -2579.7154      23.47356      -2556.2419      23342.089    
     16000   253.44114     -2578.7966      22.866367     -2555.9302      23342.089    
     17000   263.54631     -2579.3882      23.778091     -2555.6101      23342.089    
     18000   273.07476     -2579.9273      24.637783     -2555.2895      23342.089    
     19000   269.16718     -2579.253       24.285227     -2554.9678      23342.089    
     20000   280.48033     -2579.9523      25.30594      -2554.6463      23342.089    
     21000   282.12673     -2579.7836      25.454484     -2554.3291      23342.089    
     22000   283.89701     -2579.6279      25.614205     -2554.0137      23342.089    
     23000   270.12686     -2578.0736      24.371813     -2553.7018      23342.089    
     24000   275.23634     -2578.2275      24.832809     -2553.3947      23342.089    
     25000   284.5603      -2578.7648      25.67405      -2553.0908      23342.089    
     26000   282.41459     -2578.2731      25.480456     -2552.7926      23342.089    
     27000   279.23335     -2577.6901      25.193432     -2552.4966      23342.089    
     28000   295.40927     -2578.8599      26.652882     -2552.207       23342.089    
     29000   297.52806     -2578.7689      26.844047     -2551.9248      23342.089    
     30000   294.24116     -2578.194       26.547492     -2551.6465      23342.089    
     31000   284.21059     -2577.0195      25.642497     -2551.377       23342.089    
     32000   279.2768      -2576.3106      25.197353     -2551.1133      23342.089    
     33000   311.75343     -2578.9853      28.127511     -2550.8578      23342.089    
     34000   293.83803     -2577.1223      26.51112      -2550.6112      23082.225    
     35000   297.34726     -2577.1991      26.827735     -2550.3713      23764.424    
     36000   305.02011     -2577.6626      27.520007     -2550.1426      23860.441    
     37000   295.3591      -2576.5717      26.648356     -2549.9234      23923.853    
     38000   290.98392     -2575.9682      26.253612     -2549.7146      23923.853    
     39000   300.99815     -2576.6739      27.157131     -2549.5168      23593.218    
     40000   305.65076     -2576.9055      27.576906     -2549.3286      23744.419    
     41000   318.07822     -2577.8504      28.698157     -2549.1522      23744.419    
     42000   300.43152     -2576.0947      27.106008     -2548.9886      23744.419    
     43000   293.05371     -2575.2776      26.440355     -2548.8373      23759.485    
     44000   312.33141     -2576.8782      28.179658     -2548.6985      23759.485    
     45000   303.16833     -2575.9265      27.352933     -2548.5735      23354.759    
     46000   302.88091     -2575.7885      27.327001     -2548.4615      23354.759    
     47000   316.71966     -2576.9409      28.575582     -2548.3653      23354.759    
     48000   310.41471     -2576.291       28.006727     -2548.2843      23354.759    
     49000   311.63003     -2576.3363      28.116378     -2548.2199      23354.759    
     50000   304.87582     -2575.6794      27.506988     -2548.1724      23354.759    
Loop time of 36.1757 on 1 procs for 50000 steps with 699 atoms

Performance: 119.417 ns/day, 0.201 hours/ns, 1382.143 timesteps/s
100.0% CPU use with 1 MPI tasks x 1 OpenMP threads

MPI task timing breakdown:
Section |  min time  |  avg time  |  max time  |%varavg| %total
---------------------------------------------------------------
Pair    | 35.379     | 35.379     | 35.379     |   0.0 | 97.80
Neigh   | 0.008126   | 0.008126   | 0.008126   |   0.0 |  0.02
Comm    | 0.006341   | 0.006341   | 0.006341   |   0.0 |  0.02
Output  | 0.10698    | 0.10698    | 0.10698    |   0.0 |  0.30
Modify  | 0.56899    | 0.56899    | 0.56899    |   0.0 |  1.57
Other   |            | 0.1062     |            |       |  0.29

Nlocal:            699 ave         699 max         699 min
Histogram: 1 0 0 0 0 0 0 0 0 0
Nghost:              0 ave           0 max           0 min
Histogram: 1 0 0 0 0 0 0 0 0 0
Neighs:          25598 ave       25598 max       25598 min
Histogram: 1 0 0 0 0 0 0 0 0 0

Total # of neighbors = 25598
Ave neighs/atom = 36.620887
Neighbor list builds = 12
Dangerous builds = 0
Total wall time: 0:00:36
