LAMMPS (15 Sep 2022)
OMP_NUM_THREADS environment is not set. Defaulting to 1 thread. (src/comm.cpp:98)
  using 1 OpenMP thread(s) per MPI task
Loaded 1 plugins from C:\Users\becat\AppData\Local\LAMMPS 64-bit 15Sep2022\plugins
Lattice spacing in x,y,z = 4.079 4.079 4.079
Created orthogonal box = (0 0 0) to (40.79 40.79 40.79)
  1 by 1 by 1 MPI processor grid
Read molecule template np:
  1 molecules
  0 fragments
  111 atoms with max type 1
  0 bonds with max type 0
  0 angles with max type 0
  0 dihedrals with max type 0
  0 impropers with max type 0
Created 111 atoms
  using lattice units in orthogonal box = (13.620899 12.819121 13.847912) to (28.576111 28.038668 26.942088)
  create_atoms CPU = 0.000 seconds
Neighbor list info ...
  update: every = 1 steps, delay = 10 steps, check = yes
  max neighbors/atom: 2000, page size: 100000
  master list distance cutoff = 7.55
  ghost atom cutoff = 7.55
  binsize = 3.775, bins = 4 5 4
  1 neighbor lists, perpetual/occasional/extra = 1 0 0
  (1) pair eam, perpetual
      attributes: half, newton on
      pair build: half/bin/atomonly/newton
      stencil: half/bin/3d
      bin: standard
Setting up Verlet run ...
  Unit style    : metal
  Current step  : 0
  Time step     : 0.001
Per MPI rank memory allocation (min/avg/max) = 4.542 | 4.542 | 4.542 Mbytes
   Step          Temp          PotEng         KinEng         TotEng         Volume    
         0   300           -383.96533      4.2655848     -379.69975      2980.3855    
      1000   359.99361     -384.85934      5.1186109     -379.74073      2293.4051    
      2000   433.7072      -386.01972      6.1667162     -379.853        2293.4051    
      3000   459.16045     -386.56229      6.5286261     -380.03366      2448.9754    
      4000   457.25474     -386.75713      6.5015295     -380.2556       2443.4905    
      5000   473.56067     -387.2282       6.7333773     -380.49482      2430.4036    
      6000   435.29625     -386.91055      6.1893102     -380.72124      2615.3281    
      7000   400.96832     -386.62231      5.7012145     -380.9211       2491.0136    
      8000   379.50344     -386.49401      5.3960137     -381.098        2351.1495    
      9000   407.93619     -387.06054      5.8002881     -381.26025      2453.0757    
     10000   393.26159     -387.01282      5.5916356     -381.42118      2505.3117    
     11000   400.99832     -387.28617      5.7016411     -381.58453      2626.0944    
     12000   392.45121     -387.33607      5.580113      -381.75595      2530.0642    
     13000   364.18716     -387.11056      5.1782374     -381.93233      2500.0699    
     14000   364.4229      -387.2935       5.1815893     -382.11191      2500.0699    
     15000   383.94304     -387.75181      5.4591386     -382.29267      2500.0699    
     16000   356.37223     -387.53962      5.0671199     -382.4725       2500.0699    
     17000   366.30884     -387.85644      5.2084047     -382.64803      2500.0699    
     18000   336.95332     -387.60881      4.7910099     -382.8178       2500.0699    
     19000   344.67304     -387.88232      4.9007735     -382.98155      2500.0699    
     20000   342.1243      -388.0041       4.8645341     -383.13957      2500.0699    
     21000   370.63425     -388.55995      5.2699061     -383.29004      2500.0699    
     22000   338.34219     -388.24615      4.8107576     -383.43539      2500.0699    
     23000   338.29493     -388.38468      4.8100856     -383.5746       2500.0699    
     24000   301.65143     -387.99631      4.2890658     -383.70724      2353.4652    
     25000   347.73046     -388.77918      4.9442458     -383.83494      2353.4652    
     26000   311.67751     -388.39042      4.4316228     -383.9588       2353.4652    
     27000   341.37343     -388.93083      4.8538576     -384.07698      2353.4652    
     28000   320.72261     -388.74879      4.5602316     -384.18856      2353.4652    
     29000   261.60256     -388.01596      3.7196263     -384.29633      2353.4652    
     30000   321.8596      -388.97253      4.576398      -384.39614      2318.1372    
     31000   298.11888     -388.7314       4.2388379     -384.49256      2483.0289    
     32000   306.048       -388.93459      4.351579      -384.58301      2483.0289    
     33000   300.89737     -388.94557      4.2783442     -384.66723      2438.3447    
     34000   302.81718     -389.05251      4.3056411     -384.74687      2486.6764    
     35000   261.02511     -388.53281      3.7114158     -384.82139      2486.6764    
     36000   273.97919     -388.7866       3.8956048     -384.891        2346.745     
     37000   312.47513     -389.39887      4.4429639     -384.95591      2346.745     
     38000   288.75603     -389.12071      4.1057112     -385.01499      2346.745     
     39000   277.40674     -389.01373      3.9443399     -385.06939      2346.745     
     40000   282.14774     -389.13015      4.0117504     -385.1184       2346.745     
     41000   285.23969     -389.21798      4.0557135     -385.16227      2419.4733    
     42000   274.90149     -389.10947      3.9087187     -385.20075      2445.553     
     43000   287.9262      -389.32794      4.0939121     -385.23403      2445.553     
     44000   254.48603     -388.88017      3.6184391     -385.26173      2445.553     
     45000   297.26996     -389.51002      4.2267674     -385.28326      2445.553     
     46000   256.11544     -388.94108      3.6416071     -385.29947      2445.553     
     47000   263.94476     -389.06283      3.7529292     -385.3099       2445.553     
     48000   276.94671     -389.25203      3.9377989     -385.31423      2445.553     
     49000   269.68486     -389.14687      3.8345455     -385.31233      2445.553     
     50000   291.52725     -389.44903      4.1451141     -385.30392      2445.553     
Loop time of 5.53047 on 1 procs for 50000 steps with 111 atoms

Performance: 781.127 ns/day, 0.031 hours/ns, 9040.821 timesteps/s
99.7% CPU use with 1 MPI tasks x 1 OpenMP threads

MPI task timing breakdown:
Section |  min time  |  avg time  |  max time  |%varavg| %total
---------------------------------------------------------------
Pair    | 5.2957     | 5.2957     | 5.2957     |   0.0 | 95.75
Neigh   | 0.002028   | 0.002028   | 0.002028   |   0.0 |  0.04
Comm    | 0.007115   | 0.007115   | 0.007115   |   0.0 |  0.13
Output  | 0.025573   | 0.025573   | 0.025573   |   0.0 |  0.46
Modify  | 0.16739    | 0.16739    | 0.16739    |   0.0 |  3.03
Other   |            | 0.03271    |            |       |  0.59

Nlocal:            111 ave         111 max         111 min
Histogram: 1 0 0 0 0 0 0 0 0 0
Nghost:              0 ave           0 max           0 min
Histogram: 1 0 0 0 0 0 0 0 0 0
Neighs:           2889 ave        2889 max        2889 min
Histogram: 1 0 0 0 0 0 0 0 0 0

Total # of neighbors = 2889
Ave neighs/atom = 26.027027
Neighbor list builds = 26
Dangerous builds = 0
Total wall time: 0:00:05
