LAMMPS (15 Sep 2022)
OMP_NUM_THREADS environment is not set. Defaulting to 1 thread. (src/comm.cpp:98)
  using 1 OpenMP thread(s) per MPI task
Loaded 1 plugins from C:\Users\becat\AppData\Local\LAMMPS 64-bit 15Sep2022\plugins
Lattice spacing in x,y,z = 4.079 4.079 4.079
Created orthogonal box = (0 0 0) to (40.79 40.79 40.79)
  1 by 1 by 1 MPI processor grid
Read molecule template np:
  1 molecules
  0 fragments
  35 atoms with max type 1
  0 bonds with max type 0
  0 angles with max type 0
  0 dihedrals with max type 0
  0 impropers with max type 0
Created 35 atoms
  using lattice units in orthogonal box = (17.644596 15.071627 14.222067) to (23.032289 24.680274 25.787704)
  create_atoms CPU = 0.000 seconds
Neighbor list info ...
  update: every = 1 steps, delay = 10 steps, check = yes
  max neighbors/atom: 2000, page size: 100000
  master list distance cutoff = 7.55
  ghost atom cutoff = 7.55
  binsize = 3.775, bins = 2 3 4
  1 neighbor lists, perpetual/occasional/extra = 1 0 0
  (1) pair eam, perpetual
      attributes: half, newton on
      pair build: half/bin/atomonly/newton
      stencil: half/bin/3d
      bin: standard
Setting up Verlet run ...
  Unit style    : metal
  Current step  : 0
  Time step     : 0.001
Per MPI rank memory allocation (min/avg/max) = 4.537 | 4.537 | 4.537 Mbytes
   Step          Temp          PotEng         KinEng         TotEng         Volume    
         0   300           -115.98554      1.3184535     -114.66709      598.73499    
      1000   171.18248     -115.41666      0.75232046    -114.66434      598.73499    
      2000   227.03584     -115.65369      0.99778732    -114.65591      598.73499    
      3000   214.84398     -115.58586      0.94420599    -114.64166      598.73499    
      4000   258.85613     -115.75952      1.1376326     -114.62189      598.73499    
      5000   212.02479     -115.52798      0.93181607    -114.59616      598.73499    
      6000   218.58465     -115.5249       0.96064563    -114.56425      598.73499    
      7000   234.91595     -115.55889      1.0324192     -114.52647      598.73499    
      8000   221.70095     -115.45857      0.97434131    -114.48423      598.73499    
      9000   215.45687     -115.38656      0.94689952    -114.43966      598.73499    
     10000   269.42837     -115.57961      1.1840959     -114.39552      598.73499    
     11000   209.81196     -115.27491      0.92209104    -114.35282      598.73499    
     12000   209.49174     -115.23396      0.92068369    -114.31328      598.73499    
     13000   235.79916     -115.31518      1.0363007     -114.27888      598.73499    
     14000   240.67614     -115.30638      1.0577343     -114.24864      598.73499    
     15000   261.00801     -115.368        1.1470897     -114.22091      598.73499    
     16000   264.95821     -115.36051      1.1644502     -114.19606      560.90238    
     17000   260.08046     -115.31423      1.1430133     -114.17122      579.47557    
     18000   256.05123     -115.27352      1.1253055     -114.14821      579.47557    
     19000   313.69901     -115.50326      1.3786585     -114.1246       579.47557    
     20000   222.1373      -115.07761      0.97625897    -114.10135      579.47557    
     21000   302.68039     -115.40831      1.3302334     -114.07808      579.47557    
     22000   278.68763     -115.2788       1.2247889     -114.05401      579.47557    
     23000   267.80093     -115.20754      1.1769435     -114.0306       619.16031    
     24000   284.84222     -115.25705      1.2518374     -114.00521      619.16031    
     25000   296.44588     -115.2814       1.3028337     -113.97856      619.16031    
     26000   273.95528     -115.15529      1.203991      -113.9513       598.03141    
     27000   268.30483     -115.10372      1.1791581     -113.92456      598.03141    
     28000   327.36763     -115.33609      1.43873       -113.89736      598.03141    
     29000   279.02501     -115.09632      1.2262717     -113.87005      598.03141    
     30000   305.89968     -115.18633      1.3443817     -113.84195      598.03141    
     31000   250.765       -114.91657      1.1020733     -113.8145       609.08294    
     32000   273.31356     -114.98863      1.2011707     -113.78746      578.84531    
     33000   323.37851     -115.1823       1.4211984     -113.7611       626.90368    
     34000   325.4756      -115.16686      1.4304148     -113.73645      626.90368    
     35000   343.46358     -115.22192      1.5094692     -113.71245      626.90368    
     36000   261.85433     -114.84096      1.1508092     -113.69015      588.08293    
     37000   317.74758     -115.06632      1.3964513     -113.66987      588.08293    
     38000   299.73822     -114.96638      1.317303      -113.64907      599.17634    
     39000   297.34729     -114.93672      1.3067952     -113.62993      599.17634    
     40000   352.92688     -115.1628       1.5510589     -113.61174      599.17634    
     41000   325.73683     -115.02602      1.4315628     -113.59445      547.0033     
     42000   405.73338     -115.3627       1.7831353     -113.57956      516.59077    
     43000   287.72116     -114.83189      1.2644899     -113.5674       516.59077    
     44000   301.27442     -114.88294      1.3240544     -113.55888      474.54591    
     45000   310.95173     -114.92109      1.3665846     -113.55451      474.54591    
     46000   295.39299     -114.85281      1.2982064     -113.5546       474.54591    
     47000   327.95089     -114.9996       1.4412933     -113.5583       520.14886    
     48000   304.30374     -114.9034       1.3373677     -113.56603      520.14886    
     49000   418.08224     -115.41618      1.8374066     -113.57877      540.96557    
     50000   287.07128     -114.85848      1.2616338     -113.59685      563.13054    
Loop time of 1.17543 on 1 procs for 50000 steps with 35 atoms

Performance: 3675.260 ns/day, 0.007 hours/ns, 42537.733 timesteps/s
99.7% CPU use with 1 MPI tasks x 1 OpenMP threads

MPI task timing breakdown:
Section |  min time  |  avg time  |  max time  |%varavg| %total
---------------------------------------------------------------
Pair    | 1.0483     | 1.0483     | 1.0483     |   0.0 | 89.19
Neigh   | 0.000185   | 0.000185   | 0.000185   |   0.0 |  0.02
Comm    | 0.006546   | 0.006546   | 0.006546   |   0.0 |  0.56
Output  | 0.011053   | 0.011053   | 0.011053   |   0.0 |  0.94
Modify  | 0.090783   | 0.090783   | 0.090783   |   0.0 |  7.72
Other   |            | 0.01854    |            |       |  1.58

Nlocal:             35 ave          35 max          35 min
Histogram: 1 0 0 0 0 0 0 0 0 0
Nghost:              0 ave           0 max           0 min
Histogram: 1 0 0 0 0 0 0 0 0 0
Neighs:            490 ave         490 max         490 min
Histogram: 1 0 0 0 0 0 0 0 0 0

Total # of neighbors = 490
Ave neighs/atom = 14
Neighbor list builds = 15
Dangerous builds = 0
Total wall time: 0:00:01
