LAMMPS (15 Sep 2022)
OMP_NUM_THREADS environment is not set. Defaulting to 1 thread. (src/comm.cpp:98)
  using 1 OpenMP thread(s) per MPI task
Loaded 1 plugins from C:\Users\becat\AppData\Local\LAMMPS 64-bit 15Sep2022\plugins
Lattice spacing in x,y,z = 4.079 4.079 4.079
Created orthogonal box = (0 0 0) to (40.79 40.79 40.79)
  1 by 1 by 1 MPI processor grid
Read molecule template np:
  1 molecules
  0 fragments
  32 atoms with max type 1
  0 bonds with max type 0
  0 angles with max type 0
  0 dihedrals with max type 0
  0 impropers with max type 0
Created 32 atoms
  using lattice units in orthogonal box = (16.245932 15.769241 16.478249) to (24.37379 25.099432 24.080197)
  create_atoms CPU = 0.000 seconds
Neighbor list info ...
  update: every = 1 steps, delay = 10 steps, check = yes
  max neighbors/atom: 2000, page size: 100000
  master list distance cutoff = 7.55
  ghost atom cutoff = 7.55
  binsize = 3.775, bins = 3 3 3
  1 neighbor lists, perpetual/occasional/extra = 1 0 0
  (1) pair eam, perpetual
      attributes: half, newton on
      pair build: half/bin/atomonly/newton
      stencil: half/bin/3d
      bin: standard
Setting up Verlet run ...
  Unit style    : metal
  Current step  : 0
  Time step     : 0.001
Per MPI rank memory allocation (min/avg/max) = 4.536 | 4.536 | 4.536 Mbytes
   Step          Temp          PotEng         KinEng         TotEng         Volume    
         0   300           -101.1956       1.2021193     -99.993477      576.48975    
      1000   533.52898     -102.17211      2.137885      -100.03423      513.49222    
      2000   824.54575     -103.46478      3.304008      -100.16077      510.72067    
      3000   818.52101     -103.64314      3.2798665     -100.36328      487.02619    
      4000   744.53604     -103.5908       2.9834039     -100.60739      422.13455    
      5000   645.00018     -103.43821      2.5845573     -100.85365      444.61173    
      6000   730.89738     -104.00007      2.9287529     -101.07131      402.72626    
      7000   685.31734     -103.9924       2.7461108     -101.24629      492.93903    
      8000   515.671       -103.47583      2.0663269     -101.4095       488.18589    
      9000   771.1795      -104.66155      3.090166      -101.57139      419.17281    
     10000   534.94531     -103.88451      2.1435604     -101.74095      419.95179    
     11000   611.4386      -104.36911      2.4500739     -101.91904      398.78754    
     12000   459.14719     -103.94648      1.8398324     -102.10665      409.06714    
     13000   514.90699     -104.36145      2.0632655     -102.29818      386.79496    
     14000   571.21171     -104.77069      2.2888822     -102.48181      420.31241    
     15000   537.41818     -104.81441      2.1534693     -102.66094      406.56828    
     16000   455.15822     -104.65591      1.8238484     -102.83206      410.28006    
     17000   455.83853     -104.81088      1.8265744     -102.9843       384.62682    
     18000   441.03273     -104.90156      1.7672466     -103.13431      421.25584    
     19000   536.45336     -105.42393      2.1496032     -103.27433      457.53861    
     20000   462.18005     -105.2634       1.8519853     -103.41142      418.422      
     21000   464.587       -105.404        1.8616301     -103.54237      409.78405    
     22000   400.56588     -105.2765       1.6050933     -103.67141      452.88523    
     23000   444.81358     -105.57483      1.7823967     -103.79243      452.88523    
     24000   381.31248     -105.43301      1.5279437     -103.90507      452.88523    
     25000   371.48609     -105.4968       1.4885687     -104.00823      413.76065    
     26000   343.08256     -105.48366      1.374754      -104.1089       413.76065    
     27000   351.68006     -105.61241      1.4092047     -104.20321      413.76065    
     28000   347.06376     -105.68098      1.3907069     -104.29028      413.76065    
     29000   319.00459     -105.65092      1.278272      -104.37265      413.76065    
     30000   286.60626     -105.59517      1.1484498     -104.44672      413.76065    
     31000   333.74588     -105.85666      1.3373413     -104.51932      413.76065    
     32000   332.69402     -105.91902      1.3331264     -104.58589      413.76065    
     33000   298.76132     -105.84598      1.1971559     -104.64882      413.76065    
     34000   355.23037     -106.13042      1.423431      -104.70699      413.76065    
     35000   295.99305     -105.94579      1.1860632     -104.75973      427.72222    
     36000   319.13719     -106.0879       1.2788033     -104.8091       427.72222    
     37000   286.12692     -106.00004      1.146529      -104.85351      427.72222    
     38000   318.46155     -106.17084      1.276096      -104.89475      427.72222    
     39000   276.32219     -106.03838      1.1072409     -104.93114      427.72222    
     40000   286.22165     -106.1095       1.1469086     -104.96259      414.0595     
     41000   280.09088     -106.11351      1.1223422     -104.99117      414.0595     
     42000   235.84203     -105.96279      0.94503421    -105.01775      455.85167    
     43000   267.21307     -106.11026      1.07074       -105.03952      455.85167    
     44000   250.65495     -106.06257      1.0043906     -105.05818      455.85167    
     45000   243.56821     -106.04995      0.97599352    -105.07396      455.85167    
     46000   241.57066     -106.05416      0.96798922    -105.08617      455.85167    
     47000   265.96743     -106.16122      1.0657486     -105.09548      455.85167    
     48000   287.92904     -106.25524      1.1537503     -105.10149      455.85167    
     49000   260.76618     -106.14922      1.0449069     -105.10431      455.85167    
     50000   230.15866     -106.02618      0.92226059    -105.10392      455.85167    
Loop time of 1.29727 on 1 procs for 50000 steps with 32 atoms

Performance: 3330.057 ns/day, 0.007 hours/ns, 38542.329 timesteps/s
98.8% CPU use with 1 MPI tasks x 1 OpenMP threads

MPI task timing breakdown:
Section |  min time  |  avg time  |  max time  |%varavg| %total
---------------------------------------------------------------
Pair    | 1.1558     | 1.1558     | 1.1558     |   0.0 | 89.09
Neigh   | 0.000548   | 0.000548   | 0.000548   |   0.0 |  0.04
Comm    | 0.007951   | 0.007951   | 0.007951   |   0.0 |  0.61
Output  | 0.012293   | 0.012293   | 0.012293   |   0.0 |  0.95
Modify  | 0.098308   | 0.098308   | 0.098308   |   0.0 |  7.58
Other   |            | 0.02238    |            |       |  1.73

Nlocal:             32 ave          32 max          32 min
Histogram: 1 0 0 0 0 0 0 0 0 0
Nghost:              0 ave           0 max           0 min
Histogram: 1 0 0 0 0 0 0 0 0 0
Neighs:            466 ave         466 max         466 min
Histogram: 1 0 0 0 0 0 0 0 0 0

Total # of neighbors = 466
Ave neighs/atom = 14.5625
Neighbor list builds = 53
Dangerous builds = 0
Total wall time: 0:00:01
