LAMMPS (15 Sep 2022)
OMP_NUM_THREADS environment is not set. Defaulting to 1 thread. (src/comm.cpp:98)
  using 1 OpenMP thread(s) per MPI task
Loaded 1 plugins from C:\Users\becat\AppData\Local\LAMMPS 64-bit 15Sep2022\plugins
Lattice spacing in x,y,z = 4.079 4.079 4.079
Created orthogonal box = (0 0 0) to (40.79 40.79 40.79)
  1 by 1 by 1 MPI processor grid
Read molecule template np:
  1 molecules
  0 fragments
  42 atoms with max type 1
  0 bonds with max type 0
  0 angles with max type 0
  0 dihedrals with max type 0
  0 impropers with max type 0
Created 42 atoms
  using lattice units in orthogonal box = (15.018165 15.128822 15.107411) to (25.771835 25.661178 25.682589)
  create_atoms CPU = 0.000 seconds
Neighbor list info ...
  update: every = 1 steps, delay = 10 steps, check = yes
  max neighbors/atom: 2000, page size: 100000
  master list distance cutoff = 7.55
  ghost atom cutoff = 7.55
  binsize = 3.775, bins = 3 3 3
  1 neighbor lists, perpetual/occasional/extra = 1 0 0
  (1) pair eam, perpetual
      attributes: half, newton on
      pair build: half/bin/atomonly/newton
      stencil: half/bin/3d
      bin: standard
Setting up Verlet run ...
  Unit style    : metal
  Current step  : 0
  Time step     : 0.001
Per MPI rank memory allocation (min/avg/max) = 4.537 | 4.537 | 4.537 Mbytes
   Step          Temp          PotEng         KinEng         TotEng         Volume    
         0   300           -107.20882      1.5898998     -105.61892      1197.7603    
      1000   2244.1717     -118.27737      11.89336      -106.38401      960.74331    
      2000   2492.5951     -121.92412      13.209921     -108.7142       1424.1188    
      3000   2089.9432     -121.71424      11.076001     -110.63824      1702.9622    
      4000   2167.5742     -123.89704      11.487419     -112.40962      1193.0508    
      5000   1757.5851     -123.6051       9.3146138     -114.29049      1140.533     
      6000   1891.314      -126.35174      10.023332     -116.32841      1055.3829    
      7000   1846.1982     -128.00563      9.7842335     -118.22139      1055.5763    
      8000   1450.8904     -127.75433      7.6892343     -120.0651       1122.911     
      9000   1374.3556     -128.92127      7.2836255     -121.63765      735.07116    
     10000   1441.0572     -130.7923       7.637122      -123.15518      767.0341     
     11000   1393.5807     -131.99724      7.385512      -124.61172      723.64453    
     12000   1164.1204     -132.23555      6.1694492     -126.06611      658.01355    
     13000   1141.0881     -133.29805      6.0473859     -127.25066      685.73903    
     14000   820.06553     -132.63677      4.3460734     -128.2907       769.55554    
     15000   1009.8287     -134.63807      5.3517546     -129.28632      687.93215    
     16000   910.90886     -135.08166      4.8275127     -130.25414      604.98637    
     17000   747.85373     -135.05423      3.9633749     -131.09086      812.10566    
     18000   965.10409     -136.97139      5.1147293     -131.85667      589.82788    
     19000   673.24404     -136.11568      3.5679685     -132.54771      646.9917     
     20000   839.19987     -137.66334      4.447479      -133.21586      722.24122    
     21000   741.47064     -137.74584      3.9295467     -133.81629      650.36778    
     22000   656.33426     -137.86875      3.4783523     -134.39039      784.30548    
     23000   683.98977     -138.55635      3.6249173     -134.93143      752.1347     
     24000   592.88907     -138.55713      3.142114      -135.41501      651.67242    
     25000   616.49738     -139.13971      3.2672302     -135.87248      658.10128    
     26000   538.24318     -139.13725      2.8525091     -136.28474      678.59775    
     27000   593.44338     -139.81871      3.1450516     -136.67366      676.11757    
     28000   552.95898     -139.95594      2.9304979     -137.02544      644.94959    
     29000   377.38452     -139.34087      2.0000119     -137.34086      625.23292    
     30000   413.08631     -139.80843      2.1892194     -137.61921      647.63758    
     31000   442.25272     -140.2266       2.3437917     -137.88281      661.2326     
     32000   405.36966     -140.27828      2.1483238     -138.12996      636.42252    
     33000   401.58451     -140.48075      2.1282637     -138.35248      638.77188    
     34000   328.53937     -140.30313      1.7411489     -138.56198      638.77188    
     35000   349.04391     -140.60498      1.8498161     -138.75517      661.65905    
     36000   319.64459     -140.62018      1.6940096     -138.92617      590.11847    
     37000   300.70327     -140.67431      1.5936269     -139.08068      590.11847    
     38000   302.548       -140.82316      1.6034033     -139.21976      590.11847    
     39000   284.96134     -140.85809      1.5101999     -139.34789      590.11847    
     40000   219.40133     -140.62866      1.1627538     -139.46591      655.16341    
     41000   279.68074     -141.05329      1.4822145     -139.57108      655.16341    
     42000   318.08805     -141.35474      1.6857604     -139.66898      619.44012    
     43000   272.54062     -141.20097      1.4443743     -139.7566       619.44012    
     44000   273.82159     -141.28448      1.451163      -139.83332      619.44012    
     45000   243.08935     -141.19234      1.2882924     -139.90404      619.44012    
     46000   236.38718     -141.21838      1.2527731     -139.96561      619.44012    
     47000   222.05603     -141.19728      1.1768228     -140.02045      619.44012    
     48000   238.91933     -141.33358      1.2661927     -140.06739      619.44012    
     49000   204.96309     -141.19384      1.0862359     -140.1076       619.44012    
     50000   223.52582     -141.32569      1.1846122     -140.14108      619.44012    
Loop time of 1.38138 on 1 procs for 50000 steps with 42 atoms

Performance: 3127.319 ns/day, 0.008 hours/ns, 36195.819 timesteps/s
100.7% CPU use with 1 MPI tasks x 1 OpenMP threads

MPI task timing breakdown:
Section |  min time  |  avg time  |  max time  |%varavg| %total
---------------------------------------------------------------
Pair    | 1.2502     | 1.2502     | 1.2502     |   0.0 | 90.51
Neigh   | 0.002685   | 0.002685   | 0.002685   |   0.0 |  0.19
Comm    | 0.00623    | 0.00623    | 0.00623    |   0.0 |  0.45
Output  | 0.011595   | 0.011595   | 0.011595   |   0.0 |  0.84
Modify  | 0.089414   | 0.089414   | 0.089414   |   0.0 |  6.47
Other   |            | 0.02121    |            |       |  1.54

Nlocal:             42 ave          42 max          42 min
Histogram: 1 0 0 0 0 0 0 0 0 0
Nghost:              0 ave           0 max           0 min
Histogram: 1 0 0 0 0 0 0 0 0 0
Neighs:            713 ave         713 max         713 min
Histogram: 1 0 0 0 0 0 0 0 0 0

Total # of neighbors = 713
Ave neighs/atom = 16.97619
Neighbor list builds = 165
Dangerous builds = 0
Total wall time: 0:00:01
