LAMMPS (15 Sep 2022)
OMP_NUM_THREADS environment is not set. Defaulting to 1 thread. (src/comm.cpp:98)
  using 1 OpenMP thread(s) per MPI task
Loaded 1 plugins from C:\Users\becat\AppData\Local\LAMMPS 64-bit 15Sep2022\plugins
Lattice spacing in x,y,z = 4.079 4.079 4.079
Created orthogonal box = (0 0 0) to (40.79 40.79 40.79)
  1 by 1 by 1 MPI processor grid
Read molecule template np:
  1 molecules
  0 fragments
  1415 atoms with max type 1
  0 bonds with max type 0
  0 angles with max type 0
  0 dihedrals with max type 0
  0 impropers with max type 0
Created 1415 atoms
  using lattice units in orthogonal box = (4.4809148 1.7632043 1.5050407) to (36.309085 39.026796 39.284959)
  create_atoms CPU = 0.000 seconds
Neighbor list info ...
  update: every = 1 steps, delay = 10 steps, check = yes
  max neighbors/atom: 2000, page size: 100000
  master list distance cutoff = 7.55
  ghost atom cutoff = 7.55
  binsize = 3.775, bins = 9 10 11
  1 neighbor lists, perpetual/occasional/extra = 1 0 0
  (1) pair eam, perpetual
      attributes: half, newton on
      pair build: half/bin/atomonly/newton
      stencil: half/bin/3d
      bin: standard
Setting up Verlet run ...
  Unit style    : metal
  Current step  : 0
  Time step     : 0.001
Per MPI rank memory allocation (min/avg/max) = 4.621 | 4.621 | 4.621 Mbytes
   Step          Temp          PotEng         KinEng         TotEng         Volume    
         0   300           -5291.9728      54.832154     -5237.1406      44808.19     
      1000   228.18172     -5278.7396      41.705651     -5237.034       40857.716    
      2000   217.86895     -5276.538       39.820746     -5236.7173      42470.989    
      3000   225.77586     -5277.482       41.265922     -5236.2161      41085.807    
      4000   221.72288     -5276.1529      40.525143     -5235.6278      42549.679    
      5000   223.21885     -5275.8602      40.798567     -5235.0616      41706.787    
      6000   228.65454     -5276.3495      41.79207      -5234.5574      41590.169    
      7000   228.42582     -5275.8193      41.750265     -5234.069       41590.169    
      8000   235.01628     -5276.5073      42.954829     -5233.5525      42060.205    
      9000   233.33845     -5275.6349      42.648165     -5232.9868      41371.792    
     10000   235.4446      -5275.4057      43.033114     -5232.3726      41371.792    
     11000   235.33511     -5274.7341      43.013103     -5231.721       41231.067    
     12000   234.45552     -5273.9011      42.852337     -5231.0488      42277.959    
     13000   242.67789     -5274.7187      44.355171     -5230.3636      42201.479    
     14000   238.96135     -5273.3446      43.675885     -5229.6687      42201.479    
     15000   243.35082     -5273.4421      44.478166     -5228.964       41486.571    
     16000   247.68192     -5273.5208      45.269777     -5228.2511      41960.858    
     17000   246.58242     -5272.5982      45.068817     -5227.5293      42337.215    
     18000   247.4243      -5272.0259      45.222691     -5226.8032      42337.215    
     19000   249.57878     -5271.6853      45.616473     -5226.0688      41287.413    
     20000   255.83805     -5272.0894      46.760504     -5225.3289      41461.619    
     21000   258.8841      -5271.9057      47.317242     -5224.5884      41792.638    
     22000   255.85024     -5270.6077      46.762732     -5223.845       41572.377    
     23000   252.67673     -5269.2814      46.182697     -5223.0987      41493.301    
     24000   262.58382     -5270.345       47.993454     -5222.3516      41688.404    
     25000   259.58941     -5269.0534      47.446155     -5221.6072      42149.442    
     26000   264.12209     -5269.1378      48.274611     -5220.8632      41589.316    
     27000   263.79035     -5268.3332      48.213976     -5220.1192      40774.315    
     28000   265.46393     -5267.8988      48.519864     -5219.3789      41464.894    
     29000   266.94124     -5267.4355      48.789877     -5218.6456      42402.902    
     30000   273.40712     -5267.884       49.97167      -5217.9123      41724.546    
     31000   277.04502     -5267.8223      50.636583     -5217.1857      41364.488    
     32000   276.38715     -5266.9842      50.516343     -5216.4678      42607.094    
     33000   275.89638     -5266.183       50.426642     -5215.7564      41978.095    
     34000   280.38447     -5266.2993      51.246947     -5215.0523      41957.244    
     35000   287.19187     -5266.8514      52.491163     -5214.3602      41984.445    
     36000   277.12094     -5264.3256      50.65046      -5213.6752      42124.975    
     37000   285.6184      -5265.2076      52.203573     -5213.0041      42598.569    
     38000   278.00686     -5263.1558      50.812383     -5212.3434      42113.511    
     39000   286.03492     -5263.9767      52.279701     -5211.697       40823.551    
     40000   282.55815     -5262.7094      51.644239     -5211.0651      42060.54     
     41000   296.36709     -5264.6127      54.168153     -5210.4446      41032.276    
     42000   293.3979      -5263.4673      53.625462     -5209.8418      41566.599    
     43000   290.02345     -5262.2626      53.008701     -5209.2539      41713.395    
     44000   289.41314     -5261.5814      52.897152     -5208.6843      41847.121    
     45000   295.92996     -5262.2228      54.088256     -5208.1346      41535.504    
     46000   294.57369     -5261.4442      53.840366     -5207.6039      41951.857    
     47000   303.73        -5262.6084      55.5139       -5207.0945      41956.833    
     48000   300.33002     -5261.5008      54.892472     -5206.6083      41723.613    
     49000   304.57063     -5261.8111      55.667544     -5206.1436      41375.994    
     50000   301.05715     -5260.7287      55.025374     -5205.7033      42147.066    
Loop time of 94.5992 on 1 procs for 50000 steps with 1415 atoms

Performance: 45.666 ns/day, 0.526 hours/ns, 528.546 timesteps/s
99.8% CPU use with 1 MPI tasks x 1 OpenMP threads

MPI task timing breakdown:
Section |  min time  |  avg time  |  max time  |%varavg| %total
---------------------------------------------------------------
Pair    | 92.551     | 92.551     | 92.551     |   0.0 | 97.83
Neigh   | 0.12529    | 0.12529    | 0.12529    |   0.0 |  0.13
Comm    | 0.011806   | 0.011806   | 0.011806   |   0.0 |  0.01
Output  | 0.25105    | 0.25105    | 0.25105    |   0.0 |  0.27
Modify  | 1.3998     | 1.3998     | 1.3998     |   0.0 |  1.48
Other   |            | 0.2606     |            |       |  0.28

Nlocal:           1415 ave        1415 max        1415 min
Histogram: 1 0 0 0 0 0 0 0 0 0
Nghost:              0 ave           0 max           0 min
Histogram: 1 0 0 0 0 0 0 0 0 0
Neighs:          54896 ave       54896 max       54896 min
Histogram: 1 0 0 0 0 0 0 0 0 0

Total # of neighbors = 54896
Ave neighs/atom = 38.79576
Neighbor list builds = 70
Dangerous builds = 0
Total wall time: 0:01:34
