LAMMPS (15 Sep 2022)
OMP_NUM_THREADS environment is not set. Defaulting to 1 thread. (src/comm.cpp:98)
  using 1 OpenMP thread(s) per MPI task
Loaded 1 plugins from C:\Users\becat\AppData\Local\LAMMPS 64-bit 15Sep2022\plugins
Lattice spacing in x,y,z = 4.079 4.079 4.079
Created orthogonal box = (0 0 0) to (40.79 40.79 40.79)
  1 by 1 by 1 MPI processor grid
Read molecule template np:
  1 molecules
  0 fragments
  17 atoms with max type 1
  0 bonds with max type 0
  0 angles with max type 0
  0 dihedrals with max type 0
  0 impropers with max type 0
Created 17 atoms
  using lattice units in orthogonal box = (18.106374 17.432441 17.396551) to (22.8363 23.307917 23.2401)
  create_atoms CPU = 0.000 seconds
Neighbor list info ...
  update: every = 1 steps, delay = 10 steps, check = yes
  max neighbors/atom: 2000, page size: 100000
  master list distance cutoff = 7.55
  ghost atom cutoff = 7.55
  binsize = 3.775, bins = 2 2 2
  1 neighbor lists, perpetual/occasional/extra = 1 0 0
  (1) pair eam, perpetual
      attributes: half, newton on
      pair build: half/bin/atomonly/newton
      stencil: half/bin/3d
      bin: standard
Setting up Verlet run ...
  Unit style    : metal
  Current step  : 0
  Time step     : 0.001
Per MPI rank memory allocation (min/avg/max) = 4.41 | 4.41 | 4.41 Mbytes
   Step          Temp          PotEng         KinEng         TotEng         Volume    
         0   300           -51.856514      0.6204487     -51.236065      162.39555    
      1000   807.94533     -52.909532      1.6709621     -51.23857       149.61832    
      2000   522.11992     -52.358058      1.0798287     -51.278229      168.99035    
      3000   657.42207     -52.721657      1.3596556     -51.362001      150.12752    
      4000   675.31476     -52.882814      1.3966606     -51.486153      174.19398    
      5000   548.97126     -52.759049      1.1353617     -51.623687      162.83595    
      6000   574.63758     -52.944286      1.1884438     -51.755842      163.55753    
      7000   548.35301     -53.008678      1.134083      -51.874595      174.42576    
      8000   619.70443     -53.259565      1.2816493     -51.977915      204.40837    
      9000   470.04095     -53.037159      0.97212097    -52.065038      161.69583    
     10000   600.20628     -53.383421      1.241324      -52.142097      200.29206    
     11000   344.41116     -52.934769      0.71229818    -52.222471      189.94651    
     12000   520.12949     -53.376669      1.0757122     -52.300957      178.09653    
     13000   470.14116     -53.347245      0.97232823    -52.374917      187.76027    
     14000   534.81031     -53.562628      1.1060745     -52.456553      192.61611    
     15000   420.4218      -53.405323      0.86950053    -52.535823      166.3793     
     16000   449.68602     -53.544752      0.93002368    -52.614728      166.3793     
     17000   424.88657     -53.56916       0.87873439    -52.690426      187.52334    
     18000   446.70129     -53.688978      0.92385077    -52.765127      169.23878    
     19000   508.16217     -53.886857      1.0509619     -52.835895      191.87983    
     20000   379.34563     -53.681466      0.78454834    -52.896918      191.87983    
     21000   351.80889     -53.683896      0.72759789    -52.956298      191.87983    
     22000   392.94899     -53.822387      0.81268229    -53.009704      191.87983    
     23000   464.32903     -54.025629      0.96030781    -53.065321      187.84069    
     24000   353.77991     -53.849793      0.73167428    -53.118119      187.84069    
     25000   328.79801     -53.847793      0.68000766    -53.167786      187.84069    
     26000   406.06077     -54.05442       0.83979959    -53.21462       187.84069    
     27000   290.26294     -53.856825      0.60031087    -53.256514      187.84069    
     28000   419.03219     -54.16141       0.86662658    -53.294784      181.23197    
     29000   232.97861     -53.810397      0.48183758    -53.32856       181.23197    
     30000   339.87556     -54.06543       0.70291783    -53.362512      168.60222    
     31000   313.02751     -54.042705      0.6473917     -53.395314      168.60222    
     32000   391.3398      -54.23536       0.80935423    -53.426005      168.60222    
     33000   317.43887     -54.112099      0.6565151     -53.455584      168.60222    
     34000   284.51644     -54.070428      0.58842618    -53.482002      168.60222    
     35000   333.05791     -54.195098      0.68881781    -53.50628       168.60222    
     36000   164.02555     -53.867957      0.33923146    -53.528726      168.60222    
     37000   273.59782     -54.115242      0.5658447     -53.549397      168.60222    
     38000   323.98111     -54.238679      0.67004552    -53.568634      168.60222    
     39000   208.48362     -54.016993      0.43117797    -53.585815      168.60222    
     40000   211.86967     -54.039711      0.43818087    -53.60153       168.60222    
     41000   188.37933     -54.005209      0.38959903    -53.61561       168.60222    
     42000   338.16574     -54.326836      0.69938163    -53.627455      168.60222    
     43000   169.00882     -53.987438      0.34953767    -53.637901      168.60222    
     44000   232.54761     -54.127358      0.48094621    -53.646412      168.60222    
     45000   193.17482     -54.05291       0.39951688    -53.653393      168.60222    
     46000   242.87182     -54.160934      0.50229834    -53.658635      168.60222    
     47000   183.31564     -54.0414        0.3791265     -53.662274      168.60222    
     48000   257.47873     -54.196652      0.53250781    -53.664144      168.60222    
     49000   202.79839     -54.083541      0.41941999    -53.664121      168.60222    
     50000   235.52103     -54.149404      0.48709572    -53.662308      168.60222    
Loop time of 0.517709 on 1 procs for 50000 steps with 17 atoms

Performance: 8344.456 ns/day, 0.003 hours/ns, 96579.352 timesteps/s
99.6% CPU use with 1 MPI tasks x 1 OpenMP threads

MPI task timing breakdown:
Section |  min time  |  avg time  |  max time  |%varavg| %total
---------------------------------------------------------------
Pair    | 0.41642    | 0.41642    | 0.41642    |   0.0 | 80.44
Neigh   | 0.000132   | 0.000132   | 0.000132   |   0.0 |  0.03
Comm    | 0.006741   | 0.006741   | 0.006741   |   0.0 |  1.30
Output  | 0.007359   | 0.007359   | 0.007359   |   0.0 |  1.42
Modify  | 0.071671   | 0.071671   | 0.071671   |   0.0 | 13.84
Other   |            | 0.01538    |            |       |  2.97

Nlocal:             17 ave          17 max          17 min
Histogram: 1 0 0 0 0 0 0 0 0 0
Nghost:              0 ave           0 max           0 min
Histogram: 1 0 0 0 0 0 0 0 0 0
Neighs:            136 ave         136 max         136 min
Histogram: 1 0 0 0 0 0 0 0 0 0

Total # of neighbors = 136
Ave neighs/atom = 8
Neighbor list builds = 29
Dangerous builds = 0
Total wall time: 0:00:00
