LAMMPS (15 Sep 2022)
OMP_NUM_THREADS environment is not set. Defaulting to 1 thread. (src/comm.cpp:98)
  using 1 OpenMP thread(s) per MPI task
Loaded 1 plugins from C:\Users\becat\AppData\Local\LAMMPS 64-bit 15Sep2022\plugins
Lattice spacing in x,y,z = 4.079 4.079 4.079
Created orthogonal box = (0 0 0) to (40.79 40.79 40.79)
  1 by 1 by 1 MPI processor grid
Read molecule template np:
  1 molecules
  0 fragments
  40 atoms with max type 1
  0 bonds with max type 0
  0 angles with max type 0
  0 dihedrals with max type 0
  0 impropers with max type 0
Created 40 atoms
  using lattice units in orthogonal box = (15.874206 15.916835 16.49854) to (25.374701 24.341903 24.455024)
  create_atoms CPU = 0.000 seconds
Neighbor list info ...
  update: every = 1 steps, delay = 10 steps, check = yes
  max neighbors/atom: 2000, page size: 100000
  master list distance cutoff = 7.55
  ghost atom cutoff = 7.55
  binsize = 3.775, bins = 3 3 3
  1 neighbor lists, perpetual/occasional/extra = 1 0 0
  (1) pair eam, perpetual
      attributes: half, newton on
      pair build: half/bin/atomonly/newton
      stencil: half/bin/3d
      bin: standard
Setting up Verlet run ...
  Unit style    : metal
  Current step  : 0
  Time step     : 0.001
Per MPI rank memory allocation (min/avg/max) = 4.537 | 4.537 | 4.537 Mbytes
   Step          Temp          PotEng         KinEng         TotEng         Volume    
         0   300           -135.11598      1.5123437     -133.60364      636.85543    
      1000   191.17048     -134.56394      0.96371822    -133.60022      636.85543    
      2000   141.32915     -134.30216      0.71246081    -133.5897       636.85543    
      3000   155.87443     -134.35792      0.78578573    -133.57214      636.85543    
      4000   180.98479     -134.45903      0.91237068    -133.54666      636.85543    
      5000   218.32856     -134.61511      1.1006261     -133.51448      636.85543    
      6000   181.9923      -134.39161      0.9174497     -133.47416      636.85543    
      7000   191.26195     -134.39346      0.96417937    -133.42928      636.85543    
      8000   231.77817     -134.55169      1.1684275     -133.38326      636.85543    
      9000   240.27637     -134.54696      1.2112682     -133.33569      636.85543    
     10000   231.58115     -134.45866      1.1674343     -133.29123      636.85543    
     11000   222.76675     -134.37315      1.1229996     -133.25015      636.85543    
     12000   194.21282     -134.19146      0.97905512    -133.2124       636.85543    
     13000   209.76266     -134.23787      1.0574441     -133.18043      587.35633    
     14000   187.86098     -134.09543      0.94703454    -133.1484       587.35633    
     15000   229.28057     -134.27353      1.1558367     -133.11769      580.28281    
     16000   240.03799     -134.29579      1.2100665     -133.08572      580.28281    
     17000   250.17437     -134.31461      1.2611654     -133.05345      580.28281    
     18000   232.15475     -134.18982      1.1703259     -133.0195       580.28281    
     19000   260.23297     -134.29552      1.3118723     -132.98364      616.44823    
     20000   265.82034     -134.28601      1.3400391     -132.94597      616.44823    
     21000   282.6435      -134.33151      1.424847      -132.90666      616.44823    
     22000   265.61514     -134.2053       1.3390046     -132.8663       598.30201    
     23000   264.52109     -134.15896      1.3334893     -132.82547      598.30201    
     24000   258.86131     -134.08821      1.3049576     -132.78325      598.30201    
     25000   315.34647     -134.33         1.5897075     -132.74029      613.1042     
     26000   286.9857      -134.14434      1.4467367     -132.6976       600.9939     
     27000   283.40041     -134.08379      1.4286628     -132.65513      631.94304    
     28000   272.80105     -133.98873      1.3752298     -132.6135       631.94304    
     29000   281.75864     -133.99243      1.4203864     -132.57204      631.94304    
     30000   301.07697     -134.04872      1.5177729     -132.53095      631.94304    
     31000   282.10479     -133.91286      1.4221314     -132.49073      650.56798    
     32000   284.19943     -133.88487      1.4326907     -132.45218      650.56798    
     33000   266.46502     -133.7584       1.343289      -132.41512      546.77272    
     34000   321.4333      -134.00189      1.6203921     -132.3815       546.77272    
     35000   318.66709     -133.95263      1.6064472     -132.34618      661.14856    
     36000   308.63135     -133.86934      1.5558556     -132.31348      652.73286    
     37000   316.15239     -133.87766      1.5937703     -132.28389      652.73286    
     38000   370.5611      -134.12321      1.8680525     -132.25515      652.73286    
     39000   314.11772     -133.81255      1.5835132     -132.22903      652.73286    
     40000   344.22817     -133.93908      1.7353044     -132.20377      652.73286    
     41000   363.63738     -134.01357      1.833149      -132.18042      652.73286    
     42000   296.51072     -133.6561       1.4947537     -132.16134      652.73286    
     43000   331.66803     -133.8162       1.6719868     -132.14421      652.73286    
     44000   314.75328     -133.71652      1.5867171     -132.1298       652.73286    
     45000   298.71654     -133.6243       1.5058736     -132.11842      652.73286    
     46000   316.13404     -133.70394      1.5936777     -132.11026      655.15116    
     47000   326.75994     -133.75146      1.6472445     -132.10422      655.15116    
     48000   357.06515     -133.90068      1.8000175     -132.10067      673.52546    
     49000   339.49147     -133.81171      1.7114259     -132.10029      693.71408    
     50000   308.17895     -133.6561       1.553575      -132.10252      709.71251    
Loop time of 1.10735 on 1 procs for 50000 steps with 40 atoms

Performance: 3901.223 ns/day, 0.006 hours/ns, 45153.046 timesteps/s
98.8% CPU use with 1 MPI tasks x 1 OpenMP threads

MPI task timing breakdown:
Section |  min time  |  avg time  |  max time  |%varavg| %total
---------------------------------------------------------------
Pair    | 1.0082     | 1.0082     | 1.0082     |   0.0 | 91.04
Neigh   | 0.000201   | 0.000201   | 0.000201   |   0.0 |  0.02
Comm    | 0.004855   | 0.004855   | 0.004855   |   0.0 |  0.44
Output  | 0.009497   | 0.009497   | 0.009497   |   0.0 |  0.86
Modify  | 0.070393   | 0.070393   | 0.070393   |   0.0 |  6.36
Other   |            | 0.01422    |            |       |  1.28

Nlocal:             40 ave          40 max          40 min
Histogram: 1 0 0 0 0 0 0 0 0 0
Nghost:              0 ave           0 max           0 min
Histogram: 1 0 0 0 0 0 0 0 0 0
Neighs:            668 ave         668 max         668 min
Histogram: 1 0 0 0 0 0 0 0 0 0

Total # of neighbors = 668
Ave neighs/atom = 16.7
Neighbor list builds = 18
Dangerous builds = 0
Total wall time: 0:00:01
