LAMMPS (15 Sep 2022)
OMP_NUM_THREADS environment is not set. Defaulting to 1 thread. (src/comm.cpp:98)
  using 1 OpenMP thread(s) per MPI task
Loaded 1 plugins from C:\Users\becat\AppData\Local\LAMMPS 64-bit 15Sep2022\plugins
Lattice spacing in x,y,z = 4.079 4.079 4.079
Created orthogonal box = (0 0 0) to (40.79 40.79 40.79)
  1 by 1 by 1 MPI processor grid
Read molecule template np:
  1 molecules
  0 fragments
  236 atoms with max type 1
  0 bonds with max type 0
  0 angles with max type 0
  0 dihedrals with max type 0
  0 impropers with max type 0
Created 236 atoms
  using lattice units in orthogonal box = (11.632767 11.084165 11.227819) to (29.157232 29.705835 29.562181)
  create_atoms CPU = 0.000 seconds
Neighbor list info ...
  update: every = 1 steps, delay = 10 steps, check = yes
  max neighbors/atom: 2000, page size: 100000
  master list distance cutoff = 7.55
  ghost atom cutoff = 7.55
  binsize = 3.775, bins = 5 5 5
  1 neighbor lists, perpetual/occasional/extra = 1 0 0
  (1) pair eam, perpetual
      attributes: half, newton on
      pair build: half/bin/atomonly/newton
      stencil: half/bin/3d
      bin: standard
Setting up Verlet run ...
  Unit style    : metal
  Current step  : 0
  Time step     : 0.001
Per MPI rank memory allocation (min/avg/max) = 4.549 | 4.549 | 4.549 Mbytes
   Step          Temp          PotEng         KinEng         TotEng         Volume    
         0   300           -842.55994      9.1128402     -833.4471       5983.14      
      1000   384.81807     -845.15099      11.689285     -833.4617       5983.14      
      2000   322.69482     -843.30316      9.8022212     -833.50094      5983.14      
      3000   346.70788     -844.0986       10.531645     -833.56695      5983.14      
      4000   346.76753     -844.18876      10.533457     -833.6553       5983.14      
      5000   318.88058     -843.45351      9.6863594     -833.76715      5983.14      
      6000   339.41458     -844.21112      10.310103     -833.90102      5983.14      
      7000   316.68972     -843.66984      9.6198095     -834.05003      5983.14      
      8000   335.00563     -844.38492      10.176176     -834.20875      5983.14      
      9000   320.67298     -844.1086       9.7408054     -834.36779      5983.14      
     10000   321.43302     -844.28235      9.7638924     -834.51845      5983.14      
     11000   310.08043     -844.0736       9.4190449     -834.65456      5983.14      
     12000   323.24264     -844.59458      9.8188618     -834.77572      5983.14      
     13000   298.62039     -843.95103      9.0709329     -834.8801       5983.14      
     14000   316.16448     -844.57376      9.6038546     -834.9699       5983.14      
     15000   320.19135     -844.77402      9.7261754     -835.04784      5983.14      
     16000   327.75306     -845.0743       9.9558709     -835.11843      5983.14      
     17000   339.0197      -845.48118      10.298108     -835.18307      5983.14      
     18000   309.63919     -844.64902      9.4056415     -835.24338      5983.14      
     19000   319.90456     -845.01917      9.7174638     -835.30171      5983.14      
     20000   280.04614     -843.86322      8.506719      -835.3565       5449.8188    
     21000   301.91708     -844.58008      9.1710738     -835.40901      5407.096     
     22000   310.4952      -844.8928       9.4316439     -835.46115      5542.3148    
     23000   325.33389     -845.39522      9.8823858     -835.51284      5483.8031    
     24000   309.24631     -844.95824      9.3937075     -835.56454      5672.9211    
     25000   317.03338     -845.24655      9.6302483     -835.6163       5584.4108    
     26000   316.35383     -845.27728      9.6096063     -835.66768      5589.0874    
     27000   295.4051      -844.69256      8.9732649     -835.7193       5538.8567    
     28000   293.56001     -844.68658      8.9172181     -835.76937      5538.8567    
     29000   299.5317      -844.91743      9.0986151     -835.81882      5538.8567    
     30000   310.28033     -845.29228      9.4251168     -835.86716      5538.8567    
     31000   276.72189     -844.32063      8.4057411     -835.91489      5538.8567    
     32000   288.89618     -844.73678      8.7755491     -835.96123      5538.8567    
     33000   328.46014     -845.98318      9.9773494     -836.00583      5538.8567    
     34000   287.45655     -844.78016      8.7318186     -836.04834      5538.8567    
     35000   319.51495     -845.79524      9.705629      -836.08962      5538.8567    
     36000   301.55962     -845.28851      9.1602156     -836.12829      5538.8567    
     37000   307.45757     -845.50442      9.3393722     -836.16505      5538.8567    
     38000   305.49766     -845.47897      9.2798379     -836.19913      5573.141     
     39000   297.36664     -845.2631       9.032849      -836.23025      5573.141     
     40000   295.88579     -845.24615      8.9878663     -836.25828      5573.141     
     41000   270.26646     -844.49265      8.2096504     -836.283        5533.4728    
     42000   273.66925     -844.61791      8.3130138     -836.3049       5368.1096    
     43000   287.70179     -845.05983      8.7392681     -836.32056      5569.7791    
     44000   286.64471     -845.04013      8.7071583     -836.33297      5517.6363    
     45000   293.20451     -845.24863      8.9064196     -836.34221      5613.6108    
     46000   298.82094     -845.4252       9.0770248     -836.34818      5587.742     
     47000   306.45358     -845.65853      9.3088751     -836.34966      5632.5986    
     48000   276.19514     -844.73627      8.3897405     -836.34653      5632.5986    
     49000   299.302       -845.42995      9.0916377     -836.33831      5632.5986    
     50000   300.20036     -845.44272      9.1189265     -836.32379      5632.5986    
Loop time of 13.5242 on 1 procs for 50000 steps with 236 atoms

Performance: 319.426 ns/day, 0.075 hours/ns, 3697.066 timesteps/s
99.5% CPU use with 1 MPI tasks x 1 OpenMP threads

MPI task timing breakdown:
Section |  min time  |  avg time  |  max time  |%varavg| %total
---------------------------------------------------------------
Pair    | 13.111     | 13.111     | 13.111     |   0.0 | 96.95
Neigh   | 0.004023   | 0.004023   | 0.004023   |   0.0 |  0.03
Comm    | 0.008916   | 0.008916   | 0.008916   |   0.0 |  0.07
Output  | 0.050662   | 0.050662   | 0.050662   |   0.0 |  0.37
Modify  | 0.29098    | 0.29098    | 0.29098    |   0.0 |  2.15
Other   |            | 0.0583     |            |       |  0.43

Nlocal:            236 ave         236 max         236 min
Histogram: 1 0 0 0 0 0 0 0 0 0
Nghost:              0 ave           0 max           0 min
Histogram: 1 0 0 0 0 0 0 0 0 0
Neighs:           7385 ave        7385 max        7385 min
Histogram: 1 0 0 0 0 0 0 0 0 0

Total # of neighbors = 7385
Ave neighs/atom = 31.292373
Neighbor list builds = 18
Dangerous builds = 0
Total wall time: 0:00:13
