LAMMPS (15 Sep 2022)
OMP_NUM_THREADS environment is not set. Defaulting to 1 thread. (src/comm.cpp:98)
  using 1 OpenMP thread(s) per MPI task
Loaded 1 plugins from C:\Users\becat\AppData\Local\LAMMPS 64-bit 15Sep2022\plugins
Lattice spacing in x,y,z = 4.079 4.079 4.079
Created orthogonal box = (0 0 0) to (40.79 40.79 40.79)
  1 by 1 by 1 MPI processor grid
Read molecule template np:
  1 molecules
  0 fragments
  923 atoms with max type 1
  0 bonds with max type 0
  0 angles with max type 0
  0 dihedrals with max type 0
  0 impropers with max type 0
Created 923 atoms
  using lattice units in orthogonal box = (4.190873 5.8480819 5.6381406) to (36.59929 34.940306 35.153228)
  create_atoms CPU = 0.000 seconds
Neighbor list info ...
  update: every = 1 steps, delay = 10 steps, check = yes
  max neighbors/atom: 2000, page size: 100000
  master list distance cutoff = 7.55
  ghost atom cutoff = 7.55
  binsize = 3.775, bins = 9 8 8
  1 neighbor lists, perpetual/occasional/extra = 1 0 0
  (1) pair eam, perpetual
      attributes: half, newton on
      pair build: half/bin/atomonly/newton
      stencil: half/bin/3d
      bin: standard
Setting up Verlet run ...
  Unit style    : metal
  Current step  : 0
  Time step     : 0.001
Per MPI rank memory allocation (min/avg/max) = 4.591 | 4.591 | 4.591 Mbytes
   Step          Temp          PotEng         KinEng         TotEng         Volume    
         0   300           -3451.7751      35.753356     -3416.0218      27827.795    
      1000   158.29521     -3434.7977      18.865284     -3415.9324      27827.795    
      2000   153.27466     -3433.936       18.266945     -3415.669       27827.795    
      3000   157.51144     -3434.054       18.771875     -3415.2822      27827.795    
      4000   154.032       -3433.2408      18.357203     -3414.8836      27827.795    
      5000   156.6455      -3433.1983      18.668675     -3414.5296      27827.795    
      6000   161.85908     -3433.4673      19.290018     -3414.1773      27827.795    
      7000   161.13345     -3432.9938      19.203539     -3413.7902      27827.795    
      8000   162.60541     -3432.7337      19.378963     -3413.3547      27827.795    
      9000   172.10704     -3433.3941      20.511348     -3412.8828      27827.795    
     10000   167.08767     -3432.301       19.913149     -3412.3879      27827.795    
     11000   173.0802      -3432.5044      20.627326     -3411.877       27827.795    
     12000   171.71216     -3431.8144      20.464286     -3411.3501      27827.795    
     13000   175.23093     -3431.694       20.883646     -3410.8104      27827.795    
     14000   172.14554     -3430.7693      20.515936     -3410.2533      27827.795    
     15000   179.57412     -3431.0841      21.401259     -3409.6828      27827.795    
     16000   180.00383     -3430.5526      21.45247      -3409.1001      27827.795    
     17000   182.60742     -3430.2673      21.76276      -3408.5045      27827.795    
     18000   186.37758     -3430.1095      22.21208      -3407.8975      27827.795    
     19000   188.12711     -3429.6992      22.420585     -3407.2786      27827.795    
     20000   181.93656     -3428.3329      21.682809     -3406.65        27827.795    
     21000   198.16953     -3429.6275      23.617419     -3406.0101      27827.795    
     22000   193.04776     -3428.3681      23.007017     -3405.361       27827.795    
     23000   206.13252     -3429.2686      24.566431     -3404.7022      27827.795    
     24000   208.34604     -3428.8664      24.830233     -3404.0361      27827.795    
     25000   205.68383     -3427.8729      24.512957     -3403.36        27827.795    
     26000   206.15695     -3427.2477      24.569343     -3402.6784      27827.795    
     27000   213.3844      -3427.4192      25.430695     -3401.9885      27827.795    
     28000   223.50024     -3427.9288      26.636279     -3401.2925      27827.795    
     29000   218.04842     -3426.5762      25.986543     -3400.5897      27827.795    
     30000   219.85877     -3426.0854      26.202297     -3399.8831      27827.795    
     31000   223.56488     -3425.8124      26.643982     -3399.1684      27827.795    
     32000   229.72561     -3425.8283      27.378205     -3398.4501      27827.795    
     33000   232.96923     -3425.494       27.764773     -3397.7292      27827.795    
     34000   230.53615     -3424.4808      27.474804     -3397.006       27827.795    
     35000   240.07534     -3424.8885      28.611663     -3396.2768      27827.795    
     36000   234.37436     -3423.479       27.932233     -3395.5468      27827.795    
     37000   238.11971     -3423.1958      28.378596     -3394.8172      27827.795    
     38000   242.92512     -3423.0368      28.951294     -3394.0855      27827.795    
     39000   246.01401     -3422.6765      29.319421     -3393.357       27827.795    
     40000   242.47716     -3421.5255      28.897907     -3392.6276      27827.795    
     41000   251.37196     -3421.8579      29.957971     -3391.8999      27827.795    
     42000   248.69936     -3420.8143      29.639456     -3391.1748      27827.795    
     43000   264.01057     -3421.9167      31.464213     -3390.4525      27827.795    
     44000   257.16163     -3420.3844      30.647971     -3389.7364      27827.795    
     45000   264.37528     -3420.5286      31.507678     -3389.0209      27827.795    
     46000   271.71721     -3420.6964      32.382674     -3388.3137      27827.795    
     47000   279.75733     -3420.9568      33.340878     -3387.6159      27827.795    
     48000   270.61259     -3419.1744      32.251028     -3386.9233      27827.795    
     49000   272.17436     -3418.677       32.437156     -3386.2398      27827.795    
     50000   281.59359     -3419.1254      33.55972      -3385.5656      27827.795    
Loop time of 49.9124 on 1 procs for 50000 steps with 923 atoms

Performance: 86.552 ns/day, 0.277 hours/ns, 1001.756 timesteps/s
100.0% CPU use with 1 MPI tasks x 1 OpenMP threads

MPI task timing breakdown:
Section |  min time  |  avg time  |  max time  |%varavg| %total
---------------------------------------------------------------
Pair    | 48.922     | 48.922     | 48.922     |   0.0 | 98.02
Neigh   | 0          | 0          | 0          |   0.0 |  0.00
Comm    | 0.005903   | 0.005903   | 0.005903   |   0.0 |  0.01
Output  | 0.13733    | 0.13733    | 0.13733    |   0.0 |  0.28
Modify  | 0.71556    | 0.71556    | 0.71556    |   0.0 |  1.43
Other   |            | 0.1316     |            |       |  0.26

Nlocal:            923 ave         923 max         923 min
Histogram: 1 0 0 0 0 0 0 0 0 0
Nghost:              0 ave           0 max           0 min
Histogram: 1 0 0 0 0 0 0 0 0 0
Neighs:          36697 ave       36697 max       36697 min
Histogram: 1 0 0 0 0 0 0 0 0 0

Total # of neighbors = 36697
Ave neighs/atom = 39.758397
Neighbor list builds = 0
Dangerous builds = 0
Total wall time: 0:00:49
