LAMMPS (15 Sep 2022)
OMP_NUM_THREADS environment is not set. Defaulting to 1 thread. (src/comm.cpp:98)
  using 1 OpenMP thread(s) per MPI task
Loaded 1 plugins from C:\Users\becat\AppData\Local\LAMMPS 64-bit 15Sep2022\plugins
Lattice spacing in x,y,z = 4.079 4.079 4.079
Created orthogonal box = (0 0 0) to (40.79 40.79 40.79)
  1 by 1 by 1 MPI processor grid
Read molecule template np:
  1 molecules
  0 fragments
  35 atoms with max type 1
  0 bonds with max type 0
  0 angles with max type 0
  0 dihedrals with max type 0
  0 impropers with max type 0
Created 35 atoms
  using lattice units in orthogonal box = (16.560078 16.379597 16.197805) to (24.6293 25.18693 24.586974)
  create_atoms CPU = 0.000 seconds
Neighbor list info ...
  update: every = 1 steps, delay = 10 steps, check = yes
  max neighbors/atom: 2000, page size: 100000
  master list distance cutoff = 7.55
  ghost atom cutoff = 7.55
  binsize = 3.775, bins = 3 3 3
  1 neighbor lists, perpetual/occasional/extra = 1 0 0
  (1) pair eam, perpetual
      attributes: half, newton on
      pair build: half/bin/atomonly/newton
      stencil: half/bin/3d
      bin: standard
Setting up Verlet run ...
  Unit style    : metal
  Current step  : 0
  Time step     : 0.001
Per MPI rank memory allocation (min/avg/max) = 4.537 | 4.537 | 4.537 Mbytes
   Step          Temp          PotEng         KinEng         TotEng         Volume    
         0   300           -117.16425      1.3184535     -115.84579      596.20414    
      1000   173.22523     -116.60429      0.76129801    -115.84299      596.20414    
      2000   195.97754     -116.69552      0.86129088    -115.83423      596.20414    
      3000   233.65092     -116.84639      1.0268596     -115.81953      596.20414    
      4000   192.55625     -116.64477      0.84625487    -115.79852      596.20414    
      5000   257.00893     -116.90054      1.1295144     -115.77102      596.20414    
      6000   212.31912     -116.6703       0.93310961    -115.73719      596.20414    
      7000   190.6053      -116.53668      0.83768074    -115.699        596.20414    
      8000   221.11788     -116.62815      0.97177881    -115.65638      596.20414    
      9000   200.92955     -116.49504      0.8830542     -115.61199      596.20414    
     10000   187.43261     -116.39247      0.82373727    -115.56873      596.20414    
     11000   225.76537     -116.52005      0.99220381    -115.52784      596.20414    
     12000   237.22555     -116.53389      1.0425695     -115.49132      596.20414    
     13000   250.34698     -116.55958      1.1002362     -115.45935      615.53454    
     14000   256.40204     -116.55589      1.1268472     -115.42904      558.28072    
     15000   229.29166     -116.40876      1.0077013     -115.40106      558.28072    
     16000   250.14859     -116.4738       1.0993642     -115.37444      558.28072    
     17000   263.14876     -116.50486      1.156498      -115.34837      558.28072    
     18000   263.96662     -116.48201      1.1600924     -115.32192      558.28072    
     19000   354.36023     -116.85248      1.5573582     -115.29512      558.28072    
     20000   252.81867     -116.3788       1.1110988     -115.2677       579.26715    
     21000   266.69748     -116.41127      1.1720941     -115.23917      579.26715    
     22000   279.53283     -116.43908      1.2285034     -115.21057      579.26715    
     23000   245.67463     -116.25963      1.0797019     -115.17992      579.26715    
     24000   284.11403     -116.39856      1.2486371     -115.14993      579.26715    
     25000   252.74597     -116.22864      1.1107794     -115.11786      579.26715    
     26000   263.24387     -116.24283      1.156916      -115.08591      579.26715    
     27000   268.61441     -116.23324      1.1805187     -115.05272      579.26715    
     28000   285.81921     -116.27665      1.2561311     -115.02052      579.26715    
     29000   296.95101     -116.29252      1.3050536     -114.98747      579.26715    
     30000   268.81106     -116.13713      1.1813829     -114.95574      555.38042    
     31000   301.16117     -116.24776      1.3235567     -114.9242       598.36266    
     32000   281.4539      -116.13089      1.2369463     -114.89395      598.36266    
     33000   380.17193     -116.53542      1.6707967     -114.86462      598.36266    
     34000   288.60811     -116.10517      1.2683879     -114.83678      598.36266    
     35000   347.2761      -116.33655      1.5262246     -114.81032      598.36266    
     36000   321.11675     -116.1974       1.4112583     -114.78614      598.36266    
     37000   323.47727     -116.18536      1.4216324     -114.76372      598.36266    
     38000   348.58782     -116.27552      1.5319894     -114.74353      598.36266    
     39000   299.2052      -116.0391       1.3149605     -114.72413      598.36266    
     40000   324.92477     -116.13361      1.427994      -114.70562      598.36266    
     41000   329.96517     -116.14011      1.4501458     -114.68996      598.36266    
     42000   282.9207      -115.92013      1.2433926     -114.67674      598.36266    
     43000   285.45918     -115.92014      1.2545488     -114.66559      566.20635    
     44000   341.72946     -116.15942      1.501848      -114.65757      566.20635    
     45000   323.29172     -116.07276      1.420817      -114.65195      566.20635    
     46000   402.70789     -116.41881      1.7698387     -114.64897      566.20635    
     47000   352.83398     -116.19966      1.5506506     -114.64901      566.20635    
     48000   301.48824     -115.97723      1.3249941     -114.65224      566.20635    
     49000   285.47105     -115.91326      1.254601      -114.65866      566.20635    
     50000   329.13345     -116.11446      1.4464905     -114.66797      535.50462    
Loop time of 0.928174 on 1 procs for 50000 steps with 35 atoms

Performance: 4654.300 ns/day, 0.005 hours/ns, 53869.210 timesteps/s
99.3% CPU use with 1 MPI tasks x 1 OpenMP threads

MPI task timing breakdown:
Section |  min time  |  avg time  |  max time  |%varavg| %total
---------------------------------------------------------------
Pair    | 0.83507    | 0.83507    | 0.83507    |   0.0 | 89.97
Neigh   | 7e-05      | 7e-05      | 7e-05      |   0.0 |  0.01
Comm    | 0.004631   | 0.004631   | 0.004631   |   0.0 |  0.50
Output  | 0.008804   | 0.008804   | 0.008804   |   0.0 |  0.95
Modify  | 0.066307   | 0.066307   | 0.066307   |   0.0 |  7.14
Other   |            | 0.01329    |            |       |  1.43

Nlocal:             35 ave          35 max          35 min
Histogram: 1 0 0 0 0 0 0 0 0 0
Nghost:              0 ave           0 max           0 min
Histogram: 1 0 0 0 0 0 0 0 0 0
Neighs:            537 ave         537 max         537 min
Histogram: 1 0 0 0 0 0 0 0 0 0

Total # of neighbors = 537
Ave neighs/atom = 15.342857
Neighbor list builds = 7
Dangerous builds = 0
Total wall time: 0:00:00
