LAMMPS (15 Sep 2022)
OMP_NUM_THREADS environment is not set. Defaulting to 1 thread. (src/comm.cpp:98)
  using 1 OpenMP thread(s) per MPI task
Loaded 1 plugins from C:\Users\becat\AppData\Local\LAMMPS 64-bit 15Sep2022\plugins
Lattice spacing in x,y,z = 4.079 4.079 4.079
Created orthogonal box = (0 0 0) to (40.79 40.79 40.79)
  1 by 1 by 1 MPI processor grid
Read molecule template np:
  1 molecules
  0 fragments
  3348 atoms with max type 1
  0 bonds with max type 0
  0 angles with max type 0
  0 dihedrals with max type 0
  0 impropers with max type 0
Created 3348 atoms
  using lattice units in orthogonal box = (-3.2980124 -4.7412658 -5.0501877) to (44.088012 45.531266 45.840188)
  create_atoms CPU = 0.000 seconds
Neighbor list info ...
  update: every = 1 steps, delay = 10 steps, check = yes
  max neighbors/atom: 2000, page size: 100000
  master list distance cutoff = 7.55
  ghost atom cutoff = 7.55
  binsize = 3.775, bins = 13 14 14
  1 neighbor lists, perpetual/occasional/extra = 1 0 0
  (1) pair eam, perpetual
      attributes: half, newton on
      pair build: half/bin/atomonly/newton
      stencil: half/bin/3d
      bin: standard
Setting up Verlet run ...
  Unit style    : metal
  Current step  : 0
  Time step     : 0.001
Per MPI rank memory allocation (min/avg/max) = 5.118 | 5.118 | 5.118 Mbytes
   Step          Temp          PotEng         KinEng         TotEng         Volume    
         0   300           -12719.554      129.79011     -12589.764      121231.84    
      1000   197.77753     -12675.031      85.565224     -12589.466      121231.84    
      2000   197.05434     -12673.867      85.252351     -12588.615      121231.84    
      3000   190.1932      -12669.773      82.283989     -12587.489      121231.84    
      4000   197.9282      -12672.092      85.630412     -12586.462      113477.52    
      5000   197.62353     -12670.988      85.498599     -12585.49       116761.58    
      6000   199.78245     -12670.841      86.432623     -12584.409      116761.58    
      7000   204.30752     -12671.585      88.390317     -12583.195      114180.35    
      8000   200.47252     -12668.608      86.731168     -12581.877      114180.35    
      9000   197.80726     -12666.076      85.578089     -12580.498      114180.35    
     10000   206.4852      -12668.419      89.332457     -12579.087      114180.35    
     11000   207.51449     -12667.409      89.777763     -12577.631      114180.35    
     12000   206.83815     -12665.622      89.485156     -12576.137      114180.35    
     13000   208.54027     -12664.832      90.221552     -12574.611      114180.35    
     14000   215.01869     -12666.069      93.024333     -12573.045      114180.35    
     15000   215.73485     -12664.792      93.334167     -12571.457      114180.35    
     16000   215.84082     -12663.224      93.380013     -12569.844      114180.35    
     17000   215.52219     -12661.44       93.242165     -12568.198      114180.35    
     18000   218.08688     -12660.887      94.351735     -12566.535      116572.46    
     19000   221.37698     -12660.621      95.775143     -12564.845      116572.46    
     20000   221.0487      -12658.772      95.633117     -12563.139      116572.46    
     21000   224.32226     -12658.469      97.049368     -12561.42       116572.46    
     22000   222.51982     -12655.943      96.269576     -12559.673      116572.46    
     23000   229.01008     -12656.999      99.077478     -12557.922      116572.46    
     24000   225.61487     -12653.763      97.608597     -12556.154      116572.46    
     25000   229.48028     -12653.652      99.280903     -12554.371      116572.46    
     26000   234.08879     -12653.857      101.2747      -12552.582      116572.46    
     27000   235.0293      -12652.461      101.6816      -12550.779      116572.46    
     28000   237.80979     -12651.856      102.88453     -12548.972      116572.46    
     29000   241.38439     -12651.592      104.43102     -12547.161      116572.46    
     30000   241.79255     -12649.941      104.60761     -12545.333      116572.46    
     31000   245.70692     -12649.814      106.30109     -12543.513      116572.46    
     32000   248.81338     -12649.331      107.64506     -12541.686      116572.46    
     33000   251.76187     -12648.778      108.92067     -12539.858      116572.46    
     34000   254.85237     -12648.291      110.25772     -12538.033      116572.46    
     35000   253.73325     -12645.975      109.77355     -12536.202      116572.46    
     36000   252.15849     -12643.473      109.09226     -12534.381      116572.46    
     37000   254.26722     -12642.571      110.00457     -12532.566      116572.46    
     38000   256.15699     -12641.573      110.82215     -12530.751      116572.46    
     39000   259.89401     -12641.386      112.43891     -12528.947      116572.46    
     40000   265.65582     -12642.082      114.93166     -12527.15       116572.46    
     41000   266.38628     -12640.612      115.24768     -12525.364      116572.46    
     42000   265.13767     -12638.299      114.70749     -12523.591      116572.46    
     43000   268.98997     -12638.203      116.37413     -12521.829      116572.46    
     44000   274.09953     -12638.669      118.58469     -12520.085      116572.46    
     45000   272.38144     -12636.199      117.84139     -12518.358      116572.46    
     46000   276.85059     -12636.421      119.7749      -12516.646      116572.46    
     47000   277.37626     -12634.959      120.00232     -12514.957      116572.46    
     48000   277.57564     -12633.379      120.08858     -12513.29       116572.46    
     49000   273.58896     -12630.01       118.36381     -12511.646      116572.46    
     50000   283.16584     -12632.534      122.50709     -12510.027      116612.38    
Loop time of 257.946 on 1 procs for 50000 steps with 3348 atoms

Performance: 16.748 ns/day, 1.433 hours/ns, 193.839 timesteps/s
99.5% CPU use with 1 MPI tasks x 1 OpenMP threads

MPI task timing breakdown:
Section |  min time  |  avg time  |  max time  |%varavg| %total
---------------------------------------------------------------
Pair    | 252.77     | 252.77     | 252.77     |   0.0 | 97.99
Neigh   | 0.029044   | 0.029044   | 0.029044   |   0.0 |  0.01
Comm    | 0.021361   | 0.021361   | 0.021361   |   0.0 |  0.01
Output  | 0.66555    | 0.66555    | 0.66555    |   0.0 |  0.26
Modify  | 3.6803     | 3.6803     | 3.6803     |   0.0 |  1.43
Other   |            | 0.7774     |            |       |  0.30

Nlocal:           3348 ave        3348 max        3348 min
Histogram: 1 0 0 0 0 0 0 0 0 0
Nghost:              0 ave           0 max           0 min
Histogram: 1 0 0 0 0 0 0 0 0 0
Neighs:         137410 ave      137410 max      137410 min
Histogram: 1 0 0 0 0 0 0 0 0 0

Total # of neighbors = 137410
Ave neighs/atom = 41.042413
Neighbor list builds = 6
Dangerous builds = 0
Total wall time: 0:04:18
