LAMMPS (15 Sep 2022)
OMP_NUM_THREADS environment is not set. Defaulting to 1 thread. (src/comm.cpp:98)
  using 1 OpenMP thread(s) per MPI task
Loaded 1 plugins from C:\Users\becat\AppData\Local\LAMMPS 64-bit 15Sep2022\plugins
Lattice spacing in x,y,z = 4.079 4.079 4.079
Created orthogonal box = (0 0 0) to (40.79 40.79 40.79)
  1 by 1 by 1 MPI processor grid
Read molecule template np:
  1 molecules
  0 fragments
  37 atoms with max type 1
  0 bonds with max type 0
  0 angles with max type 0
  0 dihedrals with max type 0
  0 impropers with max type 0
Created 37 atoms
  using lattice units in orthogonal box = (16.054298 16.832762 15.839266) to (25.469418 24.748818 24.975468)
  create_atoms CPU = 0.000 seconds
Neighbor list info ...
  update: every = 1 steps, delay = 10 steps, check = yes
  max neighbors/atom: 2000, page size: 100000
  master list distance cutoff = 7.55
  ghost atom cutoff = 7.55
  binsize = 3.775, bins = 3 3 3
  1 neighbor lists, perpetual/occasional/extra = 1 0 0
  (1) pair eam, perpetual
      attributes: half, newton on
      pair build: half/bin/atomonly/newton
      stencil: half/bin/3d
      bin: standard
Setting up Verlet run ...
  Unit style    : metal
  Current step  : 0
  Time step     : 0.001
Per MPI rank memory allocation (min/avg/max) = 4.537 | 4.537 | 4.537 Mbytes
   Step          Temp          PotEng         KinEng         TotEng         Volume    
         0   300           -124.29044      1.3960096     -122.89443      680.92675    
      1000   178.89092     -123.72399      0.83244479    -122.89155      680.92675    
      2000   220.57635     -123.90926      1.0264223     -122.88284      600.49186    
      3000   198.23261     -123.79031      0.92244871    -122.86787      600.49186    
      4000   215.52392     -123.84967      1.0029115     -122.84675      600.49186    
      5000   237.85875     -123.92571      1.1068436     -122.81887      600.49186    
      6000   203.17919     -123.73055      0.94546696    -122.78508      600.49186    
      7000   222.41898     -123.78107      1.0349967     -122.74608      600.49186    
      8000   215.41987     -123.70493      1.0024273     -122.7025       600.49186    
      9000   244.49312     -123.79426      1.1377158     -122.65654      600.49186    
     10000   241.06789     -123.73186      1.1217769     -122.61008      600.49186    
     11000   261.45413     -123.78352      1.2166415     -122.56688      600.49186    
     12000   217.13315     -123.53685      1.0103999     -122.52645      600.49186    
     13000   225.13514     -123.53907      1.047636      -122.49144      600.49186    
     14000   265.60401     -123.69573      1.2359525     -122.45978      600.49186    
     15000   249.08791     -123.58997      1.159097      -122.43087      600.49186    
     16000   275.97129     -123.68839      1.2841952     -122.4042       600.49186    
     17000   302.52551     -123.78761      1.4077617     -122.37985      600.49186    
     18000   245.97952     -123.50021      1.1446325     -122.35558      600.49186    
     19000   298.61118     -123.72056      1.3895469     -122.33101      600.49186    
     20000   242.07697     -123.43229      1.1264725     -122.30582      600.49186    
     21000   308.3954      -123.71558      1.4350764     -122.28051      600.49186    
     22000   289.89569     -123.60306      1.3489905     -122.25407      600.49186    
     23000   238.76849     -123.33804      1.111077      -122.22697      600.49186    
     24000   261.37799     -123.41485      1.2162872     -122.19856      600.49186    
     25000   282.6716      -123.48523      1.3153742     -122.16985      634.25826    
     26000   293.44744     -123.50627      1.3655181     -122.14076      634.13795    
     27000   223.39771     -123.1511       1.0395512     -122.11155      634.13795    
     28000   307.33961     -123.51188      1.4301635     -122.08172      634.13795    
     29000   282.58251     -123.36676      1.3149596     -122.0518       634.13795    
     30000   267.25209     -123.26543      1.2436216     -122.02181      634.13795    
     31000   320.81021     -123.48478      1.4928471     -121.99193      634.13795    
     32000   296.15113     -123.34112      1.3780994     -121.96302      634.13795    
     33000   316.28033     -123.40675      1.4717679     -121.93498      634.13795    
     34000   307.45482     -123.33854      1.4306996     -121.90784      634.13795    
     35000   260.51407     -123.09507      1.2122671     -121.8828       634.13795    
     36000   339.75631     -123.4404       1.5810102     -121.85939      634.13795    
     37000   287.09513     -123.17361      1.3359585     -121.83765      634.13795    
     38000   284.56404     -123.14175      1.3241804     -121.81757      634.13795    
     39000   280.3546      -123.10453      1.3045923     -121.79994      634.13795    
     40000   337.57342     -123.35467      1.5708524     -121.78382      634.13795    
     41000   301.76286     -123.1744       1.4042128     -121.77019      634.13795    
     42000   330.55022     -123.29647      1.5381709     -121.7583       602.78211    
     43000   324.01356     -123.25642      1.5077534     -121.74867      597.975      
     44000   284.80769     -123.06664      1.3253142     -121.74132      642.84552    
     45000   313.16795     -123.19405      1.4572848     -121.73677      614.51908    
     46000   361.77737     -123.41886      1.6834822     -121.73538      614.51908    
     47000   330.56505     -123.27529      1.5382399     -121.73705      584.57624    
     48000   365.91729     -123.44452      1.7027468     -121.74178      621.34475    
     49000   274.42152     -123.02658      1.2769835     -121.7496       621.34475    
     50000   337.5617      -123.33206      1.5707979     -121.76126      491.72986    
Loop time of 0.988548 on 1 procs for 50000 steps with 37 atoms

Performance: 4370.046 ns/day, 0.005 hours/ns, 50579.233 timesteps/s
101.2% CPU use with 1 MPI tasks x 1 OpenMP threads

MPI task timing breakdown:
Section |  min time  |  avg time  |  max time  |%varavg| %total
---------------------------------------------------------------
Pair    | 0.89452    | 0.89452    | 0.89452    |   0.0 | 90.49
Neigh   | 0.00011    | 0.00011    | 0.00011    |   0.0 |  0.01
Comm    | 0.004684   | 0.004684   | 0.004684   |   0.0 |  0.47
Output  | 0.008428   | 0.008428   | 0.008428   |   0.0 |  0.85
Modify  | 0.067258   | 0.067258   | 0.067258   |   0.0 |  6.80
Other   |            | 0.01355    |            |       |  1.37

Nlocal:             37 ave          37 max          37 min
Histogram: 1 0 0 0 0 0 0 0 0 0
Nghost:              0 ave           0 max           0 min
Histogram: 1 0 0 0 0 0 0 0 0 0
Neighs:            592 ave         592 max         592 min
Histogram: 1 0 0 0 0 0 0 0 0 0

Total # of neighbors = 592
Ave neighs/atom = 16
Neighbor list builds = 11
Dangerous builds = 0
Total wall time: 0:00:00
