LAMMPS (15 Sep 2022)
OMP_NUM_THREADS environment is not set. Defaulting to 1 thread. (src/comm.cpp:98)
  using 1 OpenMP thread(s) per MPI task
Loaded 1 plugins from C:\Users\becat\AppData\Local\LAMMPS 64-bit 15Sep2022\plugins
Lattice spacing in x,y,z = 4.079 4.079 4.079
Created orthogonal box = (0 0 0) to (40.79 40.79 40.79)
  1 by 1 by 1 MPI processor grid
Read molecule template np:
  1 molecules
  0 fragments
  64 atoms with max type 1
  0 bonds with max type 0
  0 angles with max type 0
  0 dihedrals with max type 0
  0 impropers with max type 0
Created 64 atoms
  using lattice units in orthogonal box = (8.8095167 13.687714 12.678843) to (31.500409 30.932172 29.733154)
  create_atoms CPU = 0.000 seconds
Neighbor list info ...
  update: every = 1 steps, delay = 10 steps, check = yes
  max neighbors/atom: 2000, page size: 100000
  master list distance cutoff = 7.55
  ghost atom cutoff = 7.55
  binsize = 3.775, bins = 7 5 5
  1 neighbor lists, perpetual/occasional/extra = 1 0 0
  (1) pair eam, perpetual
      attributes: half, newton on
      pair build: half/bin/atomonly/newton
      stencil: half/bin/3d
      bin: standard
Setting up Verlet run ...
  Unit style    : metal
  Current step  : 0
  Time step     : 0.001
Per MPI rank memory allocation (min/avg/max) = 4.541 | 4.541 | 4.541 Mbytes
   Step          Temp          PotEng         KinEng         TotEng         Volume    
         0   300           -209.248        2.4430167     -206.80498      6673.2179    
      1000   234.32404     -208.70755      1.9081918     -206.79936      6124.9646    
      2000   240.67298     -208.74542      1.9598937     -206.78553      5556.9868    
      3000   309.56421     -209.28492      2.5209018     -206.76402      5499.8685    
      4000   305.77758     -209.22427      2.4900658     -206.7342       5247.1802    
      5000   357.51675     -209.6183       2.911398      -206.7069       5185.1155    
      6000   442.67586     -210.29091      3.6048818     -206.68603      4455.9604    
      7000   365.19524     -209.65955      2.973927      -206.68562      4382.5325    
      8000   471.75215     -210.5491       3.8416613     -206.70744      4088.9577    
      9000   523.08683     -211.03038      4.2596996     -206.77068      3607.1434    
     10000   513.38182     -211.06644      4.1806679     -206.88577      2896.5773    
     11000   570.78318     -211.72769      4.6481095     -207.07958      2893.6799    
     12000   509.28083     -211.51006      4.147272      -207.36279      2320.9692    
     13000   574.06423     -212.33432      4.6748284     -207.65949      2153.8453    
     14000   717.25096     -213.7887       5.8408536     -207.94784      1886.2983    
     15000   546.92975     -212.67417      4.4538618     -208.22031      1494.193     
     16000   504.66893     -212.57023      4.1097155     -208.46051      1409.453     
     17000   567.47903     -213.31924      4.6212026     -208.69804      1542.0048    
     18000   617.05001     -214.00414      5.0248784     -208.97926      1460.3394    
     19000   616.77353     -214.31336      5.0226269     -209.29073      1389.8589    
     20000   606.71623     -214.56854      4.9407264     -209.62781      1289.706     
     21000   663.05623     -215.37838      5.3995249     -209.97885      1344.9249    
     22000   616.04473     -215.34178      5.016692      -210.32508      1384.8474    
     23000   521.6232      -214.8984       4.2477807     -210.65062      1335.1989    
     24000   548.32741     -215.43446      4.4652435     -210.96922      1449.0962    
     25000   528.70041     -215.5955       4.3054132     -211.29009      1383.4087    
     26000   496.34827     -215.66344      4.0419571     -211.62149      1309.0387    
     27000   502.62434     -216.03115      4.0930656     -211.93808      1323.1398    
     28000   488.5278      -216.22861      3.978272      -212.25033      1266.2857    
     29000   541.65783     -216.96155      4.4109305     -212.55062      1266.2857    
     30000   531.62728     -217.17337      4.3292478     -212.84412      1234.9304    
     31000   433.43559     -216.64813      3.5296347     -213.11849      1251.511     
     32000   425.74737     -216.84907      3.4670265     -213.38204      1251.511     
     33000   487.62016     -217.60064      3.9708807     -213.62976      1155.8909    
     34000   441.72508     -217.47749      3.5971392     -213.88035      1252.0006    
     35000   458.98627     -217.85608      3.7377038     -214.11838      1211.9131    
     36000   450.18292     -218.00072      3.6660147     -214.3347       1262.6034    
     37000   402.90286     -217.83019      3.2809948     -214.54919      1129.5496    
     38000   433.49855     -218.27996      3.5301474     -214.74981      1188.3568    
     39000   380.45815     -218.04008      3.0982188     -214.94186      1251.1315    
     40000   396.30605     -218.34763      3.2272744     -215.12036      1132.7143    
     41000   388.27185     -218.46273      3.1618488     -215.30088      1163.6827    
     42000   327.85443     -218.14465      2.6698462     -215.4748       1163.6827    
     43000   297.32122     -218.06168      2.4212024     -215.64047      1186.1231    
     44000   331.75197     -218.49437      2.7015854     -215.79278      1165.173     
     45000   371.14319     -218.96374      3.0223634     -215.94138      1187.7819    
     46000   328.95747     -218.76067      2.6788287     -216.08184      1175.8153    
     47000   287.31174     -218.55262      2.3396913     -216.21293      1220.0144    
     48000   278.11951     -218.60121      2.2648354     -216.33637      1220.0144    
     49000   286.03824     -218.78255      2.3293207     -216.45322      1220.0144    
     50000   339.62476     -219.32971      2.7656966     -216.56402      1202.2585    
Loop time of 1.78671 on 1 procs for 50000 steps with 64 atoms

Performance: 2417.850 ns/day, 0.010 hours/ns, 27984.380 timesteps/s
100.6% CPU use with 1 MPI tasks x 1 OpenMP threads

MPI task timing breakdown:
Section |  min time  |  avg time  |  max time  |%varavg| %total
---------------------------------------------------------------
Pair    | 1.6609     | 1.6609     | 1.6609     |   0.0 | 92.96
Neigh   | 0.002343   | 0.002343   | 0.002343   |   0.0 |  0.13
Comm    | 0.005181   | 0.005181   | 0.005181   |   0.0 |  0.29
Output  | 0.012335   | 0.012335   | 0.012335   |   0.0 |  0.69
Modify  | 0.087445   | 0.087445   | 0.087445   |   0.0 |  4.89
Other   |            | 0.0185     |            |       |  1.04

Nlocal:             64 ave          64 max          64 min
Histogram: 1 0 0 0 0 0 0 0 0 0
Nghost:              0 ave           0 max           0 min
Histogram: 1 0 0 0 0 0 0 0 0 0
Neighs:           1372 ave        1372 max        1372 min
Histogram: 1 0 0 0 0 0 0 0 0 0

Total # of neighbors = 1372
Ave neighs/atom = 21.4375
Neighbor list builds = 108
Dangerous builds = 0
Total wall time: 0:00:01
