LAMMPS (15 Sep 2022)
OMP_NUM_THREADS environment is not set. Defaulting to 1 thread. (src/comm.cpp:98)
  using 1 OpenMP thread(s) per MPI task
Loaded 1 plugins from C:\Users\becat\AppData\Local\LAMMPS 64-bit 15Sep2022\plugins
Lattice spacing in x,y,z = 4.079 4.079 4.079
Created orthogonal box = (0 0 0) to (40.79 40.79 40.79)
  1 by 1 by 1 MPI processor grid
Read molecule template np:
  1 molecules
  0 fragments
  405 atoms with max type 1
  0 bonds with max type 0
  0 angles with max type 0
  0 dihedrals with max type 0
  0 impropers with max type 0
Created 405 atoms
  using lattice units in orthogonal box = (9.5516328 8.7413866 8.5956844) to (31.238367 32.048613 32.194316)
  create_atoms CPU = 0.000 seconds
Neighbor list info ...
  update: every = 1 steps, delay = 10 steps, check = yes
  max neighbors/atom: 2000, page size: 100000
  master list distance cutoff = 7.55
  ghost atom cutoff = 7.55
  binsize = 3.775, bins = 6 7 7
  1 neighbor lists, perpetual/occasional/extra = 1 0 0
  (1) pair eam, perpetual
      attributes: half, newton on
      pair build: half/bin/atomonly/newton
      stencil: half/bin/3d
      bin: standard
Setting up Verlet run ...
  Unit style    : metal
  Current step  : 0
  Time step     : 0.001
Per MPI rank memory allocation (min/avg/max) = 4.56 | 4.56 | 4.56 Mbytes
   Step          Temp          PotEng         KinEng         TotEng         Volume    
         0   300           -1478.904       15.66633      -1463.2377      11928.108    
      1000   289.22435     -1478.331       15.103613     -1463.2274      11928.108    
      2000   270.72479     -1477.3316      14.137546     -1463.1941      11928.108    
      3000   272.61947     -1477.3726      14.236488     -1463.1361      11928.108    
      4000   272.65986     -1477.2938      14.238597     -1463.0552      11928.108    
      5000   290.572       -1478.1223      15.173989     -1462.9483      11928.108    
      6000   288.86084     -1477.9029      15.08463      -1462.8183      11928.108    
      7000   268.75651     -1476.7025      14.03476      -1462.6678      11928.108    
      8000   293.75209     -1477.8409      15.340057     -1462.5008      11928.108    
      9000   288.34013     -1477.3785      15.057438     -1462.3211      11928.108    
     10000   297.21213     -1477.6623      15.520744     -1462.1415      11928.108    
     11000   278.8579      -1476.5327      14.562266     -1461.9705      11928.108    
     12000   285.74206     -1476.7342      14.921764     -1461.8124      11928.108    
     13000   289.57317     -1476.7941      15.121829     -1461.6723      11928.108    
     14000   300.0472      -1477.2201      15.668794     -1461.5513      11928.108    
     15000   288.13616     -1476.4935      15.046787     -1461.4468      11928.108    
     16000   299.56853     -1476.9989      15.643798     -1461.3551      11928.108    
     17000   284.23433     -1476.1157      14.843029     -1461.2727      11928.108    
     18000   287.98765     -1476.2363      15.039031     -1461.1973      11928.108    
     19000   307.64348     -1477.1916      16.06548      -1461.1261      11928.108    
     20000   308.14285     -1477.149       16.091558     -1461.0574      11928.108    
     21000   300.54333     -1476.6853      15.694703     -1460.9906      11928.108    
     22000   300.49658     -1476.6166      15.692262     -1460.9243      11928.108    
     23000   301.74132     -1476.6153      15.757263     -1460.858       11928.108    
     24000   315.45014     -1477.265       16.473153     -1460.7918      11928.108    
     25000   295.38823     -1476.1514      15.425498     -1460.7259      11928.108    
     26000   300.48727     -1476.3514      15.691775     -1460.6597      11928.108    
     27000   288.94138     -1475.6814      15.088836     -1460.5925      11928.108    
     28000   309.40528     -1476.6825      16.157484     -1460.525       11928.108    
     29000   297.34352     -1475.9861      15.527605     -1460.4585      11068.48     
     30000   306.73409     -1476.4093      16.017991     -1460.3913      10973.355    
     31000   297.91599     -1475.8825      15.5575       -1460.325       10840.291    
     32000   286.41256     -1475.2164      14.956778     -1460.2597      10840.291    
     33000   290.25631     -1475.3538      15.157503     -1460.1962      11018.052    
     34000   307.10878     -1476.1726      16.037558     -1460.135       10867.952    
     35000   309.49778     -1476.239       16.162314     -1460.0767      10867.952    
     36000   306.95677     -1476.0512      16.02962      -1460.0215      10988.012    
     37000   312.51837     -1476.2898      16.320053     -1459.9698      10988.012    
     38000   304.80109     -1475.8384      15.917048     -1459.9214      11216.433    
     39000   309.60271     -1476.0441      16.167793     -1459.8763      11216.433    
     40000   302.28139     -1475.6208      15.785466     -1459.8353      11216.433    
     41000   311.00462     -1476.0395      16.241003     -1459.7985      11216.433    
     42000   323.32488     -1476.6507      16.88438      -1459.7664      11216.433    
     43000   312.08533     -1476.0373      16.297439     -1459.7398      11074.942    
     44000   308.62108     -1475.8354      16.116532     -1459.7188      11074.942    
     45000   305.52381     -1475.6587      15.954789     -1459.7039      11074.942    
     46000   309.88933     -1475.8781      16.182761     -1459.6954      11074.942    
     47000   295.64719     -1475.1328      15.439021     -1459.6938      11074.942    
     48000   306.97254     -1475.7312      16.030443     -1459.7008      11074.942    
     49000   330.94913     -1476.9999      17.282527     -1459.7174      11074.942    
     50000   303.51088     -1475.5945      15.849672     -1459.7448      11074.942    
Loop time of 27.9823 on 1 procs for 50000 steps with 405 atoms

Performance: 154.383 ns/day, 0.155 hours/ns, 1786.842 timesteps/s
98.9% CPU use with 1 MPI tasks x 1 OpenMP threads

MPI task timing breakdown:
Section |  min time  |  avg time  |  max time  |%varavg| %total
---------------------------------------------------------------
Pair    | 27.243     | 27.243     | 27.243     |   0.0 | 97.36
Neigh   | 0.004017   | 0.004017   | 0.004017   |   0.0 |  0.01
Comm    | 0.011287   | 0.011287   | 0.011287   |   0.0 |  0.04
Output  | 0.094597   | 0.094597   | 0.094597   |   0.0 |  0.34
Modify  | 0.52154    | 0.52154    | 0.52154    |   0.0 |  1.86
Other   |            | 0.1074     |            |       |  0.38

Nlocal:            405 ave         405 max         405 min
Histogram: 1 0 0 0 0 0 0 0 0 0
Nghost:              0 ave           0 max           0 min
Histogram: 1 0 0 0 0 0 0 0 0 0
Neighs:          13996 ave       13996 max       13996 min
Histogram: 1 0 0 0 0 0 0 0 0 0

Total # of neighbors = 13996
Ave neighs/atom = 34.558025
Neighbor list builds = 8
Dangerous builds = 0
Total wall time: 0:00:28
