LAMMPS (15 Sep 2022)
OMP_NUM_THREADS environment is not set. Defaulting to 1 thread. (src/comm.cpp:98)
  using 1 OpenMP thread(s) per MPI task
Loaded 1 plugins from C:\Users\becat\AppData\Local\LAMMPS 64-bit 15Sep2022\plugins
Lattice spacing in x,y,z = 4.079 4.079 4.079
Created orthogonal box = (0 0 0) to (40.79 40.79 40.79)
  1 by 1 by 1 MPI processor grid
Read molecule template np:
  1 molecules
  0 fragments
  20 atoms with max type 1
  0 bonds with max type 0
  0 angles with max type 0
  0 dihedrals with max type 0
  0 impropers with max type 0
Created 20 atoms
  using lattice units in orthogonal box = (18.046882 17.324519 17.257482) to (22.776808 23.199996 23.101031)
  create_atoms CPU = 0.000 seconds
Neighbor list info ...
  update: every = 1 steps, delay = 10 steps, check = yes
  max neighbors/atom: 2000, page size: 100000
  master list distance cutoff = 7.55
  ghost atom cutoff = 7.55
  binsize = 3.775, bins = 2 2 2
  1 neighbor lists, perpetual/occasional/extra = 1 0 0
  (1) pair eam, perpetual
      attributes: half, newton on
      pair build: half/bin/atomonly/newton
      stencil: half/bin/3d
      bin: standard
Setting up Verlet run ...
  Unit style    : metal
  Current step  : 0
  Time step     : 0.001
Per MPI rank memory allocation (min/avg/max) = 4.41 | 4.41 | 4.41 Mbytes
   Step          Temp          PotEng         KinEng         TotEng         Volume    
         0   300           -56.54129       0.73678283    -55.804508      162.39555    
      1000   1465.6934     -59.580747      3.5996592     -55.981088      247.27792    
      2000   1103.2953     -59.107925      2.7096301     -56.398294      256.09956    
      3000   1211.4265     -59.856725      2.9751941     -56.881531      216.23294    
      4000   1236.4229     -60.360822      3.0365838     -57.324239      245.98144    
      5000   1124.2161     -60.411611      2.7610104     -57.650601      243.07333    
      6000   1238.8613     -61.028221      3.0425724     -57.985648      271.54935    
      7000   1078.1547     -60.996306      2.6478862     -58.348419      214.70922    
      8000   874.80005     -60.91381       2.1484589     -58.765351      241.30622    
      9000   617.76532     -60.634363      1.5171963     -59.117167      246.09852    
     10000   797.97993     -61.423266      1.959793      -59.463473      272.31836    
     11000   876.9241      -61.945662      2.1536754     -59.791986      312.6552     
     12000   976.49412     -62.496832      2.3982137     -60.098618      262.74718    
     13000   700.02642     -62.097488      1.7192248     -60.378263      277.25214    
     14000   726.47302     -62.438501      1.7841762     -60.654325      196.27977    
     15000   740.6321      -62.718843      1.81895       -60.899893      238.14929    
     16000   555.15609     -62.474032      1.3634316     -61.110601      240.0598     
     17000   720.16033     -63.051004      1.7686726     -61.282332      248.12533    
     18000   539.7617      -62.79628       1.3256238     -61.470656      234.13988    
     19000   531.86992     -62.955351      1.3062421     -61.649109      237.8532     
     20000   493.17883     -63.030635      1.211219      -61.819416      207.85454    
     21000   414.7813      -62.981923      1.0186791     -61.963244      239.5596     
     22000   513.2073      -63.357552      1.2604078     -62.097145      217.58992    
     23000   457.19876     -63.346955      1.122854      -62.224101      206.25293    
     24000   281.28437     -63.030417      0.69081831    -62.339599      225.96864    
     25000   398.27915     -63.415624      0.97815079    -62.437473      225.96864    
     26000   278.96852     -63.223821      0.68513071    -62.538691      212.07264    
     27000   361.28013     -63.51374       0.88728331    -62.626457      245.86422    
     28000   341.54414     -63.544839      0.83881286    -62.706026      242.72482    
     29000   295.41885     -63.508086      0.72553179    -62.782554      227.77319    
     30000   314.66676     -63.626996      0.77280355    -62.854193      227.77319    
     31000   317.97517     -63.698789      0.78092882    -62.917861      226.73577    
     32000   294.38742     -63.69912       0.72299866    -62.976121      226.73577    
     33000   276.9652      -63.708936      0.68021068    -63.028725      226.73577    
     34000   299.56158     -63.812904      0.73570609    -63.077198      226.73577    
     35000   258.81364     -63.756521      0.63563149    -63.120889      222.21497    
     36000   274.3575      -63.834989      0.67380631    -63.161183      222.21497    
     37000   211.57669     -63.716021      0.51962024    -63.196401      218.59653    
     38000   305.72179     -63.978322      0.75083521    -63.227487      218.59653    
     39000   252.01302     -63.877937      0.61892955    -63.259007      233.29543    
     40000   196.70633     -63.768053      0.4830995     -63.284954      233.29543    
     41000   269.54765     -63.969146      0.6619936     -63.307152      233.29543    
     42000   213.40656     -63.85034       0.52411429    -63.326225      233.29543    
     43000   171.82109     -63.764354      0.42198275    -63.342372      233.29543    
     44000   227.95673     -63.915303      0.55984868    -63.355454      215.35694    
     45000   218.72352     -63.902894      0.53717243    -63.365721      215.35694    
     46000   239.57394     -63.961245      0.58837988    -63.372865      215.35694    
     47000   183.97737     -63.828915      0.45183789    -63.377077      215.35694    
     48000   256.15014     -64.007565      0.62909009    -63.378474      215.35694    
     49000   210.72833     -63.894431      0.51753673    -63.376894      215.35694    
     50000   221.21318     -63.915717      0.5432869     -63.37243       215.35694    
Loop time of 0.626963 on 1 procs for 50000 steps with 20 atoms

Performance: 6890.359 ns/day, 0.003 hours/ns, 79749.523 timesteps/s
99.7% CPU use with 1 MPI tasks x 1 OpenMP threads

MPI task timing breakdown:
Section |  min time  |  avg time  |  max time  |%varavg| %total
---------------------------------------------------------------
Pair    | 0.51811    | 0.51811    | 0.51811    |   0.0 | 82.64
Neigh   | 0.000437   | 0.000437   | 0.000437   |   0.0 |  0.07
Comm    | 0.006633   | 0.006633   | 0.006633   |   0.0 |  1.06
Output  | 0.009199   | 0.009199   | 0.009199   |   0.0 |  1.47
Modify  | 0.074961   | 0.074961   | 0.074961   |   0.0 | 11.96
Other   |            | 0.01763    |            |       |  2.81

Nlocal:             20 ave          20 max          20 min
Histogram: 1 0 0 0 0 0 0 0 0 0
Nghost:              0 ave           0 max           0 min
Histogram: 1 0 0 0 0 0 0 0 0 0
Neighs:            189 ave         189 max         189 min
Histogram: 1 0 0 0 0 0 0 0 0 0

Total # of neighbors = 189
Ave neighs/atom = 9.45
Neighbor list builds = 92
Dangerous builds = 0
Total wall time: 0:00:00
