LAMMPS (15 Sep 2022)
OMP_NUM_THREADS environment is not set. Defaulting to 1 thread. (src/comm.cpp:98)
  using 1 OpenMP thread(s) per MPI task
Loaded 1 plugins from C:\Users\becat\AppData\Local\LAMMPS 64-bit 15Sep2022\plugins
Lattice spacing in x,y,z = 4.079 4.079 4.079
Created orthogonal box = (0 0 0) to (40.79 40.79 40.79)
  1 by 1 by 1 MPI processor grid
Read molecule template np:
  1 molecules
  0 fragments
  34 atoms with max type 1
  0 bonds with max type 0
  0 angles with max type 0
  0 dihedrals with max type 0
  0 impropers with max type 0
Created 34 atoms
  using lattice units in orthogonal box = (16.504189 15.567265 16.285957) to (24.126792 24.338286 24.251256)
  create_atoms CPU = 0.000 seconds
Neighbor list info ...
  update: every = 1 steps, delay = 10 steps, check = yes
  max neighbors/atom: 2000, page size: 100000
  master list distance cutoff = 7.55
  ghost atom cutoff = 7.55
  binsize = 3.775, bins = 3 3 3
  1 neighbor lists, perpetual/occasional/extra = 1 0 0
  (1) pair eam, perpetual
      attributes: half, newton on
      pair build: half/bin/atomonly/newton
      stencil: half/bin/3d
      bin: standard
Setting up Verlet run ...
  Unit style    : metal
  Current step  : 0
  Time step     : 0.001
Per MPI rank memory allocation (min/avg/max) = 4.537 | 4.537 | 4.537 Mbytes
   Step          Temp          PotEng         KinEng         TotEng         Volume    
         0   300           -113.66575      1.2796754     -112.38608      532.54408    
      1000   132.98535     -112.95051      0.56726027    -112.38325      532.54408    
      2000   186.9196      -113.17173      0.7973214     -112.37441      532.54408    
      3000   207.76461     -113.24601      0.88623754    -112.35978      532.54408    
      4000   193.66034     -113.16499      0.82607461    -112.33892      532.54408    
      5000   163.20865     -113.00782      0.69618034    -112.31164      532.54408    
      6000   193.00277     -113.10147      0.82326967    -112.2782       532.54408    
      7000   204.4034      -113.112        0.87190004    -112.2401       532.54408    
      8000   202.48058     -113.06151      0.86369806    -112.19781      532.54408    
      9000   219.07674     -113.08981      0.93449039    -112.15532      532.54408    
     10000   173.04764     -112.8511       0.7381494     -112.11295      532.54408    
     11000   224.46731     -113.03127      0.95748434    -112.07378      532.54408    
     12000   229.94115     -113.0191       0.98083346    -112.03826      532.54408    
     13000   265.52142     -113.13848      1.1326041     -112.00588      532.54408    
     14000   206.45084     -112.85787      0.88063357    -111.97724      532.54408    
     15000   255.94104     -113.04187      1.0917382     -111.95013      532.54408    
     16000   237.42187     -112.93701      1.0127431     -111.92427      532.54408    
     17000   222.48524     -112.84765      0.94902967    -111.89862      532.54408    
     18000   237.97595     -112.8878       1.0151066     -111.87269      532.54408    
     19000   234.95037     -112.84763      1.0022007     -111.84543      532.54408    
     20000   243.30849     -112.85552      1.037853      -111.81767      532.54408    
     21000   301.99189     -113.07683      1.288172      -111.78866      532.54408    
     22000   319.00559     -113.11888      1.3607454     -111.75814      532.54408    
     23000   284.34095     -112.93946      1.2128804     -111.72658      532.54408    
     24000   224.80477     -112.65391      0.95892379    -111.69498      532.54408    
     25000   276.57926     -112.84167      1.1797723     -111.6619       532.54408    
     26000   291.12653     -112.86935      1.2418249     -111.62753      532.54408    
     27000   303.23895     -112.88791      1.2934915     -111.59442      532.54408    
     28000   338.55877     -113.00443      1.4441511     -111.56028      532.54408    
     29000   252.11818     -112.60285      1.0754315     -111.52742      532.54408    
     30000   264.52741     -112.62308      1.1283641     -111.49471      532.54408    
     31000   302.26978     -112.75208      1.2893574     -111.46272      532.54408    
     32000   266.07169     -112.56749      1.1349514     -111.43254      532.54408    
     33000   355.07993     -112.91753      1.5146235     -111.40291      532.54408    
     34000   270.97429     -112.53051      1.1558638     -111.37465      532.54408    
     35000   310.73016     -112.67317      1.3254458     -111.34772      485.89224    
     36000   318.84569     -112.68025      1.3600633     -111.32018      485.89224    
     37000   306.7508      -112.60084      1.3084715     -111.29237      470.81418    
     38000   308.25503     -112.58134      1.314888      -111.26645      508.0215     
     39000   323.16955     -112.6211       1.3785071     -111.24259      508.0215     
     40000   339.31725     -112.66788      1.4473865     -111.22049      508.0215     
     41000   286.97635     -112.42458      1.224122      -111.20046      465.56352    
     42000   345.33439     -112.65432      1.4730531     -111.18127      498.16398    
     43000   360.38267     -112.70189      1.5372428     -111.16465      498.16398    
     44000   290.26161     -112.38878      1.2381355     -111.15065      498.16398    
     45000   253.2001      -112.21812      1.0800465     -111.13807      498.16398    
     46000   327.19062     -112.52339      1.3956593     -111.12773      487.78356    
     47000   324.96795     -112.50544      1.3861783     -111.11926      487.78356    
     48000   329.13209     -112.51661      1.4039409     -111.11267      509.66611    
     49000   362.07635     -112.65249      1.5444674     -111.10803      460.51702    
     50000   339.02878     -112.55185      1.446156      -111.10569      460.51702    
Loop time of 0.929292 on 1 procs for 50000 steps with 34 atoms

Performance: 4648.700 ns/day, 0.005 hours/ns, 53804.402 timesteps/s
97.5% CPU use with 1 MPI tasks x 1 OpenMP threads

MPI task timing breakdown:
Section |  min time  |  avg time  |  max time  |%varavg| %total
---------------------------------------------------------------
Pair    | 0.83837    | 0.83837    | 0.83837    |   0.0 | 90.22
Neigh   | 6.7e-05    | 6.7e-05    | 6.7e-05    |   0.0 |  0.01
Comm    | 0.004621   | 0.004621   | 0.004621   |   0.0 |  0.50
Output  | 0.008483   | 0.008483   | 0.008483   |   0.0 |  0.91
Modify  | 0.065059   | 0.065059   | 0.065059   |   0.0 |  7.00
Other   |            | 0.01269    |            |       |  1.37

Nlocal:             34 ave          34 max          34 min
Histogram: 1 0 0 0 0 0 0 0 0 0
Nghost:              0 ave           0 max           0 min
Histogram: 1 0 0 0 0 0 0 0 0 0
Neighs:            511 ave         511 max         511 min
Histogram: 1 0 0 0 0 0 0 0 0 0

Total # of neighbors = 511
Ave neighs/atom = 15.029412
Neighbor list builds = 8
Dangerous builds = 0
Total wall time: 0:00:00
