LAMMPS (15 Sep 2022)
OMP_NUM_THREADS environment is not set. Defaulting to 1 thread. (src/comm.cpp:98)
  using 1 OpenMP thread(s) per MPI task
Loaded 1 plugins from C:\Users\becat\AppData\Local\LAMMPS 64-bit 15Sep2022\plugins
Lattice spacing in x,y,z = 4.079 4.079 4.079
Created orthogonal box = (0 0 0) to (40.79 40.79 40.79)
  1 by 1 by 1 MPI processor grid
Read molecule template np:
  1 molecules
  0 fragments
  35 atoms with max type 1
  0 bonds with max type 0
  0 angles with max type 0
  0 dihedrals with max type 0
  0 impropers with max type 0
Created 35 atoms
  using lattice units in orthogonal box = (16.620985 16.391728 15.914769) to (24.657985 24.315554 23.914233)
  create_atoms CPU = 0.000 seconds
Neighbor list info ...
  update: every = 1 steps, delay = 10 steps, check = yes
  max neighbors/atom: 2000, page size: 100000
  master list distance cutoff = 7.55
  ghost atom cutoff = 7.55
  binsize = 3.775, bins = 3 3 3
  1 neighbor lists, perpetual/occasional/extra = 1 0 0
  (1) pair eam, perpetual
      attributes: half, newton on
      pair build: half/bin/atomonly/newton
      stencil: half/bin/3d
      bin: standard
Setting up Verlet run ...
  Unit style    : metal
  Current step  : 0
  Time step     : 0.001
Per MPI rank memory allocation (min/avg/max) = 4.537 | 4.537 | 4.537 Mbytes
   Step          Temp          PotEng         KinEng         TotEng         Volume    
         0   300           -117.06751      1.3184535     -115.74906      509.43618    
      1000   231.86655     -116.76535      1.0190175     -115.74633      509.43618    
      2000   219.4416      -116.70258      0.96441179    -115.73817      509.43618    
      3000   182.57061     -116.52667      0.80236954    -115.7243       509.43618    
      4000   226.92533     -116.70216      0.99730165    -115.70486      509.43618    
      5000   235.80177     -116.71497      1.0363122     -115.67866      509.43618    
      6000   212.63052     -116.58224      0.93447815    -115.64776      509.43618    
      7000   265.1159      -116.7755       1.1651433     -115.61036      509.43618    
      8000   217.66613     -116.52561      0.95660891    -115.569        509.43618    
      9000   246.19709     -116.60704      1.081998      -115.52504      509.43618    
     10000   209.8759      -116.40229      0.92237206    -115.47992      509.43618    
     11000   298.83452     -116.75059      1.3133314     -115.43726      509.43618    
     12000   242.40958     -116.46297      1.0653525     -115.39762      509.43618    
     13000   226.46671     -116.35764      0.99528606    -115.36235      509.43618    
     14000   219.33113     -116.29582      0.96392631    -115.3319       499.09948    
     15000   234.15034     -116.33411      1.0290544     -115.30505      499.09948    
     16000   217.23711     -116.23469      0.9547234     -115.27996      499.09948    
     17000   236.39569     -116.29296      1.0389224     -115.25404      499.09948    
     18000   297.02158     -116.53383      1.3053638     -115.22846      518.06534    
     19000   286.53076     -116.46049      1.2592583     -115.20123      506.77068    
     20000   258.03768     -116.30929      1.1340356     -115.17526      506.77068    
     21000   293.09722     -116.4383       1.2881168     -115.15019      506.77068    
     22000   308.85319     -116.481        1.3573619     -115.12363      506.77068    
     23000   322.84593     -116.51619      1.4188578     -115.09733      506.77068    
     24000   258.11376     -116.20552      1.1343699     -115.07115      506.77068    
     25000   336.75685     -116.5248       1.4799941     -115.04481      506.77068    
     26000   263.68028     -116.17744      1.1588339     -115.01861      506.77068    
     27000   316.82502     -116.38485      1.3923968     -114.99246      506.77068    
     28000   296.36045     -116.26921      1.3024582     -114.96675      506.77068    
     29000   300.86377     -116.26354      1.3222496     -114.94129      506.77068    
     30000   346.46231     -116.4387       1.5226481     -114.91605      506.77068    
     31000   258.36912     -116.02698      1.1354922     -114.89149      506.77068    
     32000   336.64183     -116.34731      1.4794886     -114.86783      506.77068    
     33000   297.22947     -116.1511       1.3062774     -114.84482      506.77068    
     34000   294.65402     -116.11763      1.2949587     -114.82267      508.27061    
     35000   303.30146     -116.13451      1.3329629     -114.80155      508.27061    
     36000   337.42196     -116.26454      1.4829172     -114.78162      508.27061    
     37000   353.77943     -116.31801      1.5548057     -114.7632       514.37642    
     38000   369.21396     -116.36798      1.6226381     -114.74534      514.37642    
     39000   354.27363     -116.28681      1.5569777     -114.72983      514.37642    
     40000   358.56478     -116.2917       1.5758366     -114.71586      534.69973    
     41000   357.28658     -116.2734       1.5702191     -114.70318      534.69973    
     42000   273.99114     -115.89519      1.2041486     -114.69104      534.69973    
     43000   358.79516     -116.25722      1.5768491     -114.68037      534.69973    
     44000   320.58011     -116.07809      1.4088999     -114.66919      554.2322     
     45000   324.58115     -116.08457      1.4264838     -114.65808      554.2322     
     46000   352.09788     -116.19452      1.5474156     -114.6471       489.8219     
     47000   345.75518     -116.15625      1.5195404     -114.63671      494.05218    
     48000   336.53758     -116.10613      1.4790305     -114.6271       535.28119    
     49000   313.622       -115.99866      1.3783201     -114.62034      535.28119    
     50000   277.65768     -115.83659      1.2202625     -114.61633      535.28119    
Loop time of 0.916401 on 1 procs for 50000 steps with 35 atoms

Performance: 4714.094 ns/day, 0.005 hours/ns, 54561.267 timesteps/s
98.9% CPU use with 1 MPI tasks x 1 OpenMP threads

MPI task timing breakdown:
Section |  min time  |  avg time  |  max time  |%varavg| %total
---------------------------------------------------------------
Pair    | 0.82787    | 0.82787    | 0.82787    |   0.0 | 90.34
Neigh   | 9.4e-05    | 9.4e-05    | 9.4e-05    |   0.0 |  0.01
Comm    | 0.004686   | 0.004686   | 0.004686   |   0.0 |  0.51
Output  | 0.00837    | 0.00837    | 0.00837    |   0.0 |  0.91
Modify  | 0.062224   | 0.062224   | 0.062224   |   0.0 |  6.79
Other   |            | 0.01315    |            |       |  1.44

Nlocal:             35 ave          35 max          35 min
Histogram: 1 0 0 0 0 0 0 0 0 0
Nghost:              0 ave           0 max           0 min
Histogram: 1 0 0 0 0 0 0 0 0 0
Neighs:            533 ave         533 max         533 min
Histogram: 1 0 0 0 0 0 0 0 0 0

Total # of neighbors = 533
Ave neighs/atom = 15.228571
Neighbor list builds = 10
Dangerous builds = 0
Total wall time: 0:00:00
