LAMMPS (15 Sep 2022)
OMP_NUM_THREADS environment is not set. Defaulting to 1 thread. (src/comm.cpp:98)
  using 1 OpenMP thread(s) per MPI task
Loaded 1 plugins from C:\Users\becat\AppData\Local\LAMMPS 64-bit 15Sep2022\plugins
Lattice spacing in x,y,z = 4.079 4.079 4.079
Created orthogonal box = (0 0 0) to (40.79 40.79 40.79)
  1 by 1 by 1 MPI processor grid
Read molecule template np:
  1 molecules
  0 fragments
  38 atoms with max type 1
  0 bonds with max type 0
  0 angles with max type 0
  0 dihedrals with max type 0
  0 impropers with max type 0
Created 38 atoms
  using lattice units in orthogonal box = (16.392573 15.837936 16.612318) to (24.545078 25.479663 24.44715)
  create_atoms CPU = 0.000 seconds
Neighbor list info ...
  update: every = 1 steps, delay = 10 steps, check = yes
  max neighbors/atom: 2000, page size: 100000
  master list distance cutoff = 7.55
  ghost atom cutoff = 7.55
  binsize = 3.775, bins = 3 3 3
  1 neighbor lists, perpetual/occasional/extra = 1 0 0
  (1) pair eam, perpetual
      attributes: half, newton on
      pair build: half/bin/atomonly/newton
      stencil: half/bin/3d
      bin: standard
Setting up Verlet run ...
  Unit style    : metal
  Current step  : 0
  Time step     : 0.001
Per MPI rank memory allocation (min/avg/max) = 4.537 | 4.537 | 4.537 Mbytes
   Step          Temp          PotEng         KinEng         TotEng         Volume    
         0   300           -127.80421      1.4347876     -126.36942      615.85083    
      1000   166.48313     -127.16236      0.79622645    -126.36614      615.85083    
      2000   227.73979     -127.44524      1.0891941     -126.35604      615.85083    
      3000   193.1815      -127.26325      0.92391474    -126.33934      615.85083    
      4000   211.89288     -127.32839      1.0134042     -126.31499      615.85083    
      5000   194.62572     -127.21521      0.93082189    -126.28439      615.85083    
      6000   249.95506     -127.44249      1.1954414     -126.24704      615.85083    
      7000   212.71099     -127.22092      1.017317      -126.2036       615.85083    
      8000   177.62378     -127.00812      0.84950799    -126.15861      615.85083    
      9000   183.83616     -126.9911       0.87921946    -126.11188      615.85083    
     10000   238.12039     -127.20726      1.1388406     -126.06842      615.85083    
     11000   211.46246     -127.03907      1.0113457     -126.02772      615.85083    
     12000   209.78639     -126.99574      1.0033297     -125.99241      615.85083    
     13000   232.48869     -127.07135      1.1119063     -125.95945      615.85083    
     14000   234.51201     -127.04978      1.1215831     -125.9282       615.85083    
     15000   201.7059      -126.8637       0.96468376    -125.89902      615.85083    
     16000   247.11357     -127.05162      1.1818516     -125.86977      615.85083    
     17000   284.70841     -127.20135      1.3616537     -125.83969      615.85083    
     18000   179.92826     -126.66913      0.86052947    -125.8086       615.85083    
     19000   238.91395     -126.91864      1.1426359     -125.776        615.85083    
     20000   248.04389     -126.92826      1.186301      -125.74196      615.85083    
     21000   260.33643     -126.95152      1.2450916     -125.70643      615.85083    
     22000   273.55984     -126.97826      1.3083343     -125.66993      615.85083    
     23000   227.12625     -126.71729      1.0862597     -125.63103      615.85083    
     24000   285.41058     -126.95725      1.3650119     -125.59224      615.85083    
     25000   232.47053     -126.6639       1.1118194     -125.55208      615.85083    
     26000   286.26263     -126.88167      1.3690869     -125.51258      615.85083    
     27000   288.18312     -126.85076      1.3782719     -125.47249      615.85083    
     28000   274.69879     -126.74596      1.3137814     -125.43218      615.85083    
     29000   312.99386     -126.89075      1.4969324     -125.39382      615.85083    
     30000   300.06268     -126.79094      1.4350874     -125.35586      615.85083    
     31000   303.43606     -126.77055      1.451221      -125.31933      615.85083    
     32000   290.25875     -126.67257      1.3881989     -125.28438      615.85083    
     33000   324.72879     -126.80327      1.5530561     -125.25022      615.85083    
     34000   306.53743     -126.68329      1.4660537     -125.21724      615.85083    
     35000   283.66563     -126.54425      1.3566664     -125.18758      615.85083    
     36000   270.07226     -126.45005      1.2916544     -125.1584       615.85083    
     37000   332.95685     -126.72234      1.5924079     -125.12993      615.85083    
     38000   325.71445     -126.66203      1.5577702     -125.10426      615.85083    
     39000   332.06217     -126.66908      1.588129      -125.08095      615.85083    
     40000   354.36641     -126.75433      1.6948018     -125.05953      615.85083    
     41000   300.13534     -126.47644      1.4354349     -125.04101      615.85083    
     42000   300.76883     -126.46316      1.4384646     -125.0247       630.25013    
     43000   340.6225      -126.63943      1.6290698     -125.01036      630.25013    
     44000   309.15674     -126.47705      1.4785809     -124.99847      628.25055    
     45000   344.51537     -126.63535      1.647688      -124.98766      590.95304    
     46000   342.51942     -126.6172       1.6381421     -124.97906      590.95304    
     47000   264.44431     -126.23728      1.2647381     -124.97255      561.24186    
     48000   347.82507     -126.63158      1.663517      -124.96806      609.64786    
     49000   312.6729      -126.46098      1.4953973     -124.96558      609.64786    
     50000   353.41512     -126.65576      1.6902521     -124.96551      606.13567    
Loop time of 1.59181 on 1 procs for 50000 steps with 38 atoms

Performance: 2713.887 ns/day, 0.009 hours/ns, 31410.725 timesteps/s
100.1% CPU use with 1 MPI tasks x 1 OpenMP threads

MPI task timing breakdown:
Section |  min time  |  avg time  |  max time  |%varavg| %total
---------------------------------------------------------------
Pair    | 1.4529     | 1.4529     | 1.4529     |   0.0 | 91.27
Neigh   | 9e-05      | 9e-05      | 9e-05      |   0.0 |  0.01
Comm    | 0.007436   | 0.007436   | 0.007436   |   0.0 |  0.47
Output  | 0.013285   | 0.013285   | 0.013285   |   0.0 |  0.83
Modify  | 0.09785    | 0.09785    | 0.09785    |   0.0 |  6.15
Other   |            | 0.02025    |            |       |  1.27

Nlocal:             38 ave          38 max          38 min
Histogram: 1 0 0 0 0 0 0 0 0 0
Nghost:              0 ave           0 max           0 min
Histogram: 1 0 0 0 0 0 0 0 0 0
Neighs:            611 ave         611 max         611 min
Histogram: 1 0 0 0 0 0 0 0 0 0

Total # of neighbors = 611
Ave neighs/atom = 16.078947
Neighbor list builds = 6
Dangerous builds = 0
Total wall time: 0:00:01
