LAMMPS (15 Sep 2022)
OMP_NUM_THREADS environment is not set. Defaulting to 1 thread. (src/comm.cpp:98)
  using 1 OpenMP thread(s) per MPI task
Loaded 1 plugins from C:\Users\becat\AppData\Local\LAMMPS 64-bit 15Sep2022\plugins
Lattice spacing in x,y,z = 4.079 4.079 4.079
Created orthogonal box = (0 0 0) to (40.79 40.79 40.79)
  1 by 1 by 1 MPI processor grid
Read molecule template np:
  1 molecules
  0 fragments
  344 atoms with max type 1
  0 bonds with max type 0
  0 angles with max type 0
  0 dihedrals with max type 0
  0 impropers with max type 0
Created 344 atoms
  using lattice units in orthogonal box = (6.3184216 7.5591236 7.436427) to (34.471578 33.230876 33.353573)
  create_atoms CPU = 0.000 seconds
Neighbor list info ...
  update: every = 1 steps, delay = 10 steps, check = yes
  max neighbors/atom: 2000, page size: 100000
  master list distance cutoff = 7.55
  ghost atom cutoff = 7.55
  binsize = 3.775, bins = 8 7 7
  1 neighbor lists, perpetual/occasional/extra = 1 0 0
  (1) pair eam, perpetual
      attributes: half, newton on
      pair build: half/bin/atomonly/newton
      stencil: half/bin/3d
      bin: standard
Setting up Verlet run ...
  Unit style    : metal
  Current step  : 0
  Time step     : 0.001
Per MPI rank memory allocation (min/avg/max) = 4.558 | 4.558 | 4.558 Mbytes
   Step          Temp          PotEng         KinEng         TotEng         Volume    
         0   300           -1246.528       13.300869     -1233.2271      18731.381    
      1000   319.63897     -1247.4057      14.171587     -1233.2341      13551.9      
      2000   303.28479     -1246.7009      13.446504     -1233.2544      14765.42     
      3000   306.03343     -1246.8555      13.568368     -1233.2872      14765.42     
      4000   341.68782     -1248.4812      15.14915      -1233.3321      14765.42     
      5000   332.73651     -1248.1431      14.752282     -1233.3908      14765.42     
      6000   312.63431     -1247.3237      13.861027     -1233.4626      14490.436    
      7000   308.86768     -1247.2387      13.694028     -1233.5447      14490.436    
      8000   318.91928     -1247.7814      14.139679     -1233.6417      14490.436    
      9000   287.99212     -1246.5205      12.768485     -1233.752       14261.616    
     10000   311.23663     -1247.671       13.799059     -1233.872       14261.616    
     11000   305.79462     -1247.5615      13.55778      -1234.0037      15296.584    
     12000   292.79282     -1247.1246      12.98133      -1234.1433      14115.874    
     13000   296.30117     -1247.4221      13.136877     -1234.2852      14115.874    
     14000   311.19475     -1248.2267      13.797202     -1234.4295      14115.874    
     15000   292.64552     -1247.5441      12.974799     -1234.5693      14115.874    
     16000   296.0713      -1247.8264      13.126685     -1234.6997      14115.874    
     17000   305.2431      -1248.3524      13.533328     -1234.8191      14115.874    
     18000   298.42345     -1248.1549      13.230971     -1234.924       14115.874    
     19000   287.88486     -1247.7765      12.763729     -1235.0127      14115.874    
     20000   302.92282     -1248.5156      13.430456     -1235.0852      14115.874    
     21000   297.72005     -1248.3414      13.199785     -1235.1416      14115.874    
     22000   295.54894     -1248.2867      13.103526     -1235.1831      14115.874    
     23000   300.1281      -1248.5183      13.306548     -1235.2117      14115.874    
     24000   288.89117     -1248.0368      12.808345     -1235.2285      14115.874    
     25000   281.82747     -1247.7307      12.495167     -1235.2355      14115.874    
     26000   276.20755     -1247.4801      12.246002     -1235.2341      14115.874    
     27000   267.45874     -1247.0831      11.858112     -1235.2249      14115.874    
     28000   283.61864     -1247.7843      12.574581     -1235.2098      14115.874    
     29000   287.89801     -1247.9535      12.764312     -1235.1892      14115.874    
     30000   296.45632     -1248.308       13.143756     -1235.1642      14115.874    
     31000   281.3867      -1247.611       12.475626     -1235.1354      14115.874    
     32000   285.166       -1247.7466      12.643185     -1235.1034      14115.874    
     33000   280.90683     -1247.523       12.45435      -1235.0686      14115.874    
     34000   299.11495     -1248.2917      13.261629     -1235.03        14730.014    
     35000   270.14354     -1246.9655      11.977146     -1234.9883      14730.014    
     36000   298.2634      -1248.1671      13.223874     -1234.9432      14730.014    
     37000   298.73289     -1248.1406      13.24469      -1234.8959      14730.014    
     38000   291.40023     -1247.7659      12.919588     -1234.8463      14730.014    
     39000   308.07578     -1248.4539      13.658919     -1234.795       14730.014    
     40000   302.30275     -1248.1448      13.402964     -1234.7419      14730.014    
     41000   310.34669     -1248.4469      13.759602     -1234.6873      14730.014    
     42000   307.0511      -1248.2448      13.613488     -1234.6313      14730.014    
     43000   295.07509     -1247.6565      13.082517     -1234.574       14730.014    
     44000   282.09113     -1247.0225      12.506857     -1234.5157      14730.014    
     45000   295.76698     -1247.5695      13.113193     -1234.4563      15048.661    
     46000   301.90478     -1247.7818      13.385319     -1234.3964      15048.661    
     47000   315.23405     -1248.3133      13.976289     -1234.337       15048.661    
     48000   309.49786     -1247.9995      13.721968     -1234.2775      15048.661    
     49000   299.47175     -1247.496       13.277448     -1234.2186      15048.661    
     50000   306.44341     -1247.7465      13.586546     -1234.1599      15048.661    
Loop time of 20.4154 on 1 procs for 50000 steps with 344 atoms

Performance: 211.605 ns/day, 0.113 hours/ns, 2449.131 timesteps/s
99.8% CPU use with 1 MPI tasks x 1 OpenMP threads

MPI task timing breakdown:
Section |  min time  |  avg time  |  max time  |%varavg| %total
---------------------------------------------------------------
Pair    | 19.878     | 19.878     | 19.878     |   0.0 | 97.37
Neigh   | 0.004145   | 0.004145   | 0.004145   |   0.0 |  0.02
Comm    | 0.008256   | 0.008256   | 0.008256   |   0.0 |  0.04
Output  | 0.073035   | 0.073035   | 0.073035   |   0.0 |  0.36
Modify  | 0.3784     | 0.3784     | 0.3784     |   0.0 |  1.85
Other   |            | 0.0734     |            |       |  0.36

Nlocal:            344 ave         344 max         344 min
Histogram: 1 0 0 0 0 0 0 0 0 0
Nghost:              0 ave           0 max           0 min
Histogram: 1 0 0 0 0 0 0 0 0 0
Neighs:          11200 ave       11200 max       11200 min
Histogram: 1 0 0 0 0 0 0 0 0 0

Total # of neighbors = 11200
Ave neighs/atom = 32.55814
Neighbor list builds = 13
Dangerous builds = 0
Total wall time: 0:00:20
