LAMMPS (15 Sep 2022)
OMP_NUM_THREADS environment is not set. Defaulting to 1 thread. (src/comm.cpp:98)
  using 1 OpenMP thread(s) per MPI task
Loaded 1 plugins from C:\Users\becat\AppData\Local\LAMMPS 64-bit 15Sep2022\plugins
Lattice spacing in x,y,z = 4.079 4.079 4.079
Created orthogonal box = (0 0 0) to (40.79 40.79 40.79)
  1 by 1 by 1 MPI processor grid
Read molecule template np:
  1 molecules
  0 fragments
  309 atoms with max type 1
  0 bonds with max type 0
  0 angles with max type 0
  0 dihedrals with max type 0
  0 impropers with max type 0
Created 309 atoms
  using lattice units in orthogonal box = (11.299489 9.7465109 9.5989881) to (29.490511 31.043489 31.191012)
  create_atoms CPU = 0.000 seconds
Neighbor list info ...
  update: every = 1 steps, delay = 10 steps, check = yes
  max neighbors/atom: 2000, page size: 100000
  master list distance cutoff = 7.55
  ghost atom cutoff = 7.55
  binsize = 3.775, bins = 5 6 6
  1 neighbor lists, perpetual/occasional/extra = 1 0 0
  (1) pair eam, perpetual
      attributes: half, newton on
      pair build: half/bin/atomonly/newton
      stencil: half/bin/3d
      bin: standard
Setting up Verlet run ...
  Unit style    : metal
  Current step  : 0
  Time step     : 0.001
Per MPI rank memory allocation (min/avg/max) = 4.554 | 4.554 | 4.554 Mbytes
   Step          Temp          PotEng         KinEng         TotEng         Volume    
         0   300           -1112.8803      11.943637     -1100.9367      8365.0481    
      1000   319.17127     -1113.6469      12.706887     -1100.94        8365.0481    
      2000   292.12695     -1112.5775      11.630195     -1100.9473      8365.0481    
      3000   285.71657     -1112.3336      11.374984     -1100.9586      7399.7085    
      4000   302.84753     -1113.0304      12.057004     -1100.9734      7403.384     
      5000   298.1864      -1112.8634      11.871434     -1100.9919      7768.4463    
      6000   311.10197     -1113.3993      12.38563      -1101.0137      8018.7807    
      7000   332.89549     -1114.2941      13.253277     -1101.0408      7660.1791    
      8000   370.06662     -1115.8435      14.733139     -1101.1104      7690.9762    
      9000   334.70037     -1114.5723      13.325133     -1101.2472      7688.8744    
     10000   359.23218     -1115.7544      14.301796     -1101.4526      7652.4077    
     11000   365.23004     -1116.2593      14.540584     -1101.7187      7769.6542    
     12000   353.81037     -1116.1108      14.085943     -1102.0248      7602.7944    
     13000   358.59978     -1116.6102      14.276619     -1102.3336      7555.4897    
     14000   352.24003     -1116.6342      14.023424     -1102.6108      7414.8301    
     15000   360.63522     -1117.199       14.357654     -1102.8414      7546.4567    
     16000   335.09976     -1116.3753      13.341033     -1103.0343      7766.0246    
     17000   346.57054     -1117           13.79771      -1103.2023      7607.1822    
     18000   335.66743     -1116.7229      13.363633     -1103.3593      7643.4117    
     19000   327.83349     -1116.5674      13.051748     -1103.5157      7643.4117    
     20000   342.36341     -1117.307       13.630215     -1103.6768      7643.4117    
     21000   314.98464     -1116.3861      12.540208     -1103.8459      7643.4117    
     22000   329.27052     -1117.1295      13.108959     -1104.0206      7643.4117    
     23000   324.75754     -1117.1314      12.929288     -1104.2021      7643.4117    
     24000   325.29933     -1117.3382      12.950857     -1104.3874      7643.4117    
     25000   299.99198     -1116.5172      11.943318     -1104.5739      7643.4117    
     26000   334.14627     -1118.0633      13.303073     -1104.7602      7643.4117    
     27000   307.42788     -1117.1842      12.239357     -1104.9448      7643.4117    
     28000   311.65521     -1117.5325      12.407656     -1105.1248      7643.4117    
     29000   333.11351     -1118.5597      13.261957     -1105.2978      7556.4648    
     30000   316.8927      -1118.0812      12.616172     -1105.465       7556.4648    
     31000   309.2818      -1117.9386      12.313166     -1105.6254      7733.3233    
     32000   313.21183     -1118.249       12.469628     -1105.7793      7733.3233    
     33000   294.38558     -1117.6477      11.720115     -1105.9276      7733.3233    
     34000   311.70111     -1118.4773      12.409484     -1106.0678      7733.3233    
     35000   304.88961     -1118.339       12.138303     -1106.2007      7733.3233    
     36000   295.21961     -1118.0804      11.75332      -1106.3271      7733.3233    
     37000   307.77898     -1118.6995      12.253335     -1106.4462      7733.3233    
     38000   313.42845     -1119.0363      12.478253     -1106.558       7733.3233    
     39000   290.19674     -1118.2174      11.553349     -1106.664       7733.3233    
     40000   294.91809     -1118.5039      11.741316     -1106.7626      7733.3233    
     41000   289.21112     -1118.3679      11.514109     -1106.8538      7733.3233    
     42000   291.33401     -1118.5369      11.598626     -1106.9383      7733.3233    
     43000   274.93928     -1117.961       10.945917     -1107.0151      7733.3233    
     44000   291.21342     -1118.6777      11.593825     -1107.0839      7733.3233    
     45000   308.04368     -1119.4092      12.263874     -1107.1454      7733.3233    
     46000   287.30399     -1118.6377      11.438182     -1107.1995      7733.3233    
     47000   293.1201      -1118.9155      11.669734     -1107.2458      7733.3233    
     48000   283.40521     -1118.5674      11.282964     -1107.2844      7733.3233    
     49000   279.79142     -1118.454       11.139091     -1107.3149      7733.3233    
     50000   286.02902     -1118.7245      11.387423     -1107.3371      7733.3233    
Loop time of 21.2655 on 1 procs for 50000 steps with 309 atoms

Performance: 203.146 ns/day, 0.118 hours/ns, 2351.225 timesteps/s
97.9% CPU use with 1 MPI tasks x 1 OpenMP threads

MPI task timing breakdown:
Section |  min time  |  avg time  |  max time  |%varavg| %total
---------------------------------------------------------------
Pair    | 20.691     | 20.691     | 20.691     |   0.0 | 97.30
Neigh   | 0.009472   | 0.009472   | 0.009472   |   0.0 |  0.04
Comm    | 0.012145   | 0.012145   | 0.012145   |   0.0 |  0.06
Output  | 0.067881   | 0.067881   | 0.067881   |   0.0 |  0.32
Modify  | 0.39974    | 0.39974    | 0.39974    |   0.0 |  1.88
Other   |            | 0.08524    |            |       |  0.40

Nlocal:            309 ave         309 max         309 min
Histogram: 1 0 0 0 0 0 0 0 0 0
Nghost:              0 ave           0 max           0 min
Histogram: 1 0 0 0 0 0 0 0 0 0
Neighs:          10581 ave       10581 max       10581 min
Histogram: 1 0 0 0 0 0 0 0 0 0

Total # of neighbors = 10581
Ave neighs/atom = 34.242718
Neighbor list builds = 28
Dangerous builds = 0
Total wall time: 0:00:21
