LAMMPS (15 Sep 2022)
OMP_NUM_THREADS environment is not set. Defaulting to 1 thread. (src/comm.cpp:98)
  using 1 OpenMP thread(s) per MPI task
Loaded 1 plugins from C:\Users\becat\AppData\Local\LAMMPS 64-bit 15Sep2022\plugins
Lattice spacing in x,y,z = 4.079 4.079 4.079
Created orthogonal box = (0 0 0) to (40.79 40.79 40.79)
  1 by 1 by 1 MPI processor grid
Read molecule template np:
  1 molecules
  0 fragments
  1840 atoms with max type 1
  0 bonds with max type 0
  0 angles with max type 0
  0 dihedrals with max type 0
  0 impropers with max type 0
Created 1840 atoms
  using lattice units in orthogonal box = (0.65387924 -0.42200022 2.0704971) to (39.369175 41.17505 38.719504)
  create_atoms CPU = 0.000 seconds
Neighbor list info ...
  update: every = 1 steps, delay = 10 steps, check = yes
  max neighbors/atom: 2000, page size: 100000
  master list distance cutoff = 7.55
  ghost atom cutoff = 7.55
  binsize = 3.775, bins = 11 12 10
  1 neighbor lists, perpetual/occasional/extra = 1 0 0
  (1) pair eam, perpetual
      attributes: half, newton on
      pair build: half/bin/atomonly/newton
      stencil: half/bin/3d
      bin: standard
Setting up Verlet run ...
  Unit style    : metal
  Current step  : 0
  Time step     : 0.001
Per MPI rank memory allocation (min/avg/max) = 4.647 | 4.647 | 4.647 Mbytes
   Step          Temp          PotEng         KinEng         TotEng         Volume    
         0   300           -6925.0385      71.312822     -6853.7257      59021.104    
      1000   239.75372     -6910.5825      56.991714     -6853.5908      59021.104    
      2000   228.13011     -6907.4334      54.228673     -6853.2047      54969.945    
      3000   234.58561     -6908.3584      55.763207     -6852.5952      54969.945    
      4000   218.9399      -6903.9349      52.044074     -6851.8908      54969.945    
      5000   225.57858     -6904.838       53.622151     -6851.2159      54969.945    
      6000   238.97467     -6907.4269      56.806528     -6850.6204      54969.945    
      7000   231.41518     -6905.0455      55.009565     -6850.0359      54969.945    
      8000   232.49679     -6904.6768      55.266673     -6849.4101      54969.945    
      9000   232.63905     -6904.0244      55.300489     -6848.7239      54969.945    
     10000   246.30358     -6906.5263      58.548679     -6847.9777      54969.945    
     11000   234.47451     -6902.936       55.736797     -6847.1992      54969.945    
     12000   246.19815     -6904.913       58.523617     -6846.3894      54969.945    
     13000   246.09407     -6904.0741      58.498877     -6845.5752      54969.945    
     14000   245.47163     -6903.0923      58.350916     -6844.7414      54969.945    
     15000   248.75415     -6903.0324      59.131203     -6843.9012      54969.945    
     16000   254.0066      -6903.4301      60.379759     -6843.0503      54969.945    
     17000   249.62576     -6901.5286      59.338391     -6842.1902      54969.945    
     18000   249.11234     -6900.5444      59.216347     -6841.3281      54969.945    
     19000   254.3927      -6900.9205      60.471539     -6840.449       54969.945    
     20000   254.2578      -6900.0162      60.439472     -6839.5768      54969.945    
     21000   262.21959     -6901.0244      62.332062     -6838.6923      54969.945    
     22000   260.43351     -6899.7214      61.907496     -6837.8139      54969.945    
     23000   264.06621     -6899.6978      62.771023     -6836.9268      54969.945    
     24000   263.87029     -6898.767       62.72445      -6836.0425      54969.945    
     25000   267.05767     -6898.6466      63.48212      -6835.1645      54969.945    
     26000   268.56886     -6898.1223      63.841345     -6834.281       54969.945    
     27000   261.38877     -6895.5421      62.13457      -6833.4075      54969.945    
     28000   275.96909     -6898.132       65.600448     -6832.5316      54969.945    
     29000   271.15427     -6896.127       64.455921     -6831.6711      54969.945    
     30000   272.62698     -6895.6154      64.805997     -6830.8094      54969.945    
     31000   278.15223     -6896.0764      66.119402     -6829.957       54969.945    
     32000   275.9913      -6894.7211      65.605727     -6829.1153      54969.945    
     33000   287.31008     -6896.5775      68.296308     -6828.2812      55798.717    
     34000   277.36294     -6893.393       65.93178      -6827.4612      56655.567    
     35000   284.45698     -6894.2623      67.618099     -6826.6442      56064.138    
     36000   283.89648     -6893.3339      67.484863     -6825.8491      56064.138    
     37000   287.1106      -6893.3098      68.248891     -6825.061       56064.138    
     38000   295.59851     -6894.5577      70.266546     -6824.2912      57181.363    
     39000   283.27341     -6890.8725      67.336755     -6823.5358      57181.363    
     40000   288.65984     -6891.4155      68.617159     -6822.7984      57181.363    
     41000   293.78007     -6891.9132      69.834286     -6822.0789      57181.363    
     42000   286.1804      -6889.4056      68.027772     -6821.3778      57181.363    
     43000   298.08616     -6891.5576      70.857883     -6820.6997      57181.363    
     44000   296.56537     -6890.5369      70.496379     -6820.0405      55582.614    
     45000   298.73604     -6890.4163      71.012367     -6819.4039      55582.614    
     46000   300.83806     -6890.303       71.512037     -6818.791       55493.883    
     47000   299.98059     -6889.5124      71.308208     -6818.2042      55493.883    
     48000   299.77161     -6888.9032      71.25853      -6817.6446      56030.873    
     49000   304.90832     -6889.5905      72.479576     -6817.1109      56030.873    
     50000   300.70644     -6888.0877      71.48075      -6816.607       55346.261    
Loop time of 190.649 on 1 procs for 50000 steps with 1840 atoms

Performance: 22.659 ns/day, 1.059 hours/ns, 262.262 timesteps/s
99.5% CPU use with 1 MPI tasks x 1 OpenMP threads

MPI task timing breakdown:
Section |  min time  |  avg time  |  max time  |%varavg| %total
---------------------------------------------------------------
Pair    | 186.76     | 186.76     | 186.76     |   0.0 | 97.96
Neigh   | 0.03879    | 0.03879    | 0.03879    |   0.0 |  0.02
Comm    | 0.022446   | 0.022446   | 0.022446   |   0.0 |  0.01
Output  | 0.5242     | 0.5242     | 0.5242     |   0.0 |  0.27
Modify  | 2.7672     | 2.7672     | 2.7672     |   0.0 |  1.45
Other   |            | 0.5358     |            |       |  0.28

Nlocal:           1840 ave        1840 max        1840 min
Histogram: 1 0 0 0 0 0 0 0 0 0
Nghost:              0 ave           0 max           0 min
Histogram: 1 0 0 0 0 0 0 0 0 0
Neighs:          74522 ave       74522 max       74522 min
Histogram: 1 0 0 0 0 0 0 0 0 0

Total # of neighbors = 74522
Ave neighs/atom = 40.501087
Neighbor list builds = 12
Dangerous builds = 0
Total wall time: 0:03:10
