LAMMPS (15 Sep 2022)
OMP_NUM_THREADS environment is not set. Defaulting to 1 thread. (src/comm.cpp:98)
  using 1 OpenMP thread(s) per MPI task
Loaded 1 plugins from C:\Users\becat\AppData\Local\LAMMPS 64-bit 15Sep2022\plugins
Lattice spacing in x,y,z = 4.079 4.079 4.079
Created orthogonal box = (0 0 0) to (40.79 40.79 40.79)
  1 by 1 by 1 MPI processor grid
Read molecule template np:
  1 molecules
  0 fragments
  55 atoms with max type 1
  0 bonds with max type 0
  0 angles with max type 0
  0 dihedrals with max type 0
  0 impropers with max type 0
Created 55 atoms
  using lattice units in orthogonal box = (14.850583 15.94733 15.884202) to (25.877674 24.831524 25.233467)
  create_atoms CPU = 0.000 seconds
Neighbor list info ...
  update: every = 1 steps, delay = 10 steps, check = yes
  max neighbors/atom: 2000, page size: 100000
  master list distance cutoff = 7.55
  ghost atom cutoff = 7.55
  binsize = 3.775, bins = 3 3 3
  1 neighbor lists, perpetual/occasional/extra = 1 0 0
  (1) pair eam, perpetual
      attributes: half, newton on
      pair build: half/bin/atomonly/newton
      stencil: half/bin/3d
      bin: standard
Setting up Verlet run ...
  Unit style    : metal
  Current step  : 0
  Time step     : 0.001
Per MPI rank memory allocation (min/avg/max) = 4.538 | 4.538 | 4.538 Mbytes
   Step          Temp          PotEng         KinEng         TotEng         Volume    
         0   300           -188.7645       2.0940143     -186.67049      915.91772    
      1000   170.8631      -187.85809      1.1926326     -186.66545      915.91772    
      2000   163.63286     -187.79196      1.1421652     -186.64979      915.91772    
      3000   161.69209     -187.75287      1.1286185     -186.62425      915.91772    
      4000   166.2391      -187.74776      1.1603569     -186.5874       915.91772    
      5000   206.35536     -187.9813       1.4403703     -186.54093      915.91772    
      6000   186.00688     -187.78582      1.2983369     -186.48748      915.91772    
      7000   198.62318     -187.81638      1.3863993     -186.42998      915.91772    
      8000   203.34665     -187.79283      1.4193693     -186.37346      915.91772    
      9000   192.88348     -187.66736      1.3463359     -186.32103      915.91772    
     10000   209.29837     -187.73392      1.4609126     -186.27301      915.91772    
     11000   207.13918     -187.67539      1.4458414     -186.22955      915.91772    
     12000   209.70064     -187.6501       1.4637205     -186.18638      915.91772    
     13000   230.50489     -187.75344      1.6089351     -186.14451      915.91772    
     14000   191.33137     -187.43743      1.3355021     -186.10193      864.47325    
     15000   190.64089     -187.38638      1.3306825     -186.0557       864.47325    
     16000   217.37513     -187.52253      1.5172888     -186.00524      933.49464    
     17000   223.62906     -187.51338      1.5609416     -185.95244      933.49464    
     18000   216.59842     -187.40939      1.5118673     -185.89753      933.49464    
     19000   236.60239     -187.49157      1.651496      -185.84007      933.49464    
     20000   216.60821     -187.29304      1.5119357     -185.78111      933.49464    
     21000   243.83433     -187.42272      1.7019753     -185.72075      933.49464    
     22000   252.89393     -187.42442      1.7652117     -185.65921      933.49464    
     23000   269.58247     -187.47915      1.8816986     -185.59745      933.49464    
     24000   249.97956     -187.28141      1.7448693     -185.53654      954.35911    
     25000   286.84835     -187.47719      2.0022152     -185.47498      948.96287    
     26000   291.6605      -187.45024      2.0358042     -185.41444      948.96287    
     27000   242.68909     -187.04937      1.6939815     -185.35539      948.96287    
     28000   291.39279     -187.33056      2.0339356     -185.29663      875.95552    
     29000   251.20121     -186.9909       1.7533965     -185.2375       875.95552    
     30000   273.15804     -187.08513      1.9066562     -185.17847      981.95471    
     31000   310.22178     -187.28576      2.1653628     -185.12039      981.95471    
     32000   284.05285     -187.04785      1.9827025     -185.06515      981.95471    
     33000   304.21617     -187.13395      2.1234434     -185.0105       981.95471    
     34000   313.46348     -187.14581      2.1879901     -184.95782      981.95471    
     35000   296.27315     -186.97509      2.0680007     -184.90709      981.95471    
     36000   306.74447     -186.99944      2.141091      -184.85835      981.95471    
     37000   267.07112     -186.67605      1.8641692     -184.81188      981.95471    
     38000   291.65746     -186.8035       2.035783      -184.76772      981.95471    
     39000   315.02569     -186.92493      2.1988944     -184.72604      981.95471    
     40000   329.63326     -186.98707      2.3008559     -184.68621      981.95471    
     41000   329.75367     -186.95101      2.3016964     -184.64931      981.95471    
     42000   308.69248     -186.76999      2.1546883     -184.6153       981.95471    
     43000   358.4968      -187.08658      2.5023248     -184.58426      981.95471    
     44000   309.94401     -186.71973      2.163424      -184.55631      981.95471    
     45000   359.50449     -187.04087      2.5093585     -184.53151      981.95471    
     46000   391.6902      -187.24478      2.7340164     -184.51076      981.95471    
     47000   277.17693     -186.42772      1.9347082     -184.49301      981.95471    
     48000   317.76469     -186.69676      2.2180127     -184.47875      981.95471    
     49000   368.80267     -187.04218      2.5742603     -184.46792      981.95471    
     50000   334.08827     -186.79349      2.3319521     -184.46154      981.95471    
Loop time of 1.73265 on 1 procs for 50000 steps with 55 atoms

Performance: 2493.294 ns/day, 0.010 hours/ns, 28857.564 timesteps/s
100.1% CPU use with 1 MPI tasks x 1 OpenMP threads

MPI task timing breakdown:
Section |  min time  |  avg time  |  max time  |%varavg| %total
---------------------------------------------------------------
Pair    | 1.6075     | 1.6075     | 1.6075     |   0.0 | 92.78
Neigh   | 0.000122   | 0.000122   | 0.000122   |   0.0 |  0.01
Comm    | 0.005514   | 0.005514   | 0.005514   |   0.0 |  0.32
Output  | 0.013014   | 0.013014   | 0.013014   |   0.0 |  0.75
Modify  | 0.088798   | 0.088798   | 0.088798   |   0.0 |  5.12
Other   |            | 0.01773    |            |       |  1.02

Nlocal:             55 ave          55 max          55 min
Histogram: 1 0 0 0 0 0 0 0 0 0
Nghost:              0 ave           0 max           0 min
Histogram: 1 0 0 0 0 0 0 0 0 0
Neighs:           1076 ave        1076 max        1076 min
Histogram: 1 0 0 0 0 0 0 0 0 0

Total # of neighbors = 1076
Ave neighs/atom = 19.563636
Neighbor list builds = 6
Dangerous builds = 0
Total wall time: 0:00:01
