LAMMPS (15 Sep 2022)
OMP_NUM_THREADS environment is not set. Defaulting to 1 thread. (src/comm.cpp:98)
  using 1 OpenMP thread(s) per MPI task
Loaded 1 plugins from C:\Users\becat\AppData\Local\LAMMPS 64-bit 15Sep2022\plugins
Lattice spacing in x,y,z = 4.079 4.079 4.079
Created orthogonal box = (0 0 0) to (40.79 40.79 40.79)
  1 by 1 by 1 MPI processor grid
Read molecule template np:
  1 molecules
  0 fragments
  38 atoms with max type 1
  0 bonds with max type 0
  0 angles with max type 0
  0 dihedrals with max type 0
  0 impropers with max type 0
Created 38 atoms
  using lattice units in orthogonal box = (16.322586 16.192003 16.736767) to (24.568732 24.381615 24.545333)
  create_atoms CPU = 0.000 seconds
Neighbor list info ...
  update: every = 1 steps, delay = 10 steps, check = yes
  max neighbors/atom: 2000, page size: 100000
  master list distance cutoff = 7.55
  ghost atom cutoff = 7.55
  binsize = 3.775, bins = 3 3 3
  1 neighbor lists, perpetual/occasional/extra = 1 0 0
  (1) pair eam, perpetual
      attributes: half, newton on
      pair build: half/bin/atomonly/newton
      stencil: half/bin/3d
      bin: standard
Setting up Verlet run ...
  Unit style    : metal
  Current step  : 0
  Time step     : 0.001
Per MPI rank memory allocation (min/avg/max) = 4.537 | 4.537 | 4.537 Mbytes
   Step          Temp          PotEng         KinEng         TotEng         Volume    
         0   300           -127.53483      1.4347876     -126.10005      527.33387    
      1000   227.40689     -127.18469      1.087602      -126.09709      546.66018    
      2000   240.337       -127.23784      1.1494419     -126.0884       546.66018    
      3000   243.97631     -127.24052      1.1668473     -126.07367      546.66018    
      4000   225.21564     -127.13003      1.077122      -126.05291      546.66018    
      5000   193.20799     -126.94948      0.92404141    -126.02543      546.66018    
      6000   251.35601     -127.19349      1.2021416     -125.99135      546.66018    
      7000   195.2109      -126.88576      0.93362062    -125.95214      546.66018    
      8000   250.34161     -127.10483      1.1972901     -125.90754      546.66018    
      9000   257.25103     -127.09175      1.2303353     -125.86141      546.66018    
     10000   222.81327     -126.8802       1.0656324     -125.81457      546.66018    
     11000   225.81313     -126.8493       1.0799796     -125.76933      546.66018    
     12000   262.37432     -126.98263      1.2548381     -125.72779      546.66018    
     13000   303.44213     -127.14251      1.45125       -125.69126      546.66018    
     14000   268.34764     -126.94143      1.2834062     -125.65802      546.66018    
     15000   265.94291     -126.90091      1.2719053     -125.629        546.66018    
     16000   279.61189     -126.93978      1.3372789     -125.6025       546.66018    
     17000   245.16646     -126.75036      1.1725393     -125.57782      537.50142    
     18000   237.92562     -126.69257      1.1379091     -125.55467      537.50142    
     19000   261.93502     -126.78436      1.2527371     -125.53163      537.50142    
     20000   292.98507     -126.91027      1.4012378     -125.50903      490.90246    
     21000   259.2704      -126.72571      1.2399932     -125.48572      532.29746    
     22000   262.74597     -126.71965      1.2566156     -125.46303      532.29746    
     23000   313.19306     -126.93725      1.4978851     -125.43937      532.29746    
     24000   315.83962     -126.92566      1.5105426     -125.41512      532.29746    
     25000   231.07243     -126.49571      1.1051328     -125.39058      532.29746    
     26000   279.75646     -126.70241      1.3379703     -125.36444      532.29746    
     27000   302.62636     -126.78569      1.4473485     -125.33834      532.29746    
     28000   328.85638     -126.88497      1.5727968     -125.31217      525.11344    
     29000   316.4127      -126.79928      1.5132834     -125.286        525.11344    
     30000   263.86147     -126.52192      1.2619506     -125.25996      525.11344    
     31000   296.33139     -126.65154      1.417242      -125.2343       524.30341    
     32000   237.66744     -126.34483      1.1366743     -125.20816      524.30341    
     33000   323.80123     -126.732        1.54862       -125.18338      524.30341    
     34000   277.96227     -126.48859      1.3293894     -125.1592       524.30341    
     35000   336.47864     -126.74505      1.6092513     -125.1358       524.30341    
     36000   271.06631     -126.41079      1.2964086     -125.11438      524.30341    
     37000   325.84437     -126.65143      1.5583915     -125.09304      524.30341    
     38000   375.078       -126.8671       1.7938575     -125.07325      524.30341    
     39000   346.19404     -126.71121      1.6557164     -125.05549      524.30341    
     40000   350.76007     -126.71727      1.677554      -125.03972      524.30341    
     41000   319.49437     -126.55454      1.5280219     -125.02652      501.88251    
     42000   326.4775      -126.57499      1.5614196     -125.01357      461.19522    
     43000   332.1433      -126.58996      1.588517      -125.00144      513.65796    
     44000   316.09165     -126.50166      1.5117479     -124.98991      513.65796    
     45000   367.63819     -126.73807      1.7582757     -124.97979      513.65796    
     46000   332.76436     -126.56238      1.5914872     -124.9709       478.81147    
     47000   353.26934     -126.6533       1.6895549     -124.96375      520.65207    
     48000   333.0504      -126.55173      1.5928553     -124.95887      520.65207    
     49000   313.48105     -126.45598      1.4992624     -124.95672      520.65207    
     50000   354.41574     -126.65253      1.6950377     -124.95749      520.65207    
Loop time of 1.72484 on 1 procs for 50000 steps with 38 atoms

Performance: 2504.574 ns/day, 0.010 hours/ns, 28988.129 timesteps/s
98.7% CPU use with 1 MPI tasks x 1 OpenMP threads

MPI task timing breakdown:
Section |  min time  |  avg time  |  max time  |%varavg| %total
---------------------------------------------------------------
Pair    | 1.559      | 1.559      | 1.559      |   0.0 | 90.38
Neigh   | 0.000277   | 0.000277   | 0.000277   |   0.0 |  0.02
Comm    | 0.00846    | 0.00846    | 0.00846    |   0.0 |  0.49
Output  | 0.015607   | 0.015607   | 0.015607   |   0.0 |  0.90
Modify  | 0.1166     | 0.1166     | 0.1166     |   0.0 |  6.76
Other   |            | 0.02492    |            |       |  1.44

Nlocal:             38 ave          38 max          38 min
Histogram: 1 0 0 0 0 0 0 0 0 0
Nghost:              0 ave           0 max           0 min
Histogram: 1 0 0 0 0 0 0 0 0 0
Neighs:            612 ave         612 max         612 min
Histogram: 1 0 0 0 0 0 0 0 0 0

Total # of neighbors = 612
Ave neighs/atom = 16.105263
Neighbor list builds = 13
Dangerous builds = 0
Total wall time: 0:00:01
