LAMMPS (15 Sep 2022)
OMP_NUM_THREADS environment is not set. Defaulting to 1 thread. (src/comm.cpp:98)
  using 1 OpenMP thread(s) per MPI task
Loaded 1 plugins from C:\Users\becat\AppData\Local\LAMMPS 64-bit 15Sep2022\plugins
Lattice spacing in x,y,z = 4.079 4.079 4.079
Created orthogonal box = (0 0 0) to (40.79 40.79 40.79)
  1 by 1 by 1 MPI processor grid
Read molecule template np:
  1 molecules
  0 fragments
  55 atoms with max type 1
  0 bonds with max type 0
  0 angles with max type 0
  0 dihedrals with max type 0
  0 impropers with max type 0
Created 55 atoms
  using lattice units in orthogonal box = (15.149884 14.86028 15.156514) to (24.770532 25.887821 25.633486)
  create_atoms CPU = 0.000 seconds
Neighbor list info ...
  update: every = 1 steps, delay = 10 steps, check = yes
  max neighbors/atom: 2000, page size: 100000
  master list distance cutoff = 7.55
  ghost atom cutoff = 7.55
  binsize = 3.775, bins = 3 3 3
  1 neighbor lists, perpetual/occasional/extra = 1 0 0
  (1) pair eam, perpetual
      attributes: half, newton on
      pair build: half/bin/atomonly/newton
      stencil: half/bin/3d
      bin: standard
Setting up Verlet run ...
  Unit style    : metal
  Current step  : 0
  Time step     : 0.001
Per MPI rank memory allocation (min/avg/max) = 4.538 | 4.538 | 4.538 Mbytes
   Step          Temp          PotEng         KinEng         TotEng         Volume    
         0   300           -181.15389      2.0940143     -179.05987      1111.5238    
      1000   703.48139     -184.01225      4.9103337     -179.10192      1111.5238    
      2000   679.20337     -183.97364      4.740872      -179.23277      950.44767    
      3000   609.77382     -183.69012      4.2562504     -179.43387      1037.0441    
      4000   627.59573     -184.05906      4.3806482     -179.67841      1006.2737    
      5000   485.43787     -183.3088       3.3883795     -179.92042      981.08366    
      6000   655.91897     -184.71677      4.5783458     -180.13842      999.77203    
      7000   516.35079     -183.93897      3.6041532     -180.33482      1006.6283    
      8000   509.14387     -184.05848      3.5538486     -180.50463      999.24343    
      9000   550.29946     -184.53114      3.8411165     -180.69003      965.14671    
     10000   552.8732      -184.74421      3.8590814     -180.88513      1022.9218    
     11000   586.40087     -185.19129      4.0931061     -181.09819      984.20638    
     12000   595.86655     -185.4816       4.1591771     -181.32243      1024.5723    
     13000   590.30337     -185.6568       4.1203457     -181.53646      994.19691    
     14000   493.46362     -185.18616      3.4443997     -181.74176      1168.717     
     15000   433.49976     -184.97636      3.0258491     -181.95051      1067.0441    
     16000   439.35684     -185.21661      3.0667318     -182.14988      1094.8363    
     17000   516.79073     -185.94873      3.607224      -182.3415       1057.8354    
     18000   455.71454     -185.72036      3.1809093     -182.53945      968.53532    
     19000   418.01993     -185.64772      2.9177991     -182.72992      1015.9053    
     20000   499.25328     -186.40031      3.4848117     -182.9155       1013.7481    
     21000   467.09494     -186.36006      3.260345      -183.09972      981.70327    
     22000   419.28726     -186.20749      2.9266452     -183.28085      1047.3878    
     23000   465.77973     -186.69811      3.2511648     -183.44694      983.13995    
     24000   377.80467     -186.24941      2.6370947     -183.61231      1015.843     
     25000   384.99053     -186.45391      2.6872523     -183.76666      1015.843     
     26000   379.91741     -186.56796      2.6518417     -183.91611      1015.843     
     27000   404.69306     -186.88189      2.8247769     -184.05711      1015.843     
     28000   384.16094     -186.87358      2.6814617     -184.19212      1015.843     
     29000   361.17699     -186.84164      2.5210326     -184.3206       1015.843     
     30000   378.92835     -187.08526      2.644938      -184.44032      1015.843     
     31000   327.38544     -186.83783      2.2851661     -184.55266      1015.843     
     32000   338.81538     -187.02607      2.3649476     -184.66112      1015.843     
     33000   347.26063     -187.18639      2.4238958     -184.76249      1015.843     
     34000   319.7138      -187.08994      2.2316176     -184.85833      1015.843     
     35000   291.28252     -186.98122      2.0331659     -184.94805      1015.843     
     36000   310.60828     -187.20098      2.1680607     -185.03292      958.77931    
     37000   323.70223     -187.36897      2.259457      -185.10952      958.77931    
     38000   296.56545     -187.25088      2.070041      -185.18084      958.77931    
     39000   288.77464     -187.26418      2.0156608     -185.24852      958.77931    
     40000   290.61703     -187.34038      2.0285208     -185.31185      958.77931    
     41000   293.54843     -187.41942      2.0489821     -185.37043      958.77931    
     42000   281.1064      -187.38641      1.9621361     -185.42427      958.77931    
     43000   263.66185     -187.31329      1.8403723     -185.47292      989.18034    
     44000   235.96411     -187.16106      1.6470408     -185.51402      1057.3784    
     45000   332.44818     -187.87165      2.3205042     -185.55115      992.59781    
     46000   301.01274     -187.68609      2.1010833     -185.585        1030.3584    
     47000   268.58986     -187.48931      1.8747701     -185.61454      1030.3584    
     48000   290.77264     -187.66867      2.0296069     -185.63907      1030.3584    
     49000   264.30186     -187.50436      1.8448396     -185.65952      1030.3584    
     50000   269.73737     -187.55833      1.8827797     -185.67555      1030.3584    
Loop time of 1.5988 on 1 procs for 50000 steps with 55 atoms

Performance: 2702.033 ns/day, 0.009 hours/ns, 31273.533 timesteps/s
99.7% CPU use with 1 MPI tasks x 1 OpenMP threads

MPI task timing breakdown:
Section |  min time  |  avg time  |  max time  |%varavg| %total
---------------------------------------------------------------
Pair    | 1.4808     | 1.4808     | 1.4808     |   0.0 | 92.62
Neigh   | 0.001023   | 0.001023   | 0.001023   |   0.0 |  0.06
Comm    | 0.005308   | 0.005308   | 0.005308   |   0.0 |  0.33
Output  | 0.012508   | 0.012508   | 0.012508   |   0.0 |  0.78
Modify  | 0.081845   | 0.081845   | 0.081845   |   0.0 |  5.12
Other   |            | 0.01732    |            |       |  1.08

Nlocal:             55 ave          55 max          55 min
Histogram: 1 0 0 0 0 0 0 0 0 0
Nghost:              0 ave           0 max           0 min
Histogram: 1 0 0 0 0 0 0 0 0 0
Neighs:           1081 ave        1081 max        1081 min
Histogram: 1 0 0 0 0 0 0 0 0 0

Total # of neighbors = 1081
Ave neighs/atom = 19.654545
Neighbor list builds = 59
Dangerous builds = 0
Total wall time: 0:00:01
