LAMMPS (15 Sep 2022)
OMP_NUM_THREADS environment is not set. Defaulting to 1 thread. (src/comm.cpp:98)
  using 1 OpenMP thread(s) per MPI task
Loaded 1 plugins from C:\Users\becat\AppData\Local\LAMMPS 64-bit 15Sep2022\plugins
Lattice spacing in x,y,z = 4.079 4.079 4.079
Created orthogonal box = (0 0 0) to (40.79 40.79 40.79)
  1 by 1 by 1 MPI processor grid
Read molecule template np:
  1 molecules
  0 fragments
  37 atoms with max type 1
  0 bonds with max type 0
  0 angles with max type 0
  0 dihedrals with max type 0
  0 impropers with max type 0
Created 37 atoms
  using lattice units in orthogonal box = (15.703656 16.192969 16.625852) to (24.961916 23.98319 24.648663)
  create_atoms CPU = 0.000 seconds
Neighbor list info ...
  update: every = 1 steps, delay = 10 steps, check = yes
  max neighbors/atom: 2000, page size: 100000
  master list distance cutoff = 7.55
  ghost atom cutoff = 7.55
  binsize = 3.775, bins = 3 3 3
  1 neighbor lists, perpetual/occasional/extra = 1 0 0
  (1) pair eam, perpetual
      attributes: half, newton on
      pair build: half/bin/atomonly/newton
      stencil: half/bin/3d
      bin: standard
Setting up Verlet run ...
  Unit style    : metal
  Current step  : 0
  Time step     : 0.001
Per MPI rank memory allocation (min/avg/max) = 4.537 | 4.537 | 4.537 Mbytes
   Step          Temp          PotEng         KinEng         TotEng         Volume    
         0   300           -124.40611      1.3960096     -123.0101       578.63639    
      1000   186.76806     -123.87604      0.86909997    -123.00694      578.63639    
      2000   207.12398     -123.96121      0.96382351    -122.99739      578.63639    
      3000   205.94703     -123.93968      0.95834674    -122.98133      578.63639    
      4000   213.07927     -123.95018      0.99153566    -122.95864      578.63639    
      5000   209.66899     -123.90435      0.97566638    -122.92868      578.63639    
      6000   177.12294     -123.71675      0.82421775    -122.89253      578.63639    
      7000   188.20523     -123.72631      0.87578768    -122.85052      578.63639    
      8000   208.61138     -123.7766       0.97074496    -122.80586      578.63639    
      9000   209.63035     -123.73609      0.97548659    -122.76061      578.63639    
     10000   213.5097      -123.7101       0.99353861    -122.71656      578.63639    
     11000   210.74709     -123.65683      0.9806832     -122.67614      578.63639    
     12000   245.14631     -123.78033      1.1407553     -122.63957      578.63639    
     13000   265.12745     -123.84119      1.2337348     -122.60746      578.63639    
     14000   200.21213     -123.50992      0.93166016    -122.57826      578.63639    
     15000   217.25115     -123.55991      1.0109489     -122.54896      578.63639    
     16000   190.73623     -123.40751      0.88756534    -122.51994      578.63639    
     17000   206.99645     -123.45472      0.96323009    -122.49149      578.63639    
     18000   266.46223     -123.70142      1.2399461     -122.46147      578.63639    
     19000   266.41332     -123.67006      1.2397185     -122.43035      578.63639    
     20000   236.51816     -123.49871      1.1006054     -122.3981       578.63639    
     21000   316.10345     -123.83585      1.4709448     -122.3649       578.63639    
     22000   289.0019      -123.6752       1.3448314     -122.33037      578.63639    
     23000   272.24094     -123.56091      1.2668365     -122.29407      578.63639    
     24000   259.96684     -123.46747      1.2097206     -122.25775      578.63639    
     25000   255.39624     -123.40899      1.188452      -122.22053      578.63639    
     26000   261.2685      -123.39815      1.2157777     -122.18238      578.63639    
     27000   282.27591     -123.45884      1.3135329     -122.14531      578.63639    
     28000   305.79223     -123.52941      1.4229629     -122.10644      578.63639    
     29000   312.42684     -123.52216      1.4538362     -122.06833      578.63639    
     30000   294.85525     -123.40343      1.3720692     -122.03136      578.63639    
     31000   316.52519     -123.46921      1.4729073     -121.9963       578.63639    
     32000   292.59803     -123.32359      1.3615655     -121.96202      578.63639    
     33000   289.99498     -123.27872      1.3494525     -121.92927      578.63639    
     34000   293.5731      -123.26471      1.3661029     -121.8986       578.63639    
     35000   298.09277     -123.25736      1.3871345     -121.87022      578.63639    
     36000   311.54613     -123.29299      1.4497379     -121.84326      578.63639    
     37000   292.43832     -123.17937      1.3608223     -121.81855      578.63639    
     38000   335.81258     -123.35845      1.5626586     -121.79579      578.63639    
     39000   257.01653     -122.97067      1.1959918     -121.77468      578.63639    
     40000   312.61939     -123.2103       1.4547322     -121.75557      578.63639    
     41000   330.24285     -123.27595      1.5367406     -121.73921      578.63639    
     42000   320.47047     -123.21587      1.4912662     -121.72461      578.63639    
     43000   314.22969     -123.17511      1.4622255     -121.71288      562.88135    
     44000   290.86464     -123.056        1.3534994     -121.7025       585.25153    
     45000   341.03547     -123.28143      1.5869626     -121.69447      570.63968    
     46000   336.69313     -123.25616      1.5667561     -121.6894       570.63968    
     47000   272.41726     -122.95457      1.267657      -121.68692      570.63968    
     48000   364.95595     -123.38573      1.6982733     -121.68746      560.77468    
     49000   327.61585     -123.215        1.5245162     -121.69048      560.77468    
     50000   342.20065     -123.28928      1.5923846     -121.6969       560.77468    
Loop time of 1.33848 on 1 procs for 50000 steps with 37 atoms

Performance: 3227.549 ns/day, 0.007 hours/ns, 37355.890 timesteps/s
100.4% CPU use with 1 MPI tasks x 1 OpenMP threads

MPI task timing breakdown:
Section |  min time  |  avg time  |  max time  |%varavg| %total
---------------------------------------------------------------
Pair    | 1.2127     | 1.2127     | 1.2127     |   0.0 | 90.60
Neigh   | 6.5e-05    | 6.5e-05    | 6.5e-05    |   0.0 |  0.00
Comm    | 0.006277   | 0.006277   | 0.006277   |   0.0 |  0.47
Output  | 0.011131   | 0.011131   | 0.011131   |   0.0 |  0.83
Modify  | 0.090576   | 0.090576   | 0.090576   |   0.0 |  6.77
Other   |            | 0.01771    |            |       |  1.32

Nlocal:             37 ave          37 max          37 min
Histogram: 1 0 0 0 0 0 0 0 0 0
Nghost:              0 ave           0 max           0 min
Histogram: 1 0 0 0 0 0 0 0 0 0
Neighs:            594 ave         594 max         594 min
Histogram: 1 0 0 0 0 0 0 0 0 0

Total # of neighbors = 594
Ave neighs/atom = 16.054054
Neighbor list builds = 5
Dangerous builds = 0
Total wall time: 0:00:01
