LAMMPS (15 Sep 2022)
OMP_NUM_THREADS environment is not set. Defaulting to 1 thread. (src/comm.cpp:98)
  using 1 OpenMP thread(s) per MPI task
Loaded 1 plugins from C:\Users\becat\AppData\Local\LAMMPS 64-bit 15Sep2022\plugins
Lattice spacing in x,y,z = 4.079 4.079 4.079
Created orthogonal box = (0 0 0) to (40.79 40.79 40.79)
  1 by 1 by 1 MPI processor grid
Read molecule template np:
  1 molecules
  0 fragments
  1103 atoms with max type 1
  0 bonds with max type 0
  0 angles with max type 0
  0 dihedrals with max type 0
  0 impropers with max type 0
Created 1103 atoms
  using lattice units in orthogonal box = (3.9711047 3.0711613 4.6877004) to (35.34845 37.647987 36.1023)
  create_atoms CPU = 0.000 seconds
Neighbor list info ...
  update: every = 1 steps, delay = 10 steps, check = yes
  max neighbors/atom: 2000, page size: 100000
  master list distance cutoff = 7.55
  ghost atom cutoff = 7.55
  binsize = 3.775, bins = 9 10 9
  1 neighbor lists, perpetual/occasional/extra = 1 0 0
  (1) pair eam, perpetual
      attributes: half, newton on
      pair build: half/bin/atomonly/newton
      stencil: half/bin/3d
      bin: standard
Setting up Verlet run ...
  Unit style    : metal
  Current step  : 0
  Time step     : 0.001
Per MPI rank memory allocation (min/avg/max) = 4.603 | 4.603 | 4.603 Mbytes
   Step          Temp          PotEng         KinEng         TotEng         Volume    
         0   300           -4112.1419      42.733404     -4069.4085      34082.61     
      1000   237.37557     -4103.1599      33.812887     -4069.3471      34082.61     
      2000   242.77151     -4103.7442      34.58151      -4069.1627      34082.61     
      3000   264.86542     -4106.5875      37.728671     -4068.8588      34082.61     
      4000   255.13091     -4104.8006      36.342041     -4068.4585      34082.61     
      5000   256.96493     -4104.6126      36.603287     -4068.0093      34082.61     
      6000   252.44096     -4103.5241      35.958871     -4067.5652      34082.61     
      7000   261.78756     -4104.4539      37.290245     -4067.1636      34082.61     
      8000   254.31492     -4103.0264      36.225807     -4066.8006      34082.61     
      9000   258.89291     -4103.327       36.877917     -4066.4491      34082.61     
     10000   261.63229     -4103.359       37.268128     -4066.0909      34082.61     
     11000   267.20798     -4103.7747      38.062355     -4065.7123      34082.61     
     12000   259.95422     -4102.3358      37.029096     -4065.3067      34082.61     
     13000   253.89857     -4101.0415      36.166501     -4064.875       34082.61     
     14000   264.91836     -4102.1615      37.736211     -4064.4253      34082.61     
     15000   261.994       -4101.2834      37.319651     -4063.9637      34082.61     
     16000   274.34564     -4102.5723      39.079077     -4063.4932      34082.61     
     17000   274.10072     -4102.0665      39.04419      -4063.0224      34082.61     
     18000   269.87047     -4100.9923      38.441613     -4062.5507      34082.61     
     19000   271.46627     -4100.7498      38.668926     -4062.0808      34082.61     
     20000   275.8847      -4100.9124      39.298308     -4061.6141      34082.61     
     21000   268.59286     -4099.4079      38.259624     -4061.1482      32314.723    
     22000   277.31515     -4100.1855      39.502067     -4060.6835      32314.723    
     23000   278.39805     -4099.8806      39.656321     -4060.2243      32314.723    
     24000   268.94834     -4098.0786      38.31026      -4059.7683      32314.723    
     25000   278.34763     -4098.9625      39.649139     -4059.3134      32314.723    
     26000   282.72763     -4099.139       40.273047     -4058.8659      32314.723    
     27000   285.2649      -4099.0585      40.634468     -4058.424       32314.723    
     28000   286.05668     -4098.7349      40.747252     -4057.9876      32277.752    
     29000   284.53188     -4098.0912      40.530053     -4057.5611      32277.752    
     30000   290.13298     -4098.4689      41.3279       -4057.141       32277.752    
     31000   285.80574     -4097.4424      40.711507     -4056.7308      32277.752    
     32000   301.63084     -4099.2956      42.965709     -4056.3299      32277.752    
     33000   289.64916     -4097.1979      41.258981     -4055.9389      32277.752    
     34000   301.84457     -4098.5543      42.996153     -4055.5581      32277.752    
     35000   291.25996     -4096.6792      41.488432     -4055.1908      32277.752    
     36000   291.88857     -4096.412       41.577973     -4054.834       32277.752    
     37000   303.52931     -4097.7251      43.236135     -4054.489       32098.383    
     38000   289.65494     -4095.4186      41.259806     -4054.1588      32098.383    
     39000   302.24875     -4096.8958      43.053727     -4053.8421      32098.383    
     40000   303.55256     -4096.7788      43.239447     -4053.5394      32098.383    
     41000   295.04503     -4095.2799      42.027595     -4053.2523      32091.893    
     42000   308.41701     -4096.912       43.932362     -4052.9796      31556.596    
     43000   296.09584     -4094.8993      42.177277     -4052.7221      31556.596    
     44000   304.47665     -4095.8547      43.371079     -4052.4836      31548.76     
     45000   303.10251     -4095.4365      43.175339     -4052.2612      32261.378    
     46000   315.40033     -4096.9861      44.927099     -4052.059       32261.378    
     47000   301.40322     -4094.8106      42.933286     -4051.8774      31997.185    
     48000   311.76122     -4096.1246      44.408728     -4051.7159      31702.181    
     49000   307.49058     -4095.3758      43.800397     -4051.5755      32246.063    
     50000   308.98462     -4095.4703      44.013215     -4051.4571      31611.604    
Loop time of 65.2358 on 1 procs for 50000 steps with 1103 atoms

Performance: 66.221 ns/day, 0.362 hours/ns, 766.451 timesteps/s
99.9% CPU use with 1 MPI tasks x 1 OpenMP threads

MPI task timing breakdown:
Section |  min time  |  avg time  |  max time  |%varavg| %total
---------------------------------------------------------------
Pair    | 63.889     | 63.889     | 63.889     |   0.0 | 97.93
Neigh   | 0.024069   | 0.024069   | 0.024069   |   0.0 |  0.04
Comm    | 0.007649   | 0.007649   | 0.007649   |   0.0 |  0.01
Output  | 0.17724    | 0.17724    | 0.17724    |   0.0 |  0.27
Modify  | 0.95935    | 0.95935    | 0.95935    |   0.0 |  1.47
Other   |            | 0.1789     |            |       |  0.27

Nlocal:           1103 ave        1103 max        1103 min
Histogram: 1 0 0 0 0 0 0 0 0 0
Nghost:              0 ave           0 max           0 min
Histogram: 1 0 0 0 0 0 0 0 0 0
Neighs:          43086 ave       43086 max       43086 min
Histogram: 1 0 0 0 0 0 0 0 0 0

Total # of neighbors = 43086
Ave neighs/atom = 39.062557
Neighbor list builds = 17
Dangerous builds = 0
Total wall time: 0:01:05
