LAMMPS (15 Sep 2022)
OMP_NUM_THREADS environment is not set. Defaulting to 1 thread. (src/comm.cpp:98)
  using 1 OpenMP thread(s) per MPI task
Loaded 1 plugins from C:\Users\becat\AppData\Local\LAMMPS 64-bit 15Sep2022\plugins
Lattice spacing in x,y,z = 4.079 4.079 4.079
Created orthogonal box = (0 0 0) to (40.79 40.79 40.79)
  1 by 1 by 1 MPI processor grid
Read molecule template np:
  1 molecules
  0 fragments
  39 atoms with max type 1
  0 bonds with max type 0
  0 angles with max type 0
  0 dihedrals with max type 0
  0 impropers with max type 0
Created 39 atoms
  using lattice units in orthogonal box = (15.609644 16.703343 16.373911) to (24.733424 24.174737 25.008778)
  create_atoms CPU = 0.000 seconds
Neighbor list info ...
  update: every = 1 steps, delay = 10 steps, check = yes
  max neighbors/atom: 2000, page size: 100000
  master list distance cutoff = 7.55
  ghost atom cutoff = 7.55
  binsize = 3.775, bins = 3 2 3
  1 neighbor lists, perpetual/occasional/extra = 1 0 0
  (1) pair eam, perpetual
      attributes: half, newton on
      pair build: half/bin/atomonly/newton
      stencil: half/bin/3d
      bin: standard
Setting up Verlet run ...
  Unit style    : metal
  Current step  : 0
  Time step     : 0.001
Per MPI rank memory allocation (min/avg/max) = 4.537 | 4.537 | 4.537 Mbytes
   Step          Temp          PotEng         KinEng         TotEng         Volume    
         0   300           -130.37939      1.4735657     -128.90583      588.61602    
      1000   237.49163     -130.06961      1.1665317     -128.90308      588.61602    
      2000   252.61595     -130.1361       1.2408206     -128.89528      551.37543    
      3000   262.37928     -130.17297      1.288777      -128.8842       551.37543    
      4000   269.10238     -130.19153      1.3218001     -128.86973      551.37543    
      5000   297.77028     -130.31346      1.4626135     -128.85085      551.37543    
      6000   303.54743     -130.31906      1.4909902     -128.82807      551.37543    
      7000   233.01227     -129.94605      1.1445296     -128.80152      551.37543    
      8000   273.06215     -130.11278      1.34125       -128.77153      551.37543    
      9000   270.90637     -130.06579      1.330661      -128.73513      551.37543    
     10000   248.35508     -129.91571      1.2198917     -128.69582      551.37543    
     11000   218.07468     -129.72385      1.0711579     -128.65269      551.37543    
     12000   300.67705     -130.08386      1.4768912     -128.60697      551.37543    
     13000   245.23824     -129.76501      1.2045822     -128.56043      551.37543    
     14000   250.20554     -129.74262      1.228981      -128.51363      551.37543    
     15000   299.73732     -129.94034      1.4722754     -128.46807      551.37543    
     16000   316.37881     -129.98101      1.5540165     -128.427        547.05833    
     17000   318.12307     -129.95248      1.5625841     -128.3899       553.67018    
     18000   287.17734     -129.76789      1.4105822     -128.35731      561.46728    
     19000   367.27441     -130.13457      1.8040098     -128.33056      561.46728    
     20000   273.85646     -129.65459      1.3451516     -128.30944      561.46728    
     21000   383.18336     -130.17557      1.8821528     -128.29342      561.46728    
     22000   250.63309     -129.51264      1.231081      -128.28156      561.46728    
     23000   271.98412     -129.60923      1.3359549     -128.27327      561.46728    
     24000   329.26693     -129.88586      1.6173214     -128.26854      561.46728    
     25000   372.50662     -130.0955       1.8297099     -128.26579      561.46728    
     26000   281.29915     -129.64725      1.3817092     -128.26554      561.46728    
     27000   338.47856     -129.92966      1.662568      -128.26709      561.46728    
     28000   341.37652     -129.94737      1.6768024     -128.27057      561.46728    
     29000   326.24756     -129.8783       1.6024907     -128.2758       561.46728    
     30000   310.51044     -129.80749      1.5251917     -128.2823       561.46728    
     31000   382.4085      -130.16847      1.8783468     -128.29012      561.46728    
     32000   338.84889     -129.96394      1.664387      -128.29956      561.46728    
     33000   278.13201     -129.67641      1.3661526     -128.31026      561.46728    
     34000   350.17499     -130.042        1.7200195     -128.32198      561.46728    
     35000   327.75415     -129.94445      1.6098908     -128.33456      561.46728    
     36000   341.4477      -130.02568      1.677152      -128.34853      561.46728    
     37000   275.02942     -129.71416      1.350913      -128.36325      587.48305    
     38000   276.69358     -129.73601      1.3590872     -128.37693      523.2041     
     39000   312.88085     -129.92888      1.5368349     -128.39205      523.2041     
     40000   260.18399     -129.68626      1.277994      -128.40827      543.92002    
     41000   317.59863     -129.98508      1.5600081     -128.42508      543.92002    
     42000   302.57889     -129.9294       1.4862328     -128.44317      543.92002    
     43000   297.10554     -129.92131      1.4593484     -128.46196      543.92002    
     44000   292.19048     -129.91731      1.4352062     -128.4821       543.92002    
     45000   313.85385     -130.04449      1.5416142     -128.50288      543.92002    
     46000   281.93135     -129.909        1.3848145     -128.52419      543.92002    
     47000   283.15432     -129.93745      1.3908216     -128.54663      556.0377     
     48000   264.86483     -129.87113      1.3009857     -128.57014      556.0377     
     49000   277.43898     -129.95787      1.3627485     -128.59513      556.0377     
     50000   338.67841     -130.28449      1.6635496     -128.62094      556.0377     
Loop time of 1.39785 on 1 procs for 50000 steps with 39 atoms

Performance: 3090.465 ns/day, 0.008 hours/ns, 35769.268 timesteps/s
100.6% CPU use with 1 MPI tasks x 1 OpenMP threads

MPI task timing breakdown:
Section |  min time  |  avg time  |  max time  |%varavg| %total
---------------------------------------------------------------
Pair    | 1.2767     | 1.2767     | 1.2767     |   0.0 | 91.33
Neigh   | 0.000113   | 0.000113   | 0.000113   |   0.0 |  0.01
Comm    | 0.00619    | 0.00619    | 0.00619    |   0.0 |  0.44
Output  | 0.012183   | 0.012183   | 0.012183   |   0.0 |  0.87
Modify  | 0.08465    | 0.08465    | 0.08465    |   0.0 |  6.06
Other   |            | 0.01799    |            |       |  1.29

Nlocal:             39 ave          39 max          39 min
Histogram: 1 0 0 0 0 0 0 0 0 0
Nghost:              0 ave           0 max           0 min
Histogram: 1 0 0 0 0 0 0 0 0 0
Neighs:            658 ave         658 max         658 min
Histogram: 1 0 0 0 0 0 0 0 0 0

Total # of neighbors = 658
Ave neighs/atom = 16.871795
Neighbor list builds = 9
Dangerous builds = 0
Total wall time: 0:00:01
