LAMMPS (15 Sep 2022)
OMP_NUM_THREADS environment is not set. Defaulting to 1 thread. (src/comm.cpp:98)
  using 1 OpenMP thread(s) per MPI task
Loaded 1 plugins from C:\Users\becat\AppData\Local\LAMMPS 64-bit 15Sep2022\plugins
Lattice spacing in x,y,z = 4.079 4.079 4.079
Created orthogonal box = (0 0 0) to (40.79 40.79 40.79)
  1 by 1 by 1 MPI processor grid
Read molecule template np:
  1 molecules
  0 fragments
  35 atoms with max type 1
  0 bonds with max type 0
  0 angles with max type 0
  0 dihedrals with max type 0
  0 impropers with max type 0
Created 35 atoms
  using lattice units in orthogonal box = (16.559741 16.650661 16.061378) to (24.7221 24.843626 24.105865)
  create_atoms CPU = 0.000 seconds
Neighbor list info ...
  update: every = 1 steps, delay = 10 steps, check = yes
  max neighbors/atom: 2000, page size: 100000
  master list distance cutoff = 7.55
  ghost atom cutoff = 7.55
  binsize = 3.775, bins = 3 3 3
  1 neighbor lists, perpetual/occasional/extra = 1 0 0
  (1) pair eam, perpetual
      attributes: half, newton on
      pair build: half/bin/atomonly/newton
      stencil: half/bin/3d
      bin: standard
Setting up Verlet run ...
  Unit style    : metal
  Current step  : 0
  Time step     : 0.001
Per MPI rank memory allocation (min/avg/max) = 4.537 | 4.537 | 4.537 Mbytes
   Step          Temp          PotEng         KinEng         TotEng         Volume    
         0   300           -117.16403      1.3184535     -115.84557      537.96638    
      1000   195.30558     -116.7011       0.85833775    -115.84277      537.96638    
      2000   220.72656     -116.80377      0.97005901    -115.83371      537.96638    
      3000   210.09512     -116.74243      0.92333547    -115.8191       537.96638    
      4000   223.63885     -116.78058      0.98285807    -115.79772      537.96638    
      5000   184.70301     -116.58269      0.81174108    -115.77095      537.96638    
      6000   223.33531     -116.71853      0.98152405    -115.737        537.96638    
      7000   197.56167     -116.56629      0.86825291    -115.69804      537.96638    
      8000   202.79498     -116.54651      0.8912525     -115.65526      537.96638    
      9000   242.75279     -116.67835      1.0668609     -115.61149      537.96638    
     10000   222.45254     -116.54585      0.9776444     -115.56821      537.96638    
     11000   225.06064     -116.51638      0.98910662    -115.52727      537.96638    
     12000   221.1372      -116.46193      0.97186371    -115.49007      537.96638    
     13000   238.80624     -116.50645      1.0495164     -115.45694      537.96638    
     14000   251.75689     -116.5339       1.1064325     -115.42746      537.96638    
     15000   241.20313     -116.46007      1.0600504     -115.40002      537.96638    
     16000   244.44974     -116.44817      1.0743187     -115.37386      537.96638    
     17000   260.51337     -116.49367      1.1449158     -115.34876      537.96638    
     18000   262.97159     -116.47898      1.1557194     -115.32326      537.96638    
     19000   283.12301     -116.5413       1.2442817     -115.29702      537.96638    
     20000   288.79545     -116.53998      1.2692112     -115.27077      537.96638    
     21000   290.52394     -116.51901      1.2768076     -115.2422       537.96638    
     22000   264.72154     -116.37631      1.1634101     -115.2129       537.96638    
     23000   304.54933     -116.52155      1.3384471     -115.1831       515.72319    
     24000   251.38785     -116.25592      1.1048106     -115.15111      515.72319    
     25000   304.45007     -116.45684      1.3380108     -115.11883      515.72319    
     26000   287.2883      -116.34935      1.2625875     -115.08676      515.72319    
     27000   313.44466     -116.43184      1.3775407     -115.05429      515.72319    
     28000   249.13133     -116.11629      1.0948936     -115.02139      515.72319    
     29000   261.91935     -116.1407       1.1510949     -114.98961      518.97569    
     30000   253.77499     -116.07442      1.1153017     -114.95912      518.97569    
     31000   237.30969     -115.97197      1.0429393     -114.92903      518.97569    
     32000   390.0224      -116.61255      1.714088      -114.89846      518.97569    
     33000   277.13772     -116.08634      1.2179773     -114.86837      518.97569    
     34000   299.87635     -116.15698      1.3179101     -114.83907      518.97569    
     35000   325.21121     -116.24107      1.4292528     -114.81181      518.97569    
     36000   273.98161     -115.99002      1.2041067     -114.78592      518.97569    
     37000   330.71009     -116.2137       1.4534196     -114.76028      518.97569    
     38000   327.32134     -116.17486      1.4385265     -114.73634      587.98831    
     39000   315.89592     -116.10109      1.3883136     -114.71278      592.42854    
     40000   318.99703     -116.09221      1.4019425     -114.69027      563.63189    
     41000   351.0902      -116.21273      1.542987      -114.66974      559.30982    
     42000   285.84853     -115.90698      1.2562599     -114.65072      559.30982    
     43000   345.42273     -116.15138      1.5180793     -114.6333       559.30982    
     44000   297.00174     -115.92269      1.3052766     -114.61742      526.38403    
     45000   380.18742     -116.27536      1.6708648     -114.6045       526.38403    
     46000   374.96519     -116.2427       1.6479138     -114.59478      526.38403    
     47000   355.88529     -116.15265      1.5640607     -114.58859      526.38403    
     48000   345.63288     -116.10471      1.5190029     -114.5857       526.38403    
     49000   318.89606     -115.98847      1.4014987     -114.58697      494.6852     
     50000   314.35186     -115.97232      1.3815277     -114.59079      494.6852     
Loop time of 1.06596 on 1 procs for 50000 steps with 35 atoms

Performance: 4052.685 ns/day, 0.006 hours/ns, 46906.075 timesteps/s
96.7% CPU use with 1 MPI tasks x 1 OpenMP threads

MPI task timing breakdown:
Section |  min time  |  avg time  |  max time  |%varavg| %total
---------------------------------------------------------------
Pair    | 0.95527    | 0.95527    | 0.95527    |   0.0 | 89.62
Neigh   | 0.000151   | 0.000151   | 0.000151   |   0.0 |  0.01
Comm    | 0.005805   | 0.005805   | 0.005805   |   0.0 |  0.54
Output  | 0.009511   | 0.009511   | 0.009511   |   0.0 |  0.89
Modify  | 0.077085   | 0.077085   | 0.077085   |   0.0 |  7.23
Other   |            | 0.01814    |            |       |  1.70

Nlocal:             35 ave          35 max          35 min
Histogram: 1 0 0 0 0 0 0 0 0 0
Nghost:              0 ave           0 max           0 min
Histogram: 1 0 0 0 0 0 0 0 0 0
Neighs:            536 ave         536 max         536 min
Histogram: 1 0 0 0 0 0 0 0 0 0

Total # of neighbors = 536
Ave neighs/atom = 15.314286
Neighbor list builds = 11
Dangerous builds = 0
Total wall time: 0:00:01
