LAMMPS (15 Sep 2022)
OMP_NUM_THREADS environment is not set. Defaulting to 1 thread. (src/comm.cpp:98)
  using 1 OpenMP thread(s) per MPI task
Loaded 1 plugins from C:\Users\becat\AppData\Local\LAMMPS 64-bit 15Sep2022\plugins
Lattice spacing in x,y,z = 4.079 4.079 4.079
Created orthogonal box = (0 0 0) to (40.79 40.79 40.79)
  1 by 1 by 1 MPI processor grid
Read molecule template np:
  1 molecules
  0 fragments
  92 atoms with max type 1
  0 bonds with max type 0
  0 angles with max type 0
  0 dihedrals with max type 0
  0 impropers with max type 0
Created 92 atoms
  using lattice units in orthogonal box = (14.357366 12.758279 15.680266) to (26.260535 27.604085 25.361081)
  create_atoms CPU = 0.000 seconds
Neighbor list info ...
  update: every = 1 steps, delay = 10 steps, check = yes
  max neighbors/atom: 2000, page size: 100000
  master list distance cutoff = 7.55
  ghost atom cutoff = 7.55
  binsize = 3.775, bins = 4 4 3
  1 neighbor lists, perpetual/occasional/extra = 1 0 0
  (1) pair eam, perpetual
      attributes: half, newton on
      pair build: half/bin/atomonly/newton
      stencil: half/bin/3d
      bin: standard
Setting up Verlet run ...
  Unit style    : metal
  Current step  : 0
  Time step     : 0.001
Per MPI rank memory allocation (min/avg/max) = 4.54 | 4.54 | 4.54 Mbytes
   Step          Temp          PotEng         KinEng         TotEng         Volume    
         0   300           -323.21947      3.528802      -319.69067      1710.7177    
      1000   165.53362     -321.62949      1.9471179     -319.68237      1710.7177    
      2000   177.22933     -321.74093      2.0846907     -319.65624      1710.7177    
      3000   174.22394     -321.66156      2.0493392     -319.61222      1673.1393    
      4000   190.87267     -321.79694      2.2451728     -319.55177      1673.1393    
      5000   194.19279     -321.76189      2.2842263     -319.47766      1673.1393    
      6000   164.72303     -321.33326      1.9375831     -319.39568      1673.1393    
      7000   190.96873     -321.56001      2.2463028     -319.31371      1673.1393    
      8000   203.73534     -321.6325       2.3964722     -319.23603      1673.1393    
      9000   207.07932     -321.60207      2.4358064     -319.16626      1673.1393    
     10000   195.4473      -321.40069      2.2989828     -319.10171      1673.1393    
     11000   196.49345     -321.34982      2.3112882     -319.03854      1673.1393    
     12000   191.67091     -321.2296       2.2545623     -318.97504      1673.1393    
     13000   188.2937      -321.1229       2.2148372     -318.90806      1673.1393    
     14000   240.13189     -321.66161      2.8245929     -318.83702      1673.1393    
     15000   212.70206     -321.26289      2.5019448     -318.76095      1673.1393    
     16000   215.56993     -321.21641      2.5356786     -318.68073      1673.1393    
     17000   207.69454     -321.03959      2.4430429     -318.59655      1673.1393    
     18000   231.05203     -321.2275       2.7177895     -318.50971      1673.1393    
     19000   228.24037     -321.10446      2.6847169     -318.41974      1673.1393    
     20000   246.69158     -321.23096      2.9017524     -318.3292       1673.1393    
     21000   251.02361     -321.18972      2.9527086     -318.23701      1673.1393    
     22000   239.74977     -320.96514      2.8200982     -318.14504      1673.1393    
     23000   270.0609      -321.23057      3.1766381     -318.05393      1673.1393    
     24000   221.40835     -320.56699      2.6043541     -317.96264      1673.1393    
     25000   266.05695     -321.00005      3.129541      -317.87051      1673.1393    
     26000   238.2374      -320.58123      2.8023087     -317.77892      1673.1393    
     27000   273.94748     -320.91059      3.2223547     -317.68824      1673.1393    
     28000   299.38542     -321.11991      3.5215729     -317.59834      1673.1393    
     29000   280.68613     -320.81088      3.3016192     -317.50926      1673.1393    
     30000   303.95999     -320.99594      3.575382      -317.42056      1673.1393    
     31000   262.06643     -320.41653      3.0826018     -317.33393      1673.1393    
     32000   278.23545     -320.52038      3.2727927     -317.24759      1673.1393    
     33000   280.43498     -320.46433      3.298665      -317.16567      1673.1393    
     34000   301.33385     -320.62723      3.5444916     -317.08274      1673.1393    
     35000   266.22856     -320.13473      3.1315595     -317.00317      1673.1393    
     36000   270.28149     -320.10396      3.1792328     -316.92473      1673.1393    
     37000   310.41443     -320.50015      3.6513035     -316.84885      1673.1393    
     38000   308.01073     -320.39862      3.6230295     -316.77559      1673.1393    
     39000   324.79713     -320.52435      3.8204825     -316.70387      1698.7011    
     40000   280.91163     -319.94032      3.3042717     -316.63605      1723.6242    
     41000   321.97289     -320.35947      3.7872619     -316.57221      1723.6242    
     42000   304.96082     -320.09851      3.5871544     -316.51135      1723.6242    
     43000   303.74772     -320.02702      3.5728852     -316.45414      1723.6242    
     44000   310.20434     -320.05043      3.6488322     -316.4016       1723.6242    
     45000   306.73032     -319.96035      3.6079686     -316.35238      1723.6242    
     46000   319.33078     -320.06526      3.7561836     -316.30907      1758.7055    
     47000   267.21956     -319.41269      3.1432164     -316.26948      1665.181     
     48000   277.07402     -319.49404      3.2591312     -316.23491      1765.5799    
     49000   314.3553      -319.90182      3.6976586     -316.20416      1765.5799    
     50000   304.25399     -319.75851      3.5788402     -316.17967      1765.5799    
Loop time of 3.19451 on 1 procs for 50000 steps with 92 atoms

Performance: 1352.322 ns/day, 0.018 hours/ns, 15651.877 timesteps/s
100.3% CPU use with 1 MPI tasks x 1 OpenMP threads

MPI task timing breakdown:
Section |  min time  |  avg time  |  max time  |%varavg| %total
---------------------------------------------------------------
Pair    | 3.0486     | 3.0486     | 3.0486     |   0.0 | 95.43
Neigh   | 0.000304   | 0.000304   | 0.000304   |   0.0 |  0.01
Comm    | 0.005007   | 0.005007   | 0.005007   |   0.0 |  0.16
Output  | 0.016489   | 0.016489   | 0.016489   |   0.0 |  0.52
Modify  | 0.10315    | 0.10315    | 0.10315    |   0.0 |  3.23
Other   |            | 0.021      |            |       |  0.66

Nlocal:             92 ave          92 max          92 min
Histogram: 1 0 0 0 0 0 0 0 0 0
Nghost:              0 ave           0 max           0 min
Histogram: 1 0 0 0 0 0 0 0 0 0
Neighs:           2238 ave        2238 max        2238 min
Histogram: 1 0 0 0 0 0 0 0 0 0

Total # of neighbors = 2238
Ave neighs/atom = 24.326087
Neighbor list builds = 7
Dangerous builds = 0
Total wall time: 0:00:03
