LAMMPS (15 Sep 2022)
OMP_NUM_THREADS environment is not set. Defaulting to 1 thread. (src/comm.cpp:98)
  using 1 OpenMP thread(s) per MPI task
Loaded 1 plugins from C:\Users\becat\AppData\Local\LAMMPS 64-bit 15Sep2022\plugins
Lattice spacing in x,y,z = 4.079 4.079 4.079
Created orthogonal box = (0 0 0) to (40.79 40.79 40.79)
  1 by 1 by 1 MPI processor grid
Read molecule template np:
  1 molecules
  0 fragments
  35 atoms with max type 1
  0 bonds with max type 0
  0 angles with max type 0
  0 dihedrals with max type 0
  0 impropers with max type 0
Created 35 atoms
  using lattice units in orthogonal box = (16.519392 16.044788 16.022231) to (24.125218 23.75157 24.831744)
  create_atoms CPU = 0.000 seconds
Neighbor list info ...
  update: every = 1 steps, delay = 10 steps, check = yes
  max neighbors/atom: 2000, page size: 100000
  master list distance cutoff = 7.55
  ghost atom cutoff = 7.55
  binsize = 3.775, bins = 3 3 3
  1 neighbor lists, perpetual/occasional/extra = 1 0 0
  (1) pair eam, perpetual
      attributes: half, newton on
      pair build: half/bin/atomonly/newton
      stencil: half/bin/3d
      bin: standard
Setting up Verlet run ...
  Unit style    : metal
  Current step  : 0
  Time step     : 0.001
Per MPI rank memory allocation (min/avg/max) = 4.537 | 4.537 | 4.537 Mbytes
   Step          Temp          PotEng         KinEng         TotEng         Volume    
         0   300           -117.26217      1.3184535     -115.94371      516.38229    
      1000   196.17667     -116.80286      0.86216604    -115.9407       516.38229    
      2000   181.76041     -116.7302       0.79880883    -115.93139      516.38229    
      3000   182.17674     -116.71733      0.80063851    -115.9167       516.38229    
      4000   208.14659     -116.80998      0.91477197    -115.8952       516.38229    
      5000   209.83749     -116.78953      0.92220321    -115.86732      516.38229    
      6000   212.39629     -116.76658      0.93344876    -115.83313      516.38229    
      7000   237.55905     -116.83789      1.0440352     -115.79386      516.38229    
      8000   209.19448     -116.6708       0.91937728    -115.75143      516.38229    
      9000   208.72733     -116.62378      0.91732427    -115.70646      516.38229    
     10000   248.81429     -116.75648      1.0935002     -115.66298      516.38229    
     11000   214.79224     -116.56708      0.94397859    -115.6231       516.38229    
     12000   256.17421     -116.71258      1.1258459     -115.58674      516.38229    
     13000   243.16915     -116.62293      1.0686907     -115.55424      509.32816    
     14000   211.39759     -116.45396      0.92905964    -115.5249       509.32816    
     15000   259.01648     -116.63576      1.1383373     -115.49742      509.32816    
     16000   274.14044     -116.67604      1.2048047     -115.47123      509.32816    
     17000   242.77072     -116.51237      1.0669397     -115.44543      509.32816    
     18000   272.26361     -116.61637      1.1965564     -115.41981      509.32816    
     19000   280.98537     -116.62817      1.2348871     -115.39329      509.32816    
     20000   242.332       -116.43089      1.0650116     -115.36588      509.32816    
     21000   274.18744     -116.54249      1.2050113     -115.33748      509.32816    
     22000   280.41563     -116.54088      1.2323832     -115.30849      531.161      
     23000   253.93654     -116.39396      1.1160117     -115.27795      531.161      
     24000   278.91242     -116.47224      1.2257768     -115.24646      531.161      
     25000   254.26547     -116.33187      1.1174573     -115.21441      531.161      
     26000   267.33491     -116.35682      1.1748955     -115.18192      531.161      
     27000   251.13703     -116.25243      1.1037083     -115.14872      531.161      
     28000   336.27868     -116.59365      1.4778927     -115.11576      531.161      
     29000   274.22451     -116.28846      1.2051742     -115.08328      531.161      
     30000   253.64554     -116.16686      1.1147328     -115.05213      517.70318    
     31000   388.49476     -116.72727      1.7073742     -115.0199       496.79678    
     32000   321.85234     -116.40235      1.4144911     -114.98786      496.79678    
     33000   330.38092     -116.40996      1.4519729     -114.95799      496.79678    
     34000   362.30323     -116.52121      1.5922665     -114.92894      496.79678    
     35000   332.92821     -116.36518      1.4631679     -114.90202      496.79678    
     36000   366.99587     -116.48966      1.6128899     -114.87677      496.79678    
     37000   337.31209     -116.33536      1.4824343     -114.85292      496.79678    
     38000   239.63552     -115.88474      1.0531609     -114.83158      496.79678    
     39000   360.1051      -116.39457      1.5826061     -114.81197      517.20488    
     40000   284.72766     -116.04404      1.2513339     -114.7927       517.20488    
     41000   332.83555     -116.23734      1.4627606     -114.77458      484.63085    
     42000   330.40479     -116.21012      1.4520778     -114.75804      484.63085    
     43000   295.35568     -116.03987      1.2980424     -114.74183      513.67216    
     44000   287.66877     -115.99257      1.2642596     -114.72831      513.67216    
     45000   310.49306     -116.08179      1.3645688     -114.71722      540.7876     
     46000   371.54877     -116.34079      1.6328992     -114.70789      540.7876     
     47000   335.74636     -116.17669      1.4755532     -114.70113      517.56357    
     48000   323.26562     -116.11808      1.4207023     -114.69738      517.56357    
     49000   340.68185     -116.1941       1.4972439     -114.69686      517.56357    
     50000   334.79772     -116.1712       1.4713841     -114.69981      517.56357    
Loop time of 1.05882 on 1 procs for 50000 steps with 35 atoms

Performance: 4079.998 ns/day, 0.006 hours/ns, 47222.201 timesteps/s
97.4% CPU use with 1 MPI tasks x 1 OpenMP threads

MPI task timing breakdown:
Section |  min time  |  avg time  |  max time  |%varavg| %total
---------------------------------------------------------------
Pair    | 0.9556     | 0.9556     | 0.9556     |   0.0 | 90.25
Neigh   | 9.3e-05    | 9.3e-05    | 9.3e-05    |   0.0 |  0.01
Comm    | 0.005207   | 0.005207   | 0.005207   |   0.0 |  0.49
Output  | 0.008903   | 0.008903   | 0.008903   |   0.0 |  0.84
Modify  | 0.073964   | 0.073964   | 0.073964   |   0.0 |  6.99
Other   |            | 0.01506    |            |       |  1.42

Nlocal:             35 ave          35 max          35 min
Histogram: 1 0 0 0 0 0 0 0 0 0
Nghost:              0 ave           0 max           0 min
Histogram: 1 0 0 0 0 0 0 0 0 0
Neighs:            534 ave         534 max         534 min
Histogram: 1 0 0 0 0 0 0 0 0 0

Total # of neighbors = 534
Ave neighs/atom = 15.257143
Neighbor list builds = 9
Dangerous builds = 0
Total wall time: 0:00:01
