LAMMPS (15 Sep 2022)
OMP_NUM_THREADS environment is not set. Defaulting to 1 thread. (src/comm.cpp:98)
  using 1 OpenMP thread(s) per MPI task
Loaded 1 plugins from C:\Users\becat\AppData\Local\LAMMPS 64-bit 15Sep2022\plugins
Lattice spacing in x,y,z = 4.079 4.079 4.079
Created orthogonal box = (0 0 0) to (40.79 40.79 40.79)
  1 by 1 by 1 MPI processor grid
Read molecule template np:
  1 molecules
  0 fragments
  92 atoms with max type 1
  0 bonds with max type 0
  0 angles with max type 0
  0 dihedrals with max type 0
  0 impropers with max type 0
Created 92 atoms
  using lattice units in orthogonal box = (10.137003 8.6182471 9.0714753) to (27.185206 30.627706 31.918435)
  create_atoms CPU = 0.000 seconds
Neighbor list info ...
  update: every = 1 steps, delay = 10 steps, check = yes
  max neighbors/atom: 2000, page size: 100000
  master list distance cutoff = 7.55
  ghost atom cutoff = 7.55
  binsize = 3.775, bins = 5 6 7
  1 neighbor lists, perpetual/occasional/extra = 1 0 0
  (1) pair eam, perpetual
      attributes: half, newton on
      pair build: half/bin/atomonly/newton
      stencil: half/bin/3d
      bin: standard
Setting up Verlet run ...
  Unit style    : metal
  Current step  : 0
  Time step     : 0.001
Per MPI rank memory allocation (min/avg/max) = 4.543 | 4.543 | 4.543 Mbytes
   Step          Temp          PotEng         KinEng         TotEng         Volume    
         0   300           -303.90304      3.528802      -300.37423      8572.6756    
      1000   289.80657     -303.77552      3.4089        -300.36662      7802.9942    
      2000   360.36973     -304.59084      4.2389114     -300.35193      6236.1959    
      3000   478.26287     -305.97923      5.6256498     -300.35358      4908.38      
      4000   434.02359     -305.51016      5.1052777     -300.40489      4465.1456    
      5000   510.37823     -306.53363      6.0034123     -300.53022      3590.0692    
      6000   574.79409     -307.51715      6.761115      -300.75604      3558.8785    
      7000   616.23237     -308.35403      7.24854       -301.10549      2949.4241    
      8000   663.0845      -309.32165      7.7996463     -301.52201      2925.8946    
      9000   708.183       -310.25223      8.3301252     -301.92211      2527.046     
     10000   611.91454     -309.52904      7.1977508     -302.33129      2209.2558    
     11000   697.8459      -310.95786      8.2085332     -302.74932      1985.9827    
     12000   657.59226     -310.94749      7.7350428     -303.21245      2012.5758    
     13000   628.79315     -311.15254      7.3962884     -303.75625      1805.7054    
     14000   768.81292     -313.37598      9.0432952     -304.33268      2020.2518    
     15000   664.3125      -312.74633      7.8140909     -304.93224      2203.9985    
     16000   575.6076      -312.26103      6.7706841     -305.49034      2097.5189    
     17000   582.13054     -312.87067      6.8474114     -306.02326      2164.9027    
     18000   568.6475      -313.23245      6.6888147     -306.54363      2138.3137    
     19000   607.70793     -314.20997      7.1482697     -307.06171      2020.7247    
     20000   606.68765     -314.70112      7.1362685     -307.56485      2119.2447    
     21000   546.5806      -314.49663      6.429249      -308.06738      2266.9991    
     22000   621.88881     -315.85078      7.3150748     -308.5357       2207.7786    
     23000   486.89449     -314.72516      5.7271808     -308.99798      1924.2565    
     24000   421.68582     -314.38387      4.9601525     -309.42372      1714.9493    
     25000   454.01883     -315.17501      5.3404751     -309.83454      1757.6607    
     26000   423.32945     -315.20468      4.9794859     -310.22519      1725.0224    
     27000   508.95141     -316.60523      5.9866292     -310.6186       1688.7993    
     28000   487.23115     -316.72814      5.7311408     -310.997        1618.0017    
     29000   413.65859     -316.22785      4.8657308     -311.36212      1699.4316    
     30000   471.06616     -317.26095      5.5409973     -311.71995      1619.9277    
     31000   411.08258     -316.87509      4.8354301     -312.03966      1619.9277    
     32000   397.69926     -317.02856      4.6780064     -312.35055      1694.7739    
     33000   432.4203      -317.73191      5.0864186     -312.64549      1626.6537    
     34000   339.6063      -316.92023      3.994678      -312.92555      1609.5225    
     35000   354.59754     -317.36071      4.171015      -313.1897       1622.498     
     36000   368.1786      -317.77036      4.3307645     -313.4396       1643.0713    
     37000   377.54118     -318.11514      4.4408935     -313.67425      1647.4453    
     38000   343.28763     -317.93436      4.0379803     -313.89638      1581.0141    
     39000   328.45415     -317.97017      3.8634988     -314.10667      1580.4112    
     40000   319.26913     -318.05608      3.7554584     -314.30062      1643.7221    
     41000   337.33327     -318.45143      3.967941      -314.48348      1540.7166    
     42000   333.40397     -318.57768      3.9217219     -314.65595      1624.7583    
     43000   268.39031     -317.97519      3.1569875     -314.8182       1711.2989    
     44000   312.01434     -318.64045      3.6701228     -314.97033      1681.8028    
     45000   259.3565      -318.16253      3.0507258     -315.11181      1681.8028    
     46000   291.39525     -318.67339      3.427587      -315.24581      1645.5779    
     47000   323.1365      -319.17687      3.8009491     -315.37593      1605.5599    
     48000   277.7453      -318.76761      3.2670272     -315.50058      1605.5599    
     49000   273.13787     -318.82814      3.2128315     -315.61531      1605.5599    
     50000   309.07945     -319.36004      3.6356005     -315.72444      1605.5599    
Loop time of 3.00578 on 1 procs for 50000 steps with 92 atoms

Performance: 1437.231 ns/day, 0.017 hours/ns, 16634.617 timesteps/s
100.3% CPU use with 1 MPI tasks x 1 OpenMP threads

MPI task timing breakdown:
Section |  min time  |  avg time  |  max time  |%varavg| %total
---------------------------------------------------------------
Pair    | 2.8508     | 2.8508     | 2.8508     |   0.0 | 94.84
Neigh   | 0.004616   | 0.004616   | 0.004616   |   0.0 |  0.15
Comm    | 0.005064   | 0.005064   | 0.005064   |   0.0 |  0.17
Output  | 0.016315   | 0.016315   | 0.016315   |   0.0 |  0.54
Modify  | 0.10659    | 0.10659    | 0.10659    |   0.0 |  3.55
Other   |            | 0.02241    |            |       |  0.75

Nlocal:             92 ave          92 max          92 min
Histogram: 1 0 0 0 0 0 0 0 0 0
Nghost:              0 ave           0 max           0 min
Histogram: 1 0 0 0 0 0 0 0 0 0
Neighs:           2241 ave        2241 max        2241 min
Histogram: 1 0 0 0 0 0 0 0 0 0

Total # of neighbors = 2241
Ave neighs/atom = 24.358696
Neighbor list builds = 116
Dangerous builds = 0
Total wall time: 0:00:03
