LAMMPS (15 Sep 2022)
OMP_NUM_THREADS environment is not set. Defaulting to 1 thread. (src/comm.cpp:98)
  using 1 OpenMP thread(s) per MPI task
Loaded 1 plugins from C:\Users\becat\AppData\Local\LAMMPS 64-bit 15Sep2022\plugins
Lattice spacing in x,y,z = 4.079 4.079 4.079
Created orthogonal box = (0 0 0) to (40.79 40.79 40.79)
  1 by 1 by 1 MPI processor grid
Read molecule template np:
  1 molecules
  0 fragments
  236 atoms with max type 1
  0 bonds with max type 0
  0 angles with max type 0
  0 dihedrals with max type 0
  0 impropers with max type 0
Created 236 atoms
  using lattice units in orthogonal box = (11.697092 10.781643 11.650258) to (28.926832 30.000356 29.289474)
  create_atoms CPU = 0.000 seconds
Neighbor list info ...
  update: every = 1 steps, delay = 10 steps, check = yes
  max neighbors/atom: 2000, page size: 100000
  master list distance cutoff = 7.55
  ghost atom cutoff = 7.55
  binsize = 3.775, bins = 5 6 5
  1 neighbor lists, perpetual/occasional/extra = 1 0 0
  (1) pair eam, perpetual
      attributes: half, newton on
      pair build: half/bin/atomonly/newton
      stencil: half/bin/3d
      bin: standard
Setting up Verlet run ...
  Unit style    : metal
  Current step  : 0
  Time step     : 0.001
Per MPI rank memory allocation (min/avg/max) = 4.55 | 4.55 | 4.55 Mbytes
   Step          Temp          PotEng         KinEng         TotEng         Volume    
         0   300           -844.74682      9.1128402     -835.63398      5840.9342    
      1000   380.75167     -847.22136      11.565764     -835.65559      5840.9342    
      2000   364.29161     -846.78134      11.065771     -835.71557      5840.9342    
      3000   377.33132     -847.27633      11.461867     -835.81446      5840.9342    
      4000   366.74978     -847.09002      11.14044      -835.94958      5840.9342    
      5000   338.78777     -846.407        10.291063     -836.11593      5840.9342    
      6000   339.60076     -846.61605      10.315758     -836.30029      5840.9342    
      7000   335.55537     -846.68905      10.192875     -836.49618      5840.9342    
      8000   360.80381     -847.6453       10.959825     -836.68548      5840.9342    
      9000   361.39773     -847.83882      10.977866     -836.86095      5840.9342    
     10000   335.30711     -847.20077      10.185334     -837.01544      5840.9342    
     11000   338.28909     -847.42675      10.275915     -837.15083      5840.9342    
     12000   338.97655     -847.56869      10.296797     -837.2719       5840.9342    
     13000   326.34733     -847.2951       9.9131702     -837.38193      5840.9342    
     14000   331.20716     -847.54825      10.060793     -837.48746      5840.9342    
     15000   330.33555     -847.62376      10.034317     -837.58944      5840.9342    
     16000   315.14322     -847.26491      9.5728328     -837.69208      5840.9342    
     17000   336.30418     -848.0113       10.215621     -837.79568      5840.9342    
     18000   325.79611     -847.79725      9.8964262     -837.90082      5840.9342    
     19000   317.40098     -847.65006      9.6414147     -838.00865      5840.9342    
     20000   331.31366     -848.1816       10.064028     -838.11757      5840.9342    
     21000   298.97509     -847.31133      9.0817073     -838.22962      5840.9342    
     22000   331.38095     -848.40693      10.066072     -838.34085      5840.9342    
     23000   331.13948     -848.50943      10.058737     -838.45069      5840.9342    
     24000   317.9293      -848.21711      9.6574632     -838.55964      5840.9342    
     25000   300.35407     -847.78937      9.1235955     -838.66578      5840.9342    
     26000   310.25275     -848.19372      9.424279      -838.76944      5840.9342    
     27000   316.10559     -848.47055      9.6020657     -838.86849      5840.9342    
     28000   319.9114      -848.68147      9.7176716     -838.9638       5840.9342    
     29000   297.22546     -848.0825       9.0285605     -839.05394      5840.9342    
     30000   294.40767     -848.08174      8.9429669     -839.13878      5840.9342    
     31000   285.86815     -847.90261      8.6835692     -839.21904      5840.9342    
     32000   307.32571     -848.62896      9.335367      -839.2936       5840.9342    
     33000   286.08795     -848.05233      8.6902459     -839.36208      5840.9342    
     34000   296.11511     -848.41941      8.9948322     -839.42458      5840.9342    
     35000   291.90166     -848.3486       8.8668439     -839.48175      5840.9342    
     36000   284.71555     -848.18078      8.6485578     -839.53222      5840.9342    
     37000   294.85849     -848.53473      8.9566612     -839.57807      5840.9342    
     38000   283.80485     -848.23918      8.6208942     -839.61829      5840.9342    
     39000   265.6464      -847.72183      8.0693108     -839.65252      5840.9342    
     40000   289.63178     -848.47872      8.7978937     -839.68083      5840.9342    
     41000   284.8588      -848.35651      8.6529092     -839.7036       5840.9342    
     42000   257.16796     -847.53224      7.8117683     -839.72047      5840.9342    
     43000   273.75374     -848.0466       8.3155802     -839.73102      5840.9342    
     44000   306.02569     -849.03088      9.2958775     -839.735        5840.9342    
     45000   280.06798     -848.23985      8.5073825     -839.73246      5840.9342    
     46000   277.50677     -848.15107      8.4295828     -839.72149      5840.9342    
     47000   271.33807     -847.94576      8.2422015     -839.70355      5840.9342    
     48000   270.73193     -847.90191      8.2237893     -839.67812      5840.9342    
     49000   287.3884      -848.37429      8.7297485     -839.64454      5840.9342    
     50000   295.46398     -848.57699      8.9750536     -839.60193      5840.9342    
Loop time of 14.2395 on 1 procs for 50000 steps with 236 atoms

Performance: 303.381 ns/day, 0.079 hours/ns, 3511.350 timesteps/s
99.7% CPU use with 1 MPI tasks x 1 OpenMP threads

MPI task timing breakdown:
Section |  min time  |  avg time  |  max time  |%varavg| %total
---------------------------------------------------------------
Pair    | 13.835     | 13.835     | 13.835     |   0.0 | 97.16
Neigh   | 0          | 0          | 0          |   0.0 |  0.00
Comm    | 0.008202   | 0.008202   | 0.008202   |   0.0 |  0.06
Output  | 0.049603   | 0.049603   | 0.049603   |   0.0 |  0.35
Modify  | 0.29005    | 0.29005    | 0.29005    |   0.0 |  2.04
Other   |            | 0.05691    |            |       |  0.40

Nlocal:            236 ave         236 max         236 min
Histogram: 1 0 0 0 0 0 0 0 0 0
Nghost:              0 ave           0 max           0 min
Histogram: 1 0 0 0 0 0 0 0 0 0
Neighs:           6839 ave        6839 max        6839 min
Histogram: 1 0 0 0 0 0 0 0 0 0

Total # of neighbors = 6839
Ave neighs/atom = 28.978814
Neighbor list builds = 0
Dangerous builds = 0
Total wall time: 0:00:14
