LAMMPS (15 Sep 2022)
OMP_NUM_THREADS environment is not set. Defaulting to 1 thread. (src/comm.cpp:98)
  using 1 OpenMP thread(s) per MPI task
Loaded 1 plugins from C:\Users\becat\AppData\Local\LAMMPS 64-bit 15Sep2022\plugins
Lattice spacing in x,y,z = 4.079 4.079 4.079
Created orthogonal box = (0 0 0) to (40.79 40.79 40.79)
  1 by 1 by 1 MPI processor grid
Read molecule template np:
  1 molecules
  0 fragments
  55 atoms with max type 1
  0 bonds with max type 0
  0 angles with max type 0
  0 dihedrals with max type 0
  0 impropers with max type 0
Created 55 atoms
  using lattice units in orthogonal box = (15.018165 15.128822 15.107411) to (25.771835 25.661178 25.682589)
  create_atoms CPU = 0.000 seconds
Neighbor list info ...
  update: every = 1 steps, delay = 10 steps, check = yes
  max neighbors/atom: 2000, page size: 100000
  master list distance cutoff = 7.55
  ghost atom cutoff = 7.55
  binsize = 3.775, bins = 3 3 3
  1 neighbor lists, perpetual/occasional/extra = 1 0 0
  (1) pair eam, perpetual
      attributes: half, newton on
      pair build: half/bin/atomonly/newton
      stencil: half/bin/3d
      bin: standard
Setting up Verlet run ...
  Unit style    : metal
  Current step  : 0
  Time step     : 0.001
Per MPI rank memory allocation (min/avg/max) = 4.538 | 4.538 | 4.538 Mbytes
   Step          Temp          PotEng         KinEng         TotEng         Volume    
         0   300           -177.75395      2.0940143     -175.65994      1197.7603    
      1000   932.30582     -182.30446      6.5075392     -175.79692      1197.7603    
      2000   859.02393     -182.15839      5.9960281     -176.16236      925.90545    
      3000   734.78259     -181.78846      5.1288176     -176.65964      943.90249    
      4000   770.28634     -182.50689      5.3766355     -177.13025      943.10107    
      5000   701.14996     -182.41568      4.8940603     -177.52162      943.57629    
      6000   628.3432      -182.26993      4.3858656     -177.88406      867.94671    
      7000   865.54544     -184.2963       6.0415486     -178.25475      977.7179     
      8000   739.96432     -183.79478      5.1649864     -178.62979      918.21569    
      9000   694.99025     -183.86428      4.8510652     -179.01322      931.81108    
     10000   599.03668     -183.54734      4.1813047     -179.36604      944.21426    
     11000   640.57508     -184.17979      4.4712447     -179.70854      894.38393    
     12000   506.12978     -183.57649      3.53281       -180.04368      965.28327    
     13000   520.17859     -183.99708      3.6308715     -180.3662       937.245      
     14000   591.10274     -184.80506      4.1259254     -180.67913      907.99661    
     15000   466.33332     -184.22931      3.2550289     -180.97428      943.70324    
     16000   622.31065     -185.59858      4.3437581     -181.25482      876.01637    
     17000   465.80099     -184.78115      3.2513132     -181.52984      958.27564    
     18000   471.88411     -185.08293      3.2937737     -181.78915      1028.7927    
     19000   501.7614      -185.55689      3.5023186     -182.05457      1006.6196    
     20000   443.89918     -185.40396      3.0984375     -182.30552      956.59692    
     21000   453.31362     -185.70665      3.1641507     -182.5425       1009.4255    
     22000   373.22214     -185.37299      2.6051084     -182.76788      1009.4255    
     23000   422.55139     -185.92631      2.9494289     -182.97688      949.6518     
     24000   482.44        -186.54139      3.3674543     -183.17393      959.13755    
     25000   413.58572     -186.24675      2.8868481     -183.3599       937.44313    
     26000   413.80703     -186.42872      2.8883928     -183.54033      959.98271    
     27000   344.24739     -186.11045      2.4028632     -183.70759      934.5703     
     28000   394.06955     -186.62421      2.7506243     -183.87359      960.1795     
     29000   368.77397     -186.59963      2.5740599     -184.02557      960.1795     
     30000   341.85593     -186.55317      2.3861707     -184.16699      960.1795     
     31000   344.40286     -186.70592      2.4039484     -184.30197      960.1795     
     32000   302.14557     -186.54074      2.1089905     -184.43175      960.1795     
     33000   320.49185     -186.78503      2.2370484     -184.54798      960.1795     
     34000   312.49493     -186.84098      2.1812295     -184.65975      960.1795     
     35000   283.27324     -186.74306      1.9772607     -184.7658       960.1795     
     36000   312.2987      -187.04311      2.1798598     -184.86325      960.1795     
     37000   327.98523     -187.24397      2.2893526     -184.95462      960.1795     
     38000   290.5048      -187.06719      2.0277374     -185.03945      960.1795     
     39000   240.43478     -186.79524      1.6782463     -185.11699      960.1795     
     40000   313.54736     -187.37851      2.1885756     -185.18993      960.1795     
     41000   290.72826     -187.28527      2.0292971     -185.25597      960.1795     
     42000   260.77709     -187.13645      1.8202365     -185.31621      960.1795     
     43000   236.72559     -187.02317      1.6523559     -185.37081      960.1795     
     44000   231.69692     -187.03807      1.6172556     -185.42081      960.1795     
     45000   262.25933     -187.29494      1.8305827     -185.46436      960.1795     
     46000   243.70499     -187.20379      1.7010725     -185.50271      960.1795     
     47000   270.32045     -187.42203      1.8868497     -185.53518      960.1795     
     48000   251.72829     -187.31945      1.7570755     -185.56237      960.1795     
     49000   275.74948     -187.50822      1.9247446     -185.58348      960.1795     
     50000   251.5771      -187.35507      1.7560202     -185.59905      960.1795     
Loop time of 2.06987 on 1 procs for 50000 steps with 55 atoms

Performance: 2087.089 ns/day, 0.011 hours/ns, 24156.118 timesteps/s
100.4% CPU use with 1 MPI tasks x 1 OpenMP threads

MPI task timing breakdown:
Section |  min time  |  avg time  |  max time  |%varavg| %total
---------------------------------------------------------------
Pair    | 1.9233     | 1.9233     | 1.9233     |   0.0 | 92.92
Neigh   | 0.001418   | 0.001418   | 0.001418   |   0.0 |  0.07
Comm    | 0.006973   | 0.006973   | 0.006973   |   0.0 |  0.34
Output  | 0.014848   | 0.014848   | 0.014848   |   0.0 |  0.72
Modify  | 0.10042    | 0.10042    | 0.10042    |   0.0 |  4.85
Other   |            | 0.02294    |            |       |  1.11

Nlocal:             55 ave          55 max          55 min
Histogram: 1 0 0 0 0 0 0 0 0 0
Nghost:              0 ave           0 max           0 min
Histogram: 1 0 0 0 0 0 0 0 0 0
Neighs:           1085 ave        1085 max        1085 min
Histogram: 1 0 0 0 0 0 0 0 0 0

Total # of neighbors = 1085
Ave neighs/atom = 19.727273
Neighbor list builds = 71
Dangerous builds = 0
Total wall time: 0:00:02
