LAMMPS (15 Sep 2022)
OMP_NUM_THREADS environment is not set. Defaulting to 1 thread. (src/comm.cpp:98)
  using 1 OpenMP thread(s) per MPI task
Loaded 1 plugins from C:\Users\becat\AppData\Local\LAMMPS 64-bit 15Sep2022\plugins
Lattice spacing in x,y,z = 4.079 4.079 4.079
Created orthogonal box = (0 0 0) to (40.79 40.79 40.79)
  1 by 1 by 1 MPI processor grid
Read molecule template np:
  1 molecules
  0 fragments
  192 atoms with max type 1
  0 bonds with max type 0
  0 angles with max type 0
  0 dihedrals with max type 0
  0 impropers with max type 0
Created 192 atoms
  using lattice units in orthogonal box = (11.832661 11.367119 12.539311) to (28.791264 29.414879 28.25069)
  create_atoms CPU = 0.000 seconds
Neighbor list info ...
  update: every = 1 steps, delay = 10 steps, check = yes
  max neighbors/atom: 2000, page size: 100000
  master list distance cutoff = 7.55
  ghost atom cutoff = 7.55
  binsize = 3.775, bins = 5 5 5
  1 neighbor lists, perpetual/occasional/extra = 1 0 0
  (1) pair eam, perpetual
      attributes: half, newton on
      pair build: half/bin/atomonly/newton
      stencil: half/bin/3d
      bin: standard
Setting up Verlet run ...
  Unit style    : metal
  Current step  : 0
  Time step     : 0.001
Per MPI rank memory allocation (min/avg/max) = 4.547 | 4.547 | 4.547 Mbytes
   Step          Temp          PotEng         KinEng         TotEng         Volume    
         0   300           -683.06702      7.4066063     -675.66041      4808.7       
      1000   419.719       -686.04596      10.362311     -675.68365      4808.7       
      2000   360.15053     -684.64135      8.8916438     -675.74971      4808.7       
      3000   372.33512     -685.05282      9.1924654     -675.86036      4808.7       
      4000   347.4014      -684.58399      8.5768848     -676.00711      4808.7       
      5000   377.80793     -685.51344      9.3275819     -676.18586      4808.7       
      6000   350.12296     -685.0264       8.6440764     -676.38232      4808.7       
      7000   339.14574     -684.95283      8.3730632     -676.57977      4808.7       
      8000   325.24195     -684.79407      8.0297969     -676.76427      4808.7       
      9000   358.85636     -685.78656      8.8596927     -676.92686      4808.7       
     10000   324.48118     -685.08122      8.0110144     -677.0702       4808.7       
     11000   339.5523      -685.58102      8.3831006     -677.19792      4808.7       
     12000   328.00913     -685.41416      8.098115      -677.31605      4808.7       
     13000   315.54741     -685.22129      7.7904515     -677.43084      4808.7       
     14000   333.6926      -685.78179      8.2384325     -677.54336      4808.7       
     15000   315.799       -685.45376      7.7966629     -677.6571       4808.7       
     16000   307.49056     -685.36664      7.5915384     -677.7751       4808.7       
     17000   325.26265     -685.92512      8.030308      -677.89482      4808.7       
     18000   332.66354     -686.22979      8.2130263     -678.01676      4808.7       
     19000   343.11632     -686.61206      8.4710918     -678.14097      4808.7       
     20000   336.52036     -686.57108      8.308246      -678.26283      4808.7       
     21000   307.69139     -685.98297      7.5964967     -678.38648      4808.7       
     22000   327.44377     -686.58929      8.0841569     -678.50513      4332.3215    
     23000   290.63746     -685.79717      7.1754575     -678.62171      4331.6359    
     24000   316.62629     -686.55339      7.8170877     -678.7363       4331.6359    
     25000   306.33127     -686.40928      7.5629171     -678.84636      4331.6359    
     26000   294.06255     -686.21276      7.2600184     -678.95274      4331.6359    
     27000   298.49344     -686.4229       7.3694112     -679.05349      4331.6359    
     28000   326.28225     -687.20479      8.0554805     -679.14931      4425.2483    
     29000   306.21625     -686.80065      7.5600773     -679.24057      4425.2483    
     30000   287.07653     -686.41359      7.0875429     -679.32604      4303.6904    
     31000   281.19444     -686.34937      6.9423218     -679.40705      4303.6904    
     32000   278.56212     -686.35988      6.8773332     -679.48255      4303.6904    
     33000   309.10107     -687.18401      7.6312998     -679.55271      4335.5739    
     34000   308.44158     -687.23311      7.6150177     -679.61809      4335.5739    
     35000   299.25874     -687.06636      7.3883057     -679.67805      4335.5739    
     36000   300.22434     -687.14452      7.4121449     -679.73237      4326.9786    
     37000   281.09201     -686.72208      6.939793      -679.78229      4326.9786    
     38000   281.86443     -686.78551      6.9588629     -679.82664      4326.9786    
     39000   302.16787     -687.32648      7.4601283     -679.86636      4326.9786    
     40000   286.88565     -686.98325      7.0828302     -679.90042      4346.3369    
     41000   275.19728     -686.72374      6.7942598     -679.92948      4346.3369    
     42000   273.08216     -686.69497      6.7420402     -679.95293      4346.3369    
     43000   291.45914     -687.16604      7.1957437     -679.9703       4346.3369    
     44000   293.21809     -687.22112      7.2391698     -679.98195      4346.3369    
     45000   293.05077     -687.22272      7.235039      -679.98768      4346.3369    
     46000   275.60995     -686.79169      6.804448      -679.98724      4346.3369    
     47000   276.62395     -686.81016      6.8294823     -679.98067      4346.3369    
     48000   284.50744     -686.991        7.0241154     -679.96688      4346.3369    
     49000   287.35596     -687.04022      7.0944417     -679.94578      4346.3369    
     50000   298.05508     -687.27597      7.3585888     -679.91739      4346.3369    
Loop time of 15.666 on 1 procs for 50000 steps with 192 atoms

Performance: 275.756 ns/day, 0.087 hours/ns, 3191.624 timesteps/s
94.8% CPU use with 1 MPI tasks x 1 OpenMP threads

MPI task timing breakdown:
Section |  min time  |  avg time  |  max time  |%varavg| %total
---------------------------------------------------------------
Pair    | 15.123     | 15.123     | 15.123     |   0.0 | 96.53
Neigh   | 0.001906   | 0.001906   | 0.001906   |   0.0 |  0.01
Comm    | 0.015487   | 0.015487   | 0.015487   |   0.0 |  0.10
Output  | 0.072721   | 0.072721   | 0.072721   |   0.0 |  0.46
Modify  | 0.3635     | 0.3635     | 0.3635     |   0.0 |  2.32
Other   |            | 0.08936    |            |       |  0.57

Nlocal:            192 ave         192 max         192 min
Histogram: 1 0 0 0 0 0 0 0 0 0
Nghost:              0 ave           0 max           0 min
Histogram: 1 0 0 0 0 0 0 0 0 0
Neighs:           5897 ave        5897 max        5897 min
Histogram: 1 0 0 0 0 0 0 0 0 0

Total # of neighbors = 5897
Ave neighs/atom = 30.713542
Neighbor list builds = 8
Dangerous builds = 0
Total wall time: 0:00:15
