LAMMPS (15 Sep 2022)
OMP_NUM_THREADS environment is not set. Defaulting to 1 thread. (src/comm.cpp:98)
  using 1 OpenMP thread(s) per MPI task
Loaded 1 plugins from C:\Users\becat\AppData\Local\LAMMPS 64-bit 15Sep2022\plugins
Lattice spacing in x,y,z = 4.079 4.079 4.079
Created orthogonal box = (0 0 0) to (40.79 40.79 40.79)
  1 by 1 by 1 MPI processor grid
Read molecule template np:
  1 molecules
  0 fragments
  45 atoms with max type 1
  0 bonds with max type 0
  0 angles with max type 0
  0 dihedrals with max type 0
  0 impropers with max type 0
Created 45 atoms
  using lattice units in orthogonal box = (14.799075 15.835246 15.762707) to (25.925926 24.860781 25.303205)
  create_atoms CPU = 0.000 seconds
Neighbor list info ...
  update: every = 1 steps, delay = 10 steps, check = yes
  max neighbors/atom: 2000, page size: 100000
  master list distance cutoff = 7.55
  ghost atom cutoff = 7.55
  binsize = 3.775, bins = 3 3 3
  1 neighbor lists, perpetual/occasional/extra = 1 0 0
  (1) pair eam, perpetual
      attributes: half, newton on
      pair build: half/bin/atomonly/newton
      stencil: half/bin/3d
      bin: standard
Setting up Verlet run ...
  Unit style    : metal
  Current step  : 0
  Time step     : 0.001
Per MPI rank memory allocation (min/avg/max) = 4.537 | 4.537 | 4.537 Mbytes
   Step          Temp          PotEng         KinEng         TotEng         Volume    
         0   300           -130.90603      1.7062339     -129.19979      958.11194    
      1000   1612.5402     -138.56326      9.1712357     -129.39203      926.95414    
      2000   1906.188      -141.1273       10.841342     -130.28595      1106.0108    
      3000   1414.5085     -139.42698      8.0449412     -131.38204      914.60848    
      4000   1489.6384     -140.79237      8.4722386     -132.32013      906.52402    
      5000   1486.38       -141.73022      8.4537064     -133.27651      750.64912    
      6000   1300.4303     -141.64513      7.3961277     -134.249        970.25987    
      7000   1090.3989     -141.44544      6.201585      -135.24386      912.54211    
      8000   1350.3663     -143.90081      7.6801361     -136.22067      741.9289     
      9000   1280.4839     -144.49205      7.2826835     -137.20936      837.3782     
     10000   1292.0349     -145.54749      7.3483792     -138.19911      876.499      
     11000   1139.124      -145.52295      6.4787066     -139.04424      858.77161    
     12000   1023.5195     -145.7317       5.8212122     -139.91049      767.39389    
     13000   1056.6141     -146.72178      6.0094361     -140.71235      758.02288    
     14000   767.96479     -145.84579      4.3677586     -141.47803      757.48579    
     15000   920.22657     -147.38928      5.2337393     -142.15554      739.6737     
     16000   742.9559      -147.0364       4.2255219     -142.81088      747.35533    
     17000   747.58449     -147.66987      4.2518467     -143.41802      807.90248    
     18000   662.31828     -147.71496      3.7668997     -143.94806      765.97645    
     19000   546.24948     -147.55567      3.1067646     -144.4489       803.43893    
     20000   636.35651     -148.53384      3.6192435     -144.9146       761.50452    
     21000   624.83664     -148.904        3.5537249     -145.35028      746.60398    
     22000   538.33211     -148.83187      3.061735      -145.77013      775.33463    
     23000   538.87215     -149.2207       3.0648065     -146.15589      832.3942     
     24000   600.43476     -149.91089      3.4149405     -146.49595      764.31894    
     25000   413.29845     -149.18088      2.3506128     -146.83027      780.7073     
     26000   560.7233      -150.32777      3.1890837     -147.13868      866.74255    
     27000   501.73721     -150.28695      2.8536035     -147.43335      850.1171     
     28000   506.69101     -150.58283      2.8817779     -147.70106      850.1171     
     29000   407.95879     -150.28729      2.3202438     -147.96705      805.78796    
     30000   413.92161     -150.56985      2.354157      -148.21569      805.78796    
     31000   395.42415     -150.69153      2.2489537     -148.44258      812.37991    
     32000   409.53558     -150.97842      2.3292116     -148.64921      812.37991    
     33000   335.47569     -150.74447      1.908         -148.83647      807.10456    
     34000   309.91729     -150.77704      1.762638      -149.0144       744.35349    
     35000   345.45125     -151.13405      1.9647355     -149.16932      834.86008    
     36000   332.58358     -151.21353      1.8915513     -149.32198      840.44672    
     37000   310.00545     -151.22081      1.7631394     -149.45767      739.88446    
     38000   300.28249     -151.29287      1.7078406     -149.58503      739.88446    
     39000   312.96949     -151.48449      1.7799972     -149.7045       808.06271    
     40000   345.57948     -151.78395      1.9654647     -149.81849      740.27458    
     41000   268.45742     -151.45086      1.5268372     -149.92402      740.27458    
     42000   283.49674     -151.63496      1.6123725     -150.02259      740.27458    
     43000   268.63664     -151.6398       1.5278565     -150.11194      740.27458    
     44000   295.19477     -151.87409      1.6789044     -150.19519      740.27458    
     45000   259.81078     -151.74827      1.4776599     -150.27061      740.27458    
     46000   249.18742     -151.75579      1.4172401     -150.33855      740.27458    
     47000   252.10783     -151.83335      1.4338498     -150.3995       740.27458    
     48000   248.47468     -151.86649      1.4131864     -150.4533       740.27458    
     49000   221.58045     -151.7625       1.2602269     -150.50227      740.27458    
     50000   230.97853     -151.85696      1.313678      -150.54328      740.27458    
Loop time of 2.01907 on 1 procs for 50000 steps with 45 atoms

Performance: 2139.600 ns/day, 0.011 hours/ns, 24763.889 timesteps/s
89.8% CPU use with 1 MPI tasks x 1 OpenMP threads

MPI task timing breakdown:
Section |  min time  |  avg time  |  max time  |%varavg| %total
---------------------------------------------------------------
Pair    | 1.8166     | 1.8166     | 1.8166     |   0.0 | 89.97
Neigh   | 0.002629   | 0.002629   | 0.002629   |   0.0 |  0.13
Comm    | 0.008909   | 0.008909   | 0.008909   |   0.0 |  0.44
Output  | 0.015481   | 0.015481   | 0.015481   |   0.0 |  0.77
Modify  | 0.12302    | 0.12302    | 0.12302    |   0.0 |  6.09
Other   |            | 0.05245    |            |       |  2.60

Nlocal:             45 ave          45 max          45 min
Histogram: 1 0 0 0 0 0 0 0 0 0
Nghost:              0 ave           0 max           0 min
Histogram: 1 0 0 0 0 0 0 0 0 0
Neighs:            802 ave         802 max         802 min
Histogram: 1 0 0 0 0 0 0 0 0 0

Total # of neighbors = 802
Ave neighs/atom = 17.822222
Neighbor list builds = 134
Dangerous builds = 0
Total wall time: 0:00:02
