LAMMPS (15 Sep 2022)
OMP_NUM_THREADS environment is not set. Defaulting to 1 thread. (src/comm.cpp:98)
  using 1 OpenMP thread(s) per MPI task
Loaded 1 plugins from C:\Users\becat\AppData\Local\LAMMPS 64-bit 15Sep2022\plugins
Lattice spacing in x,y,z = 4.079 4.079 4.079
Created orthogonal box = (0 0 0) to (40.79 40.79 40.79)
  1 by 1 by 1 MPI processor grid
Read molecule template np:
  1 molecules
  0 fragments
  309 atoms with max type 1
  0 bonds with max type 0
  0 angles with max type 0
  0 dihedrals with max type 0
  0 impropers with max type 0
Created 309 atoms
  using lattice units in orthogonal box = (9.6454002 9.8667185 9.8238982) to (31.1446 30.923281 30.966102)
  create_atoms CPU = 0.000 seconds
Neighbor list info ...
  update: every = 1 steps, delay = 10 steps, check = yes
  max neighbors/atom: 2000, page size: 100000
  master list distance cutoff = 7.55
  ghost atom cutoff = 7.55
  binsize = 3.775, bins = 6 6 6
  1 neighbor lists, perpetual/occasional/extra = 1 0 0
  (1) pair eam, perpetual
      attributes: half, newton on
      pair build: half/bin/atomonly/newton
      stencil: half/bin/3d
      bin: standard
Setting up Verlet run ...
  Unit style    : metal
  Current step  : 0
  Time step     : 0.001
Per MPI rank memory allocation (min/avg/max) = 4.554 | 4.554 | 4.554 Mbytes
   Step          Temp          PotEng         KinEng         TotEng         Volume    
         0   300           -1090.6028      11.943637     -1078.6592      9571.0597    
      1000   697.40989     -1106.7041      27.765369     -1078.9388      8080.5598    
      2000   637.25964     -1105.093       25.37066      -1079.7223      7702.8755    
      3000   552.21539     -1102.7199      21.984868     -1080.735       7806.4096    
      4000   531.30723     -1102.76        21.15247      -1081.6076      8002.857     
      5000   608.78179     -1106.6474      24.236897     -1082.4105      7595.9163    
      6000   541.56076     -1104.8043      21.560684     -1083.2436      7815.2322    
      7000   505.69903     -1104.2782      20.132953     -1084.1452      8320.3384    
      8000   567.11153     -1107.6768      22.577915     -1085.0989      7993.1784    
      9000   531.71668     -1107.2446      21.168771     -1086.0758      7956.0798    
     10000   501.41321     -1106.9996      19.962325     -1087.0373      7876.903     
     11000   485.29427     -1107.3065      19.320596     -1087.9859      7960.0244    
     12000   519.68558     -1109.6082      20.689787     -1088.9184      7957.3167    
     13000   505.97136     -1109.9734      20.143795     -1089.8296      7748.2141    
     14000   457.86741     -1108.9503      18.228674     -1090.7217      8238.2656    
     15000   483.03497     -1110.8272      19.230649     -1091.5965      8069.1304    
     16000   478.05827     -1111.4669      19.032515     -1092.4344      7974.9886    
     17000   447.54945     -1111.0804      17.817895     -1093.2625      8092.1773    
     18000   460.01317     -1112.3766      18.314102     -1094.0625      7859.2287    
     19000   430.83838     -1111.9941      17.152591     -1094.8415      8032.6839    
     20000   403.02396     -1111.6368      16.04524      -1095.5915      7924.9318    
     21000   403.07973     -1112.3676      16.047461     -1096.3202      7707.1784    
     22000   417.25038     -1113.6361      16.611624     -1097.0245      8137.3108    
     23000   386.76827     -1113.0988      15.398066     -1097.7008      7892.6949    
     24000   402.24509     -1114.3704      16.014232     -1098.3562      7663.402     
     25000   382.4123      -1114.2074      15.224646     -1098.9828      7663.402     
     26000   390.45535     -1115.132       15.544857     -1099.5872      8007.0355    
     27000   381.09559     -1115.3402      15.172225     -1100.168       7937.5093    
     28000   372.00414     -1115.5377      14.810275     -1100.7274      7937.5093    
     29000   348.3779      -1115.1332      13.869664     -1101.2635      8154.0472    
     30000   341.09244     -1115.355       13.579615     -1101.7754      7939.238     
     31000   380.97353     -1117.437       15.167366     -1102.2696      7932.9425    
     32000   338.31557     -1116.2097      13.469062     -1102.7406      7955.9472    
     33000   338.51088     -1116.6702      13.476837     -1103.1933      7955.9472    
     34000   337.4036      -1117.0562      13.432754     -1103.6235      7955.9472    
     35000   342.33424     -1117.6646      13.629053     -1104.0356      7955.9472    
     36000   330.82251     -1117.599       13.170747     -1104.4282      7974.6255    
     37000   324.65335     -1117.723       12.92514      -1104.7978      7974.6255    
     38000   298.94547     -1117.0565      11.901654     -1105.1548      7974.6255    
     39000   313.18023     -1117.9587      12.46837      -1105.4903      7974.6255    
     40000   300.84492     -1117.7841      11.977275     -1105.8068      7974.6255    
     41000   315.80587     -1118.6785      12.572903     -1106.1056      7974.6255    
     42000   287.70774     -1117.8411      11.454256     -1106.3868      7974.6255    
     43000   286.73997     -1118.0668      11.415727     -1106.6511      7974.6255    
     44000   307.67047     -1119.1463      12.249015     -1106.8973      7974.6255    
     45000   273.96891     -1118.0343      10.907284     -1107.127       7974.6255    
     46000   294.80142     -1119.0759      11.736671     -1107.3393      7974.6255    
     47000   281.14763     -1118.7281      11.193085     -1107.535       7974.6255    
     48000   285.3279      -1119.0738      11.35951      -1107.7143      7974.6255    
     49000   284.85558     -1119.2161      11.340706     -1107.8754      7974.6255    
     50000   279.35446     -1119.1419      11.121695     -1108.0202      7974.6255    
Loop time of 20.687 on 1 procs for 50000 steps with 309 atoms

Performance: 208.827 ns/day, 0.115 hours/ns, 2416.981 timesteps/s
98.6% CPU use with 1 MPI tasks x 1 OpenMP threads

MPI task timing breakdown:
Section |  min time  |  avg time  |  max time  |%varavg| %total
---------------------------------------------------------------
Pair    | 20.107     | 20.107     | 20.107     |   0.0 | 97.20
Neigh   | 0.030217   | 0.030217   | 0.030217   |   0.0 |  0.15
Comm    | 0.010636   | 0.010636   | 0.010636   |   0.0 |  0.05
Output  | 0.067743   | 0.067743   | 0.067743   |   0.0 |  0.33
Modify  | 0.39214    | 0.39214    | 0.39214    |   0.0 |  1.90
Other   |            | 0.07944    |            |       |  0.38

Nlocal:            309 ave         309 max         309 min
Histogram: 1 0 0 0 0 0 0 0 0 0
Nghost:              0 ave           0 max           0 min
Histogram: 1 0 0 0 0 0 0 0 0 0
Neighs:          10561 ave       10561 max       10561 min
Histogram: 1 0 0 0 0 0 0 0 0 0

Total # of neighbors = 10561
Ave neighs/atom = 34.177994
Neighbor list builds = 84
Dangerous builds = 0
Total wall time: 0:00:20
