LAMMPS (15 Sep 2022)
OMP_NUM_THREADS environment is not set. Defaulting to 1 thread. (src/comm.cpp:98)
  using 1 OpenMP thread(s) per MPI task
Loaded 1 plugins from C:\Users\becat\AppData\Local\LAMMPS 64-bit 15Sep2022\plugins
Lattice spacing in x,y,z = 4.079 4.079 4.079
Created orthogonal box = (0 0 0) to (40.79 40.79 40.79)
  1 by 1 by 1 MPI processor grid
Read molecule template np:
  1 molecules
  0 fragments
  389 atoms with max type 1
  0 bonds with max type 0
  0 angles with max type 0
  0 dihedrals with max type 0
  0 impropers with max type 0
Created 389 atoms
  using lattice units in orthogonal box = (9.2121455 8.6018011 9.9221071) to (30.976991 32.159249 30.867893)
  create_atoms CPU = 0.000 seconds
Neighbor list info ...
  update: every = 1 steps, delay = 10 steps, check = yes
  max neighbors/atom: 2000, page size: 100000
  master list distance cutoff = 7.55
  ghost atom cutoff = 7.55
  binsize = 3.775, bins = 6 7 6
  1 neighbor lists, perpetual/occasional/extra = 1 0 0
  (1) pair eam, perpetual
      attributes: half, newton on
      pair build: half/bin/atomonly/newton
      stencil: half/bin/3d
      bin: standard
Setting up Verlet run ...
  Unit style    : metal
  Current step  : 0
  Time step     : 0.001
Per MPI rank memory allocation (min/avg/max) = 4.559 | 4.559 | 4.559 Mbytes
   Step          Temp          PotEng         KinEng         TotEng         Volume    
         0   300           -1416.1225      15.045881     -1401.0766      10739.412    
      1000   359.44372     -1419.1086      18.027158     -1401.0815      10739.412    
      2000   290.63897     -1415.6702      14.576398     -1401.0938      10739.412    
      3000   335.04245     -1417.9174      16.803363     -1401.1141      10739.412    
      4000   286.73563     -1415.5231      14.380634     -1401.1425      10739.412    
      5000   311.82602     -1416.8177      15.638991     -1401.1787      10739.412    
      6000   314.81967     -1417.012       15.789131     -1401.2228      10739.412    
      7000   310.37991     -1416.841       15.566464     -1401.2745      10739.412    
      8000   292.82973     -1416.0209      14.686271     -1401.3346      10739.412    
      9000   305.91037     -1416.7457      15.342304     -1401.4034      10739.412    
     10000   309.03925     -1416.9821      15.499226     -1401.4828      10739.412    
     11000   299.43141     -1416.5906      15.017364     -1401.5733      10739.412    
     12000   298.94183     -1416.6678      14.992811     -1401.675       10739.412    
     13000   296.61808     -1416.6657      14.876268     -1401.7894      10739.412    
     14000   293.68545     -1416.6446      14.729187     -1401.9155      9705.8897    
     15000   313.64031     -1417.7834      15.729982     -1402.0534      9830.3066    
     16000   302.55593     -1417.375       15.174069     -1402.2009      9830.3066    
     17000   302.3385      -1417.5188      15.163163     -1402.3557      9830.3066    
     18000   273.43835     -1416.2277      13.713736     -1402.514       9987.6378    
     19000   295.67471     -1417.5009      14.828955     -1402.6719      9865.459     
     20000   286.14596     -1417.1754      14.35106      -1402.8244      9865.459     
     21000   301.86012     -1418.1069      15.139171     -1402.9678      9865.459     
     22000   270.81337     -1416.6792      13.582086     -1403.0971      9865.459     
     23000   290.97676     -1417.8036      14.593339     -1403.2103      9865.459     
     24000   285.40887     -1417.6199      14.314093     -1403.3058      9865.459     
     25000   285.69562     -1417.7119      14.328474     -1403.3834      9865.459     
     26000   301.57947     -1418.5666      15.125096     -1403.4415      9865.459     
     27000   278.04701     -1417.4267      13.944874     -1403.4819      10116.54     
     28000   278.83746     -1417.4895      13.984518     -1403.505       9912.3347    
     29000   294.30316     -1418.2714      14.760168     -1403.5113      9912.3347    
     30000   290.63091     -1418.0774      14.575994     -1403.5014      9912.3347    
     31000   288.55818     -1417.9492      14.47204      -1403.4772      9912.3347    
     32000   288.42823     -1417.9044      14.465522     -1403.4389      9723.5454    
     33000   284.61311     -1417.6619      14.274183     -1403.3877      9853.8051    
     34000   282.46373     -1417.4926      14.166385     -1403.3262      9770.5358    
     35000   304.21136     -1418.5117      15.257093     -1403.2546      9770.5358    
     36000   282.78826     -1417.359       14.182662     -1403.1764      9770.5358    
     37000   285.82372     -1417.4291      14.334899     -1403.0942      9770.5358    
     38000   284.17716     -1417.2639      14.252319     -1403.0116      9770.5358    
     39000   284.13545     -1417.1801      14.250227     -1402.9299      9770.5358    
     40000   284.67204     -1417.1297      14.277139     -1402.8526      9854.7796    
     41000   278.22089     -1416.7333      13.953595     -1402.7797      9775.7993    
     42000   288.2195      -1417.1689      14.455054     -1402.7138      9852.4849    
     43000   296.07449     -1417.5028      14.849005     -1402.6538      9852.4849    
     44000   295.55001     -1417.4214      14.822701     -1402.5987      9852.4849    
     45000   295.54358     -1417.3703      14.822379     -1402.548       9852.4849    
     46000   291.03429     -1417.0953      14.596224     -1402.4991      9852.4849    
     47000   289.1094      -1416.9521      14.499685     -1402.4524      9852.4849    
     48000   286.5436      -1416.7772      14.371003     -1402.4062      9852.4849    
     49000   283.24142     -1416.5648      14.205389     -1402.3594      9852.4849    
     50000   301.00123     -1417.4074      15.096095     -1402.3113      9852.4849    
Loop time of 21.9388 on 1 procs for 50000 steps with 389 atoms

Performance: 196.911 ns/day, 0.122 hours/ns, 2279.067 timesteps/s
99.7% CPU use with 1 MPI tasks x 1 OpenMP threads

MPI task timing breakdown:
Section |  min time  |  avg time  |  max time  |%varavg| %total
---------------------------------------------------------------
Pair    | 21.399     | 21.399     | 21.399     |   0.0 | 97.54
Neigh   | 0.004437   | 0.004437   | 0.004437   |   0.0 |  0.02
Comm    | 0.007316   | 0.007316   | 0.007316   |   0.0 |  0.03
Output  | 0.073016   | 0.073016   | 0.073016   |   0.0 |  0.33
Modify  | 0.38068    | 0.38068    | 0.38068    |   0.0 |  1.74
Other   |            | 0.07418    |            |       |  0.34

Nlocal:            389 ave         389 max         389 min
Histogram: 1 0 0 0 0 0 0 0 0 0
Nghost:              0 ave           0 max           0 min
Histogram: 1 0 0 0 0 0 0 0 0 0
Neighs:          13469 ave       13469 max       13469 min
Histogram: 1 0 0 0 0 0 0 0 0 0

Total # of neighbors = 13469
Ave neighs/atom = 34.624679
Neighbor list builds = 12
Dangerous builds = 0
Total wall time: 0:00:21
