LAMMPS (15 Sep 2022)
OMP_NUM_THREADS environment is not set. Defaulting to 1 thread. (src/comm.cpp:98)
  using 1 OpenMP thread(s) per MPI task
Loaded 1 plugins from C:\Users\becat\AppData\Local\LAMMPS 64-bit 15Sep2022\plugins
Lattice spacing in x,y,z = 4.079 4.079 4.079
Created orthogonal box = (0 0 0) to (40.79 40.79 40.79)
  1 by 1 by 1 MPI processor grid
Read molecule template np:
  1 molecules
  0 fragments
  58 atoms with max type 1
  0 bonds with max type 0
  0 angles with max type 0
  0 dihedrals with max type 0
  0 impropers with max type 0
Created 58 atoms
  using lattice units in orthogonal box = (15.634412 14.924798 15.600859) to (25.213584 25.72483 25.437749)
  create_atoms CPU = 0.000 seconds
Neighbor list info ...
  update: every = 1 steps, delay = 10 steps, check = yes
  max neighbors/atom: 2000, page size: 100000
  master list distance cutoff = 7.55
  ghost atom cutoff = 7.55
  binsize = 3.775, bins = 3 3 3
  1 neighbor lists, perpetual/occasional/extra = 1 0 0
  (1) pair eam, perpetual
      attributes: half, newton on
      pair build: half/bin/atomonly/newton
      stencil: half/bin/3d
      bin: standard
Setting up Verlet run ...
  Unit style    : metal
  Current step  : 0
  Time step     : 0.001
Per MPI rank memory allocation (min/avg/max) = 4.538 | 4.538 | 4.538 Mbytes
   Step          Temp          PotEng         KinEng         TotEng         Volume    
         0   300           -192.93022      2.2103485     -190.71987      1017.679     
      1000   537.89978     -194.72036      3.9631532     -190.75721      1089.6961    
      2000   566.08985     -195.0351       4.1708528     -190.86425      1013.9255    
      3000   505.03161     -194.75506      3.7209862     -191.03407      1140.4517    
      4000   583.99201     -195.54484      4.3027529     -191.24208      1043.6537    
      5000   575.07479     -195.69508      4.2370523     -191.45803      1032.9004    
      6000   463.58808     -195.06523      3.4156373     -191.6496       1014.3246    
      7000   491.25121     -195.43783      3.6194546     -191.81837      1019.562     
      8000   434.65152     -195.16817      3.2024378     -191.96573      998.94698    
      9000   430.08556     -195.27077      3.1687966     -192.10197      1027.0474    
     10000   496.17876     -195.90261      3.6557599     -192.24685      973.37776    
     11000   498.97781     -196.07798      3.6763828     -192.4016       980.91035    
     12000   372.8784      -195.30679      2.747304      -192.55949      994.32794    
     13000   463.87364     -196.13948      3.4177413     -192.72174      999.08129    
     14000   422.79972     -196.00105      3.1151157     -192.88594      963.79769    
     15000   405.64573     -196.04484      2.9887281     -193.05611      988.58688    
     16000   379.88013     -196.02153      2.7988916     -193.22264      1004.7015    
     17000   456.14453     -196.75112      3.3607946     -193.39032      995.96039    
     18000   431.17853     -196.73214      3.1768494     -193.55529      1000.8619    
     19000   421.47899     -196.81534      3.1053848     -193.70996      997.29522    
     20000   335.73838     -196.32935      2.4736627     -193.85569      1118.7544    
     21000   439.10701     -197.22589      3.235265      -193.99063      1106.7761    
     22000   427.58024     -197.27089      3.1503378     -194.12056      1071.2405    
     23000   346.55199     -196.80389      2.5533355     -194.25055      1063.949     
     24000   423.77849     -197.49534      3.1223272     -194.37301      1033.4238    
     25000   344.30907     -197.02691      2.5368101     -194.4901       1036.2124    
     26000   410.27594     -197.6246       3.0228427     -194.60176      1036.2124    
     27000   339.62292     -197.20915      2.5022833     -194.70687      1059.1413    
     28000   287.50735     -196.92479      2.1183048     -194.80649      1047.8377    
     29000   322.90552     -197.28241      2.3791124     -194.9033       1047.8377    
     30000   361.03917     -197.65383      2.6600746     -194.99375      1047.8377    
     31000   303.06103     -197.3102       2.2329016     -195.0773       1074.5182    
     32000   286.42027     -197.26727      2.1102954     -195.15697      1061.304     
     33000   348.73618     -197.79976      2.5694283     -195.23033      1061.304     
     34000   260.94297     -197.22243      1.922583      -195.29984      1061.304     
     35000   314.31229     -197.6836       2.315799      -195.3678       1055.8737    
     36000   266.41943     -197.39272      1.9629326     -195.42979      1055.8737    
     37000   283.28447     -197.57529      2.0871913     -195.4881       1055.8737    
     38000   289.41934     -197.67545      2.132392      -195.54306      1055.8737    
     39000   279.35594     -197.65379      2.0582466     -195.59555      1057.6071    
     40000   271.05958     -197.63932      1.9971204     -195.6422       1015.0855    
     41000   321.17058     -198.05013      2.3663297     -195.6838       1038.3053    
     42000   292.80104     -197.87809      2.1573077     -195.72078      994.61881    
     43000   281.58504     -197.82995      2.0746702     -195.75528      902.08761    
     44000   256.94207     -197.68034      1.8931051     -195.78723      902.08761    
     45000   290.56022     -197.95729      2.1407978     -195.8165       902.08761    
     46000   274.51004     -197.86469      2.0225428     -195.84215      920.15364    
     47000   293.42328     -198.02585      2.1618923     -195.86396      899.81832    
     48000   271.9387      -197.88691      2.0035977     -195.88331      959.4792     
     49000   289.60043     -198.03287      2.1337263     -195.89914      959.4792     
     50000   289.73054     -198.04645      2.1346849     -195.91176      959.4792     
Loop time of 1.68153 on 1 procs for 50000 steps with 58 atoms

Performance: 2569.092 ns/day, 0.009 hours/ns, 29734.860 timesteps/s
100.4% CPU use with 1 MPI tasks x 1 OpenMP threads

MPI task timing breakdown:
Section |  min time  |  avg time  |  max time  |%varavg| %total
---------------------------------------------------------------
Pair    | 1.5641     | 1.5641     | 1.5641     |   0.0 | 93.02
Neigh   | 0.001248   | 0.001248   | 0.001248   |   0.0 |  0.07
Comm    | 0.005271   | 0.005271   | 0.005271   |   0.0 |  0.31
Output  | 0.011479   | 0.011479   | 0.011479   |   0.0 |  0.68
Modify  | 0.082051   | 0.082051   | 0.082051   |   0.0 |  4.88
Other   |            | 0.01738    |            |       |  1.03

Nlocal:             58 ave          58 max          58 min
Histogram: 1 0 0 0 0 0 0 0 0 0
Nghost:              0 ave           0 max           0 min
Histogram: 1 0 0 0 0 0 0 0 0 0
Neighs:           1182 ave        1182 max        1182 min
Histogram: 1 0 0 0 0 0 0 0 0 0

Total # of neighbors = 1182
Ave neighs/atom = 20.37931
Neighbor list builds = 67
Dangerous builds = 0
Total wall time: 0:00:01
