LAMMPS (15 Sep 2022)
OMP_NUM_THREADS environment is not set. Defaulting to 1 thread. (src/comm.cpp:98)
  using 1 OpenMP thread(s) per MPI task
Loaded 1 plugins from C:\Users\becat\AppData\Local\LAMMPS 64-bit 15Sep2022\plugins
Lattice spacing in x,y,z = 4.079 4.079 4.079
Created orthogonal box = (0 0 0) to (40.79 40.79 40.79)
  1 by 1 by 1 MPI processor grid
Read molecule template np:
  1 molecules
  0 fragments
  33 atoms with max type 1
  0 bonds with max type 0
  0 angles with max type 0
  0 dihedrals with max type 0
  0 impropers with max type 0
Created 33 atoms
  using lattice units in orthogonal box = (17.044797 16.994607 17.416871) to (24.342478 24.162239 24.349647)
  create_atoms CPU = 0.000 seconds
Neighbor list info ...
  update: every = 1 steps, delay = 10 steps, check = yes
  max neighbors/atom: 2000, page size: 100000
  master list distance cutoff = 7.55
  ghost atom cutoff = 7.55
  binsize = 3.775, bins = 2 2 2
  1 neighbor lists, perpetual/occasional/extra = 1 0 0
  (1) pair eam, perpetual
      attributes: half, newton on
      pair build: half/bin/atomonly/newton
      stencil: half/bin/3d
      bin: standard
Setting up Verlet run ...
  Unit style    : metal
  Current step  : 0
  Time step     : 0.001
Per MPI rank memory allocation (min/avg/max) = 4.411 | 4.411 | 4.411 Mbytes
   Step          Temp          PotEng         KinEng         TotEng         Volume    
         0   300           -88.817312      1.2408974     -87.576415      362.63332    
      1000   2387.0866     -98.163666      9.8737653     -88.289901      525.80252    
      2000   1994.4598     -98.065275      8.2497334     -89.815542      666.17418    
      3000   1619.8416     -97.700031      6.7001908     -90.99984       687.0513     
      4000   1861.8237     -99.769044      7.7011073     -92.067937      469.53363    
      5000   1638.9074     -99.945245      6.7790532     -93.166192      851.84644    
      6000   1487.9794     -100.36889      6.1547657     -94.21412       599.6889     
      7000   1405.7486     -101.18414      5.8146327     -95.36951       587.95294    
      8000   1120.2154     -100.99964      4.6335744     -96.366068      706.88511    
      9000   1181.1727     -102.26049      4.8857138     -97.374771      708.51921    
     10000   1305.117      -103.67053      5.3983874     -98.272143      591.36905    
     11000   934.56677     -102.90373      3.8656716     -99.038056      610.881      
     12000   993.63873     -103.82147      4.1100123     -99.711453      686.63053    
     13000   721.84439     -103.28883      2.9857827     -100.30304      695.50808    
     14000   914.43517     -104.63975      3.7824007     -100.85735      629.25153    
     15000   763.32886     -104.59087      3.157376      -101.43349      512.05235    
     16000   834.651       -105.40862      3.4523875     -101.95623      509.96424    
     17000   773.31179     -105.68239      3.1986686     -102.48372      512.67892    
     18000   645.33442     -105.63434      2.6693127     -102.96502      478.75667    
     19000   717.82834     -106.41269      2.9691711     -103.44352      551.75474    
     20000   670.04952     -106.67199      2.7715423     -103.90045      546.64117    
     21000   516.88476     -106.40883      2.1380032     -104.27083      479.46067    
     22000   542.44933     -106.84421      2.2437465     -104.60047      479.46067    
     23000   584.72642     -107.36543      2.4186183     -104.94681      455.18083    
     24000   575.20922     -107.63972      2.3792521     -105.26047      533.60349    
     25000   581.98849     -107.96837      2.4072933     -105.56107      447.39879    
     26000   555.51991     -108.14494      2.2978107     -105.84713      467.51526    
     27000   409.64849     -107.82984      1.6944392     -106.1354       401.75469    
     28000   466.2979      -108.3039       1.9287595     -106.37514      409.81598    
     29000   453.78912     -108.48307      1.8770191     -106.60605      457.80269    
     30000   417.94569     -108.54557      1.728759      -106.81681      458.11293    
     31000   375.51384     -108.56271      1.5532472     -107.00946      460.86293    
     32000   309.98601     -108.46893      1.2822028     -107.18673      460.86293    
     33000   340.7434      -108.75058      1.4094253     -107.34115      458.43715    
     34000   365.08929     -108.99421      1.5101278     -107.48408      458.59413    
     35000   291.35076     -108.81543      1.2051213     -107.61031      437.75814    
     36000   310.02254     -109.01127      1.2823539     -107.72891      437.75814    
     37000   276.91826     -108.98003      1.1454238     -107.83461      437.75814    
     38000   279.20518     -109.09084      1.1548833     -107.93596      437.75814    
     39000   248.48046     -109.05093      1.0277958     -108.02314      459.2606     
     40000   315.19193     -109.40696      1.3037362     -108.10322      459.2606     
     41000   252.4731      -109.2227       1.0443107     -108.17839      459.2606     
     42000   300.64131     -109.49034      1.2435501     -108.24679      436.25659    
     43000   304.23652     -109.56598      1.258421      -108.30756      436.25659    
     44000   290.1182      -109.56278      1.200023      -108.36275      436.25659    
     45000   226.04487     -109.34667      0.93499497    -108.41168      436.25659    
     46000   244.32057     -109.46495      1.0105892     -108.45436      436.25659    
     47000   243.17295     -109.49797      1.0058423     -108.49212      436.25659    
     48000   224.72833     -109.45358      0.92954932    -108.52403      441.64597    
     49000   201.58092     -109.38442      0.83380413    -108.55061      441.64597    
     50000   213.66703     -109.45516      0.88379621    -108.57136      441.64597    
Loop time of 1.18485 on 1 procs for 50000 steps with 33 atoms

Performance: 3646.022 ns/day, 0.007 hours/ns, 42199.328 timesteps/s
96.3% CPU use with 1 MPI tasks x 1 OpenMP threads

MPI task timing breakdown:
Section |  min time  |  avg time  |  max time  |%varavg| %total
---------------------------------------------------------------
Pair    | 1.0558     | 1.0558     | 1.0558     |   0.0 | 89.11
Neigh   | 0.001384   | 0.001384   | 0.001384   |   0.0 |  0.12
Comm    | 0.006962   | 0.006962   | 0.006962   |   0.0 |  0.59
Output  | 0.011729   | 0.011729   | 0.011729   |   0.0 |  0.99
Modify  | 0.087611   | 0.087611   | 0.087611   |   0.0 |  7.39
Other   |            | 0.02136    |            |       |  1.80

Nlocal:             33 ave          33 max          33 min
Histogram: 1 0 0 0 0 0 0 0 0 0
Nghost:              0 ave           0 max           0 min
Histogram: 1 0 0 0 0 0 0 0 0 0
Neighs:            474 ave         474 max         474 min
Histogram: 1 0 0 0 0 0 0 0 0 0

Total # of neighbors = 474
Ave neighs/atom = 14.363636
Neighbor list builds = 135
Dangerous builds = 0
Total wall time: 0:00:01
