LAMMPS (15 Sep 2022)
OMP_NUM_THREADS environment is not set. Defaulting to 1 thread. (src/comm.cpp:98)
  using 1 OpenMP thread(s) per MPI task
Loaded 1 plugins from C:\Users\becat\AppData\Local\LAMMPS 64-bit 15Sep2022\plugins
Lattice spacing in x,y,z = 4.079 4.079 4.079
Created orthogonal box = (0 0 0) to (40.79 40.79 40.79)
  1 by 1 by 1 MPI processor grid
Read molecule template np:
  1 molecules
  0 fragments
  13 atoms with max type 1
  0 bonds with max type 0
  0 angles with max type 0
  0 dihedrals with max type 0
  0 impropers with max type 0
Created 13 atoms
  using lattice units in orthogonal box = (17.770403 17.625601 17.773718) to (22.584805 23.143451 23.016283)
  create_atoms CPU = 0.000 seconds
Neighbor list info ...
  update: every = 1 steps, delay = 10 steps, check = yes
  max neighbors/atom: 2000, page size: 100000
  master list distance cutoff = 7.55
  ghost atom cutoff = 7.55
  binsize = 3.775, bins = 2 2 2
  1 neighbor lists, perpetual/occasional/extra = 1 0 0
  (1) pair eam, perpetual
      attributes: half, newton on
      pair build: half/bin/atomonly/newton
      stencil: half/bin/3d
      bin: standard
Setting up Verlet run ...
  Unit style    : metal
  Current step  : 0
  Time step     : 0.001
Per MPI rank memory allocation (min/avg/max) = 4.41 | 4.41 | 4.41 Mbytes
   Step          Temp          PotEng         KinEng         TotEng         Volume    
         0   300           -36.618426      0.46533652    -36.15309       139.26953    
      1000   1152.3019     -37.989058      1.7873605     -36.201697      136.438      
      2000   1102.3786     -38.023735      1.7099234     -36.313812      150.17173    
      3000   812.80795     -37.744254      1.2607641     -36.48349       157.95499    
      4000   898.0947      -38.105894      1.3930542     -36.71284       142.60352    
      5000   1098.9946     -38.622908      1.7046745     -36.918233      129.57572    
      6000   861.14367     -38.44557       1.3357387     -37.109831      137.57685    
      7000   1154.5269     -39.058088      1.7908117     -37.267276      130.42448    
      8000   872.3442      -38.755528      1.3531121     -37.402416      134.92066    
      9000   654.0578      -38.536282      1.0145233     -37.521759      148.64156    
     10000   518.30349     -38.436449      0.80395182    -37.632497      146.04256    
     11000   619.87386     -38.719304      0.96149982    -37.757804      142.58541    
     12000   644.19878     -38.8806        0.99923074    -37.881369      116.15477    
     13000   564.23862     -38.888376      0.87520279    -38.013173      111.71821    
     14000   665.67167     -39.164312      1.0325378     -38.131774      103.57879    
     15000   750.153       -39.410653      1.1635786     -38.247074      110.2049     
     16000   607.82781     -39.294641      0.94281493    -38.351826      88.488594    
     17000   410.0151      -39.087161      0.63598333    -38.451178      92.584207    
     18000   374.6415      -39.125943      0.58111457    -38.544829      100.60676    
     19000   576.32621     -39.523082      0.89395212    -38.62913       95.50974     
     20000   468.5685      -39.435777      0.72680678    -38.70897       95.50974     
     21000   437.7998      -39.458228      0.67908079    -38.779147      95.50974     
     22000   329.56723     -39.356343      0.5111989     -38.845144      95.50974     
     23000   336.67632     -39.42664       0.52222596    -38.904414      95.50974     
     24000   285.2706      -39.402619      0.44248943    -38.960129      83.155327    
     25000   425.84051     -39.673349      0.66053047    -39.012818      83.155327    
     26000   287.68263     -39.502583      0.44623078    -39.056352      83.155327    
     27000   246.17778     -39.481163      0.3818517     -39.099312      83.155327    
     28000   467.66318     -39.863153      0.72540252    -39.137751      83.155327    
     29000   362.01104     -39.73644       0.56152319    -39.174917      83.155327    
     30000   278.90304     -39.641873      0.43261258    -39.209261      91.77077     
     31000   315.73126     -39.729697      0.48973762    -39.239959      91.77077     
     32000   353.17334     -39.815831      0.54781485    -39.268017      91.77077     
     33000   254.87976     -39.688567      0.39534953    -39.293217      91.77077     
     34000   308.8759      -39.796571      0.47910412    -39.317467      91.77077     
     35000   301.07228     -39.807043      0.46699976    -39.340043      99.058185    
     36000   299.93742     -39.82558       0.46523946    -39.36034       105.97933    
     37000   237.89209     -39.747397      0.3689996     -39.378397      105.97933    
     38000   285.01179     -39.836328      0.44208799    -39.39424       105.97933    
     39000   221.00292     -39.751896      0.34280243    -39.409094      105.97933    
     40000   238.78547     -39.792239      0.37038533    -39.421853      109.4227     
     41000   246.79751     -39.815704      0.38281298    -39.432891      109.4227     
     42000   205.40541     -39.760614      0.3186088     -39.442005      109.4227     
     43000   221.28796     -39.792321      0.34324456    -39.449076      109.4227     
     44000   263.65874     -39.863744      0.40896681    -39.454777      109.4227     
     45000   247.41333     -39.84232       0.3837682     -39.458552      109.4227     
     46000   173.68677     -39.730082      0.26940932    -39.460673      109.4227     
     47000   206.60563     -39.781625      0.32047048    -39.461154      109.4227     
     48000   190.75419     -39.755259      0.29588297    -39.459376      109.4227     
     49000   167.58395     -39.715744      0.2599431     -39.455801      109.4227     
     50000   209.79392     -39.775852      0.32541591    -39.450436      109.4227     
Loop time of 0.374655 on 1 procs for 50000 steps with 13 atoms

Performance: 11530.608 ns/day, 0.002 hours/ns, 133456.113 timesteps/s
100.1% CPU use with 1 MPI tasks x 1 OpenMP threads

MPI task timing breakdown:
Section |  min time  |  avg time  |  max time  |%varavg| %total
---------------------------------------------------------------
Pair    | 0.27945    | 0.27945    | 0.27945    |   0.0 | 74.59
Neigh   | 0.000184   | 0.000184   | 0.000184   |   0.0 |  0.05
Comm    | 0.006776   | 0.006776   | 0.006776   |   0.0 |  1.81
Output  | 0.00468    | 0.00468    | 0.00468    |   0.0 |  1.25
Modify  | 0.067771   | 0.067771   | 0.067771   |   0.0 | 18.09
Other   |            | 0.01579    |            |       |  4.22

Nlocal:             13 ave          13 max          13 min
Histogram: 1 0 0 0 0 0 0 0 0 0
Nghost:              0 ave           0 max           0 min
Histogram: 1 0 0 0 0 0 0 0 0 0
Neighs:             78 ave          78 max          78 min
Histogram: 1 0 0 0 0 0 0 0 0 0

Total # of neighbors = 78
Ave neighs/atom = 6
Neighbor list builds = 48
Dangerous builds = 0
Total wall time: 0:00:00
