LAMMPS (15 Sep 2022)
OMP_NUM_THREADS environment is not set. Defaulting to 1 thread. (src/comm.cpp:98)
  using 1 OpenMP thread(s) per MPI task
Loaded 1 plugins from C:\Users\becat\AppData\Local\LAMMPS 64-bit 15Sep2022\plugins
Lattice spacing in x,y,z = 4.079 4.079 4.079
Created orthogonal box = (0 0 0) to (40.79 40.79 40.79)
  1 by 1 by 1 MPI processor grid
Read molecule template np:
  1 molecules
  0 fragments
  675 atoms with max type 1
  0 bonds with max type 0
  0 angles with max type 0
  0 dihedrals with max type 0
  0 impropers with max type 0
Created 675 atoms
  using lattice units in orthogonal box = (5.333777 4.9662669 8.6135056) to (36.697158 35.883516 32.176495)
  create_atoms CPU = 0.000 seconds
Neighbor list info ...
  update: every = 1 steps, delay = 10 steps, check = yes
  max neighbors/atom: 2000, page size: 100000
  master list distance cutoff = 7.55
  ghost atom cutoff = 7.55
  binsize = 3.775, bins = 9 9 7
  1 neighbor lists, perpetual/occasional/extra = 1 0 0
  (1) pair eam, perpetual
      attributes: half, newton on
      pair build: half/bin/atomonly/newton
      stencil: half/bin/3d
      bin: standard
Setting up Verlet run ...
  Unit style    : metal
  Current step  : 0
  Time step     : 0.001
Per MPI rank memory allocation (min/avg/max) = 4.578 | 4.578 | 4.578 Mbytes
   Step          Temp          PotEng         KinEng         TotEng         Volume    
         0   300           -2491.2161      26.136401     -2465.0797      22848.312    
      1000   266.97783     -2488.3238      23.259466     -2465.0644      20405.959    
      2000   299.3272      -2491.0887      26.077786     -2465.0109      21003.129    
      3000   268.88998     -2488.3488      23.426055     -2464.9227      21002.064    
      4000   274.41011     -2488.7039      23.906976     -2464.7969      21002.064    
      5000   270.10417     -2488.1646      23.531836     -2464.6328      20791.649    
      6000   283.99131     -2489.1778      24.741703     -2464.4361      20791.649    
      7000   292.05078     -2489.6592      25.443855     -2464.2153      20670.021    
      8000   264.96544     -2487.0581      23.084144     -2463.9739      20813.201    
      9000   285.81833     -2488.6279      24.900876     -2463.7271      20813.201    
     10000   297.15659     -2489.3768      25.88868      -2463.4881      20813.201    
     11000   287.51907     -2488.3206      25.049046     -2463.2716      20813.201    
     12000   297.19172     -2488.9701      25.891741     -2463.0783      20813.201    
     13000   296.44792     -2488.7356      25.826939     -2462.9087      20813.201    
     14000   291.58364     -2488.1633      25.403157     -2462.7601      20813.201    
     15000   295.53331     -2488.3757      25.747257     -2462.6284      20813.201    
     16000   280.02114     -2486.903       24.395816     -2462.5072      20813.201    
     17000   292.21887     -2487.8504      25.458499     -2462.392       20813.201    
     18000   282.74764     -2486.9129      24.633353     -2462.2796      20813.201    
     19000   296.4268      -2487.9937      25.825099     -2462.1686      20813.201    
     20000   292.6685      -2487.5559      25.497671     -2462.0583      20813.201    
     21000   294.32532     -2487.5891      25.642015     -2461.9471      20813.201    
     22000   301.99983     -2488.1446      26.31063      -2461.834       20813.201    
     23000   307.33412     -2488.4953      26.77536      -2461.7199      20813.201    
     24000   298.83722     -2487.6398      26.035099     -2461.6047      20813.201    
     25000   288.90384     -2486.6572      25.169689     -2461.4875      20813.201    
     26000   288.2035      -2486.4787      25.108674     -2461.37        20813.201    
     27000   309.18029     -2488.1885      26.9362       -2461.2523      20813.201    
     28000   296.12646     -2486.9354      25.798933     -2461.1364      20813.201    
     29000   295.44053     -2486.7609      25.739174     -2461.0218      20813.201    
     30000   309.07496     -2487.8364      26.927024     -2460.9094      20813.201    
     31000   311.65268     -2487.9518      27.151599     -2460.8002      20813.201    
     32000   299.52208     -2486.7894      26.094764     -2460.6946      20813.201    
     33000   295.90997     -2486.374       25.780072     -2460.5939      20813.201    
     34000   305.05548     -2487.0754      26.576842     -2460.4985      20813.201    
     35000   304.55312     -2486.9418      26.533075     -2460.4087      20813.201    
     36000   285.33597     -2485.1825      24.858852     -2460.3237      20813.201    
     37000   288.30735     -2485.3636      25.117722     -2460.2458      20813.201    
     38000   317.16838     -2487.808       27.632133     -2460.1759      20813.201    
     39000   303.10845     -2486.5203      26.407213     -2460.1131      20813.201    
     40000   300.26674     -2486.2176      26.15964      -2460.0579      20813.201    
     41000   305.04176     -2486.5874      26.575646     -2460.0117      20813.201    
     42000   303.73032     -2486.4359      26.461391     -2459.9745      20813.201    
     43000   311.52881     -2487.0874      27.140807     -2459.9466      20813.201    
     44000   308.06278     -2486.7669      26.838842     -2459.9281      20813.201    
     45000   304.7245      -2486.4682      26.548006     -2459.9202      20813.201    
     46000   310.1786      -2486.9473      27.023174     -2459.9241      20813.201    
     47000   311.69374     -2487.0955      27.155175     -2459.9404      20813.201    
     48000   297.77492     -2485.9123      25.94255      -2459.9697      20813.201    
     49000   311.25225     -2487.1311      27.116713     -2460.0144      20813.201    
     50000   309.96412     -2487.0807      27.004489     -2460.0763      20813.201    
Loop time of 34.7103 on 1 procs for 50000 steps with 675 atoms

Performance: 124.459 ns/day, 0.193 hours/ns, 1440.493 timesteps/s
100.0% CPU use with 1 MPI tasks x 1 OpenMP threads

MPI task timing breakdown:
Section |  min time  |  avg time  |  max time  |%varavg| %total
---------------------------------------------------------------
Pair    | 33.965     | 33.965     | 33.965     |   0.0 | 97.85
Neigh   | 0.003846   | 0.003846   | 0.003846   |   0.0 |  0.01
Comm    | 0.005885   | 0.005885   | 0.005885   |   0.0 |  0.02
Output  | 0.10041    | 0.10041    | 0.10041    |   0.0 |  0.29
Modify  | 0.53504    | 0.53504    | 0.53504    |   0.0 |  1.54
Other   |            | 0.09983    |            |       |  0.29

Nlocal:            675 ave         675 max         675 min
Histogram: 1 0 0 0 0 0 0 0 0 0
Nghost:              0 ave           0 max           0 min
Histogram: 1 0 0 0 0 0 0 0 0 0
Neighs:          24802 ave       24802 max       24802 min
Histogram: 1 0 0 0 0 0 0 0 0 0

Total # of neighbors = 24802
Ave neighs/atom = 36.743704
Neighbor list builds = 6
Dangerous builds = 0
Total wall time: 0:00:34
