LAMMPS (15 Sep 2022)
OMP_NUM_THREADS environment is not set. Defaulting to 1 thread. (src/comm.cpp:98)
  using 1 OpenMP thread(s) per MPI task
Loaded 1 plugins from C:\Users\becat\AppData\Local\LAMMPS 64-bit 15Sep2022\plugins
Lattice spacing in x,y,z = 4.079 4.079 4.079
Created orthogonal box = (0 0 0) to (40.79 40.79 40.79)
  1 by 1 by 1 MPI processor grid
Read molecule template np:
  1 molecules
  0 fragments
  40 atoms with max type 1
  0 bonds with max type 0
  0 angles with max type 0
  0 dihedrals with max type 0
  0 impropers with max type 0
Created 40 atoms
  using lattice units in orthogonal box = (15.894262 15.702988 15.714612) to (24.837787 25.003002 24.960839)
  create_atoms CPU = 0.000 seconds
Neighbor list info ...
  update: every = 1 steps, delay = 10 steps, check = yes
  max neighbors/atom: 2000, page size: 100000
  master list distance cutoff = 7.55
  ghost atom cutoff = 7.55
  binsize = 3.775, bins = 3 3 3
  1 neighbor lists, perpetual/occasional/extra = 1 0 0
  (1) pair eam, perpetual
      attributes: half, newton on
      pair build: half/bin/atomonly/newton
      stencil: half/bin/3d
      bin: standard
Setting up Verlet run ...
  Unit style    : metal
  Current step  : 0
  Time step     : 0.001
Per MPI rank memory allocation (min/avg/max) = 4.537 | 4.537 | 4.537 Mbytes
   Step          Temp          PotEng         KinEng         TotEng         Volume    
         0   300           -135.37441      1.5123437     -133.86207      769.05401    
      1000   210.11763     -134.91787      1.0592336     -133.85864      769.05401    
      2000   209.6125      -134.90489      1.0566871     -133.84821      769.05401    
      3000   188.85073     -134.78255      0.95202404    -133.83053      769.05401    
      4000   206.11178     -134.84472      1.0390395     -133.80568      769.05401    
      5000   223.2519      -134.89891      1.1254453     -133.77347      769.05401    
      6000   211.53071     -134.80039      1.0663571     -133.73404      769.05401    
      7000   242.51239     -134.91228      1.2225403     -133.68974      769.05401    
      8000   219.13126     -134.74779      1.1046726     -133.64312      769.05401    
      9000   199.82271     -134.60275      1.0073354     -133.59542      769.05401    
     10000   226.0008      -134.68871      1.139303      -133.54941      769.05401    
     11000   236.39275     -134.69984      1.1916903     -133.50815      769.05401    
     12000   212.41623     -134.54177      1.0708212     -133.47095      769.05401    
     13000   224.333       -134.56762      1.1308953     -133.43673      769.05401    
     14000   210.30463     -134.46534      1.0601763     -133.40516      769.05401    
     15000   226.75901     -134.51777      1.1431252     -133.37464      769.05401    
     16000   245.06055     -134.57969      1.2353859     -133.34431      769.05401    
     17000   236.6344      -134.50629      1.1929085     -133.31338      769.05401    
     18000   268.86133     -134.63614      1.3553691     -133.28077      769.05401    
     19000   262.12861     -134.56805      1.3214285     -133.24662      769.05401    
     20000   264.55852     -134.54598      1.333678      -133.2123       769.05401    
     21000   295.09014     -134.66245      1.4875924     -133.17486      769.05401    
     22000   254.91003     -134.42227      1.2850386     -133.13723      769.05401    
     23000   250.75941     -134.362        1.2641147     -133.09789      769.05401    
     24000   297.71221     -134.55781      1.5008106     -133.057        769.05401    
     25000   287.67137     -134.4658       1.4501933     -133.01561      769.05401    
     26000   293.6861      -134.45477      1.4805144     -132.97425      769.05401    
     27000   300.26887     -134.4469       1.5136991     -132.9332       769.05401    
     28000   268.37915     -134.24555      1.3529384     -132.89261      769.05401    
     29000   295.52031     -134.34251      1.4897609     -132.85275      769.05401    
     30000   321.7894      -134.43606      1.6221872     -132.81388      769.05401    
     31000   326.48303     -134.42224      1.6458485     -132.77639      769.05401    
     32000   292.93813     -134.21674      1.4767438     -132.74         769.05401    
     33000   313.37715     -134.28472      1.5797799     -132.70494      769.05401    
     34000   330.90026     -134.33939      1.6681164     -132.67127      769.05401    
     35000   340.20135     -134.35552      1.7150046     -132.64052      769.05401    
     36000   278.84674     -134.01627      1.405707      -132.61056      769.05401    
     37000   325.19683     -134.22258      1.6393646     -132.58321      769.05401    
     38000   320.72774     -134.17471      1.6168352     -132.55787      769.05401    
     39000   311.1004      -134.10266      1.5683024     -132.53436      769.05401    
     40000   363.34316     -134.34531      1.8316658     -132.51364      769.05401    
     41000   345.87998     -134.238        1.7436314     -132.49437      769.05401    
     42000   353.25118     -134.25825      1.7807907     -132.47746      769.05401    
     43000   341.66728     -134.18544      1.7223945     -132.46304      769.05401    
     44000   347.856       -134.20486      1.7535928     -132.45126      769.05401    
     45000   278.63178     -133.84664      1.4046234     -132.44202      769.05401    
     46000   327.95813     -134.08842      1.6532847     -132.43513      769.05401    
     47000   409.44467     -134.49532      2.0640702     -132.43125      769.05401    
     48000   319.40525     -134.04075      1.6101684     -132.43058      769.05401    
     49000   291.83844     -133.9041       1.4712001     -132.4329       769.05401    
     50000   317.42784     -134.03833      1.6002        -132.43813      769.05401    
Loop time of 1.57074 on 1 procs for 50000 steps with 40 atoms

Performance: 2750.296 ns/day, 0.009 hours/ns, 31832.130 timesteps/s
95.5% CPU use with 1 MPI tasks x 1 OpenMP threads

MPI task timing breakdown:
Section |  min time  |  avg time  |  max time  |%varavg| %total
---------------------------------------------------------------
Pair    | 1.4233     | 1.4233     | 1.4233     |   0.0 | 90.61
Neigh   | 0          | 0          | 0          |   0.0 |  0.00
Comm    | 0.018325   | 0.018325   | 0.018325   |   0.0 |  1.17
Output  | 0.011208   | 0.011208   | 0.011208   |   0.0 |  0.71
Modify  | 0.096568   | 0.096568   | 0.096568   |   0.0 |  6.15
Other   |            | 0.02136    |            |       |  1.36

Nlocal:             40 ave          40 max          40 min
Histogram: 1 0 0 0 0 0 0 0 0 0
Nghost:              0 ave           0 max           0 min
Histogram: 1 0 0 0 0 0 0 0 0 0
Neighs:            675 ave         675 max         675 min
Histogram: 1 0 0 0 0 0 0 0 0 0

Total # of neighbors = 675
Ave neighs/atom = 16.875
Neighbor list builds = 0
Dangerous builds = 0
Total wall time: 0:00:01
