LAMMPS (15 Sep 2022)
OMP_NUM_THREADS environment is not set. Defaulting to 1 thread. (src/comm.cpp:98)
  using 1 OpenMP thread(s) per MPI task
Loaded 1 plugins from C:\Users\becat\AppData\Local\LAMMPS 64-bit 15Sep2022\plugins
Lattice spacing in x,y,z = 4.079 4.079 4.079
Created orthogonal box = (0 0 0) to (40.79 40.79 40.79)
  1 by 1 by 1 MPI processor grid
Read molecule template np:
  1 molecules
  0 fragments
  38 atoms with max type 1
  0 bonds with max type 0
  0 angles with max type 0
  0 dihedrals with max type 0
  0 impropers with max type 0
Created 38 atoms
  using lattice units in orthogonal box = (16.333877 16.508212 16.010739) to (24.516951 24.522357 24.797214)
  create_atoms CPU = 0.000 seconds
Neighbor list info ...
  update: every = 1 steps, delay = 10 steps, check = yes
  max neighbors/atom: 2000, page size: 100000
  master list distance cutoff = 7.55
  ghost atom cutoff = 7.55
  binsize = 3.775, bins = 3 3 3
  1 neighbor lists, perpetual/occasional/extra = 1 0 0
  (1) pair eam, perpetual
      attributes: half, newton on
      pair build: half/bin/atomonly/newton
      stencil: half/bin/3d
      bin: standard
Setting up Verlet run ...
  Unit style    : metal
  Current step  : 0
  Time step     : 0.001
Per MPI rank memory allocation (min/avg/max) = 4.537 | 4.537 | 4.537 Mbytes
   Step          Temp          PotEng         KinEng         TotEng         Volume    
         0   300           -127.72245      1.4347876     -126.28766      576.22003    
      1000   231.83856     -127.39327      1.108797      -126.28447      556.39737    
      2000   208.09722     -127.27094      0.99525105    -126.27569      556.39737    
      3000   240.69271     -127.41249      1.1511431     -126.26134      556.39737    
      4000   199.15086     -127.19269      0.95246397    -126.24023      556.39737    
      5000   241.63476     -127.36929      1.1556485     -126.21364      556.39737    
      6000   217.10925     -127.2183       1.0383522     -126.17995      556.39737    
      7000   258.07263     -127.37579      1.2342647     -126.14152      556.39737    
      8000   269.07911     -127.38488      1.2869046     -126.09798      556.39737    
      9000   220.45124     -127.10633      1.0543357     -126.052        556.39737    
     10000   241.93123     -127.16126      1.1570664     -126.0042       556.39737    
     11000   219.99061     -127.01096      1.0521327     -125.95883      556.39737    
     12000   266.41555     -127.19085      1.2741658     -125.91668      556.39737    
     13000   321.01796     -127.41417      1.5353086     -125.87886      556.39737    
     14000   300.00717     -127.28063      1.4348219     -125.84581      556.39737    
     15000   245.7607      -126.99231      1.1753813     -125.81693      556.39737    
     16000   260.08077     -127.03366      1.2438689     -125.78979      556.39737    
     17000   256.46515     -126.99244      1.2265767     -125.76587      556.39737    
     18000   284.65312     -127.1038       1.3613892     -125.74241      556.39737    
     19000   282.56583     -127.07136      1.3514065     -125.71995      556.39737    
     20000   294.03412     -127.10423      1.406255      -125.69797      556.39737    
     21000   276.33277     -126.99696      1.3215961     -125.67537      556.39737    
     22000   312.81675     -127.14927      1.4960853     -125.65319      556.39737    
     23000   325.46467     -127.1863       1.5565756     -125.62972      556.39737    
     24000   321.05073     -127.14182      1.5354653     -125.60636      556.39737    
     25000   343.30872     -127.22444      1.641917      -125.58253      603.34624    
     26000   327.37006     -127.12293      1.5656884     -125.55724      605.38639    
     27000   299.05098     -126.96227      1.4302488     -125.53202      605.38639    
     28000   279.73325     -126.84405      1.3378593     -125.50619      605.38639    
     29000   291.46492     -126.87465      1.3939675     -125.48068      605.38639    
     30000   312.35322     -126.9493       1.4938684     -125.45543      605.38639    
     31000   320.50398     -126.96396      1.5328505     -125.43111      605.38639    
     32000   260.06854     -126.65061      1.2438104     -125.4068       605.38639    
     33000   319.3259      -126.90914      1.5272162     -125.38192      605.38639    
     34000   272.08719     -126.66013      1.3012911     -125.35884      605.38639    
     35000   303.18987     -126.78592      1.4500436     -125.33587      535.60767    
     36000   326.64157     -126.87575      1.5622043     -125.31354      535.60767    
     37000   306.75191     -126.75977      1.4670795     -125.29269      596.60706    
     38000   361.14549     -127.00078      1.7272236     -125.27356      596.60706    
     39000   347.46453     -126.91752      1.6617927     -125.25573      596.60706    
     40000   322.23917     -126.78122      1.5411492     -125.24007      572.91625    
     41000   346.63195     -126.88308      1.6578107     -125.22527      572.91625    
     42000   284.61331     -126.5744       1.3611989     -125.2132       572.91625    
     43000   306.89681     -126.67015      1.4677725     -125.20238      586.47376    
     44000   363.4029      -126.93134      1.7380199     -125.19332      586.47376    
     45000   363.20425     -126.92378      1.7370699     -125.18671      586.47376    
     46000   324.11873     -126.73233      1.5501385     -125.1822       586.47376    
     47000   350.00411     -126.85434      1.6739385     -125.1804       586.47376    
     48000   307.62068     -126.65266      1.4712345     -125.18143      586.47376    
     49000   278.34076     -126.51527      1.3311996     -125.18407      594.22392    
     50000   352.41435     -126.8756       1.6854658     -125.19013      592.91593    
Loop time of 1.49887 on 1 procs for 50000 steps with 38 atoms

Performance: 2882.175 ns/day, 0.008 hours/ns, 33358.508 timesteps/s
100.1% CPU use with 1 MPI tasks x 1 OpenMP threads

MPI task timing breakdown:
Section |  min time  |  avg time  |  max time  |%varavg| %total
---------------------------------------------------------------
Pair    | 1.3562     | 1.3562     | 1.3562     |   0.0 | 90.48
Neigh   | 0.000135   | 0.000135   | 0.000135   |   0.0 |  0.01
Comm    | 0.007254   | 0.007254   | 0.007254   |   0.0 |  0.48
Output  | 0.013524   | 0.013524   | 0.013524   |   0.0 |  0.90
Modify  | 0.10083    | 0.10083    | 0.10083    |   0.0 |  6.73
Other   |            | 0.02089    |            |       |  1.39

Nlocal:             38 ave          38 max          38 min
Histogram: 1 0 0 0 0 0 0 0 0 0
Nghost:              0 ave           0 max           0 min
Histogram: 1 0 0 0 0 0 0 0 0 0
Neighs:            612 ave         612 max         612 min
Histogram: 1 0 0 0 0 0 0 0 0 0

Total # of neighbors = 612
Ave neighs/atom = 16.105263
Neighbor list builds = 9
Dangerous builds = 0
Total wall time: 0:00:01
