LAMMPS (15 Sep 2022)
OMP_NUM_THREADS environment is not set. Defaulting to 1 thread. (src/comm.cpp:98)
  using 1 OpenMP thread(s) per MPI task
Loaded 1 plugins from C:\Users\becat\AppData\Local\LAMMPS 64-bit 15Sep2022\plugins
Lattice spacing in x,y,z = 4.079 4.079 4.079
Created orthogonal box = (0 0 0) to (40.79 40.79 40.79)
  1 by 1 by 1 MPI processor grid
Read molecule template np:
  1 molecules
  0 fragments
  585 atoms with max type 1
  0 bonds with max type 0
  0 angles with max type 0
  0 dihedrals with max type 0
  0 impropers with max type 0
Created 585 atoms
  using lattice units in orthogonal box = (6.7271909 6.4219577 8.6135055) to (33.027149 34.318145 32.176495)
  create_atoms CPU = 0.000 seconds
Neighbor list info ...
  update: every = 1 steps, delay = 10 steps, check = yes
  max neighbors/atom: 2000, page size: 100000
  master list distance cutoff = 7.55
  ghost atom cutoff = 7.55
  binsize = 3.775, bins = 7 8 7
  1 neighbor lists, perpetual/occasional/extra = 1 0 0
  (1) pair eam, perpetual
      attributes: half, newton on
      pair build: half/bin/atomonly/newton
      stencil: half/bin/3d
      bin: standard
Setting up Verlet run ...
  Unit style    : metal
  Current step  : 0
  Time step     : 0.001
Per MPI rank memory allocation (min/avg/max) = 4.571 | 4.571 | 4.571 Mbytes
   Step          Temp          PotEng         KinEng         TotEng         Volume    
         0   300           -2152.4987      22.646377     -2129.8523      17287.424    
      1000   285.5482      -2151.3955      21.555441     -2129.8401      17287.424    
      2000   286.80242     -2151.4487      21.65012      -2129.7986      17287.424    
      3000   279.00705     -2150.7911      21.061663     -2129.7294      17287.424    
      4000   277.78274     -2150.6007      20.969242     -2129.6314      17287.424    
      5000   295.85981     -2151.8363      22.333843     -2129.5024      17287.424    
      6000   285.76809     -2150.9165      21.57204      -2129.3445      17287.424    
      7000   286.56173     -2150.7939      21.63195      -2129.1619      17287.424    
      8000   292.01164     -2151.003       22.043352     -2128.9596      17287.424    
      9000   281.32114     -2149.9816      21.236349     -2128.7453      15941.423    
     10000   280.45435     -2149.6994      21.170917     -2128.5285      16348.594    
     11000   281.60142     -2149.578       21.257506     -2128.3204      16348.594    
     12000   296.26755     -2150.4942      22.364623     -2128.1296      16348.594    
     13000   282.41723     -2149.2797      21.31909      -2127.9606      16348.594    
     14000   286.79692     -2149.4647      21.649704     -2127.815       16348.594    
     15000   289.12389     -2149.5131      21.825363     -2127.6877      16348.594    
     16000   288.319       -2149.3411      21.764603     -2127.5765      16348.594    
     17000   314.90934     -2151.2487      23.771852     -2127.4768      16348.594    
     18000   301.44966     -2150.1422      22.755809     -2127.3864      16348.594    
     19000   296.8296      -2149.7092      22.407051     -2127.3021      16348.594    
     20000   303.01495     -2150.0966      22.873969     -2127.2226      16348.594    
     21000   293.93671     -2149.3337      22.188672     -2127.1451      16348.594    
     22000   303.36296     -2149.9691      22.90024      -2127.0689      16348.594    
     23000   307.38921     -2150.1977      23.204173     -2126.9935      16348.594    
     24000   300.77035     -2149.6226      22.704529     -2126.9181      16348.594    
     25000   316.89211     -2150.7642      23.921527     -2126.8426      16348.594    
     26000   291.41614     -2148.7659      21.998399     -2126.7675      16348.594    
     27000   299.92758     -2149.3335      22.640911     -2126.6926      16348.594    
     28000   304.20599     -2149.5816      22.963879     -2126.6177      16348.594    
     29000   298.91846     -2149.1086      22.564734     -2126.5438      16348.594    
     30000   303.2871      -2149.3657      22.894514     -2126.4712      15952.32     
     31000   301.95171     -2149.1939      22.793708     -2126.4002      15952.32     
     32000   300.97597     -2149.0502      22.720052     -2126.3301      15952.32     
     33000   302.6868      -2149.1103      22.849198     -2126.2611      15952.32     
     34000   302.75178     -2149.0487      22.854104     -2126.1946      15952.32     
     35000   305.12078     -2149.1634      23.032935     -2126.1305      15952.32     
     36000   283.66872     -2147.4831      21.413563     -2126.0696      15952.32     
     37000   291.19573     -2147.9944      21.981761     -2126.0127      15952.32     
     38000   290.86713     -2147.9168      21.956956     -2125.9599      15952.32     
     39000   300.26159     -2148.5775      22.666124     -2125.9114      15923.359    
     40000   300.00791     -2148.5137      22.646974     -2125.8667      15923.359    
     41000   300.98544     -2148.5479      22.720766     -2125.8272      15923.359    
     42000   303.38429     -2148.695       22.90185      -2125.7931      15923.359    
     43000   311.0724      -2149.2466      23.48221      -2125.7644      15923.359    
     44000   294.31948     -2147.9595      22.217567     -2125.7419      15923.359    
     45000   310.06133     -2149.132       23.405886     -2125.7262      15923.359    
     46000   305.76869     -2148.8002      23.081844     -2125.7184      15923.359    
     47000   289.99081     -2147.6099      21.890804     -2125.7191      15923.359    
     48000   302.13014     -2148.5359      22.807178     -2125.7287      15923.359    
     49000   306.51086     -2148.8868      23.137869     -2125.749       15923.359    
     50000   299.13839     -2148.3635      22.581336     -2125.7822      15923.359    
Loop time of 35.1918 on 1 procs for 50000 steps with 585 atoms

Performance: 122.756 ns/day, 0.196 hours/ns, 1420.786 timesteps/s
100.0% CPU use with 1 MPI tasks x 1 OpenMP threads

MPI task timing breakdown:
Section |  min time  |  avg time  |  max time  |%varavg| %total
---------------------------------------------------------------
Pair    | 34.412     | 34.412     | 34.412     |   0.0 | 97.78
Neigh   | 0.002821   | 0.002821   | 0.002821   |   0.0 |  0.01
Comm    | 0.007438   | 0.007438   | 0.007438   |   0.0 |  0.02
Output  | 0.10326    | 0.10326    | 0.10326    |   0.0 |  0.29
Modify  | 0.55899    | 0.55899    | 0.55899    |   0.0 |  1.59
Other   |            | 0.1076     |            |       |  0.31

Nlocal:            585 ave         585 max         585 min
Histogram: 1 0 0 0 0 0 0 0 0 0
Nghost:              0 ave           0 max           0 min
Histogram: 1 0 0 0 0 0 0 0 0 0
Neighs:          21516 ave       21516 max       21516 min
Histogram: 1 0 0 0 0 0 0 0 0 0

Total # of neighbors = 21516
Ave neighs/atom = 36.779487
Neighbor list builds = 4
Dangerous builds = 0
Total wall time: 0:00:35
