LAMMPS (15 Sep 2022)
OMP_NUM_THREADS environment is not set. Defaulting to 1 thread. (src/comm.cpp:98)
  using 1 OpenMP thread(s) per MPI task
Loaded 1 plugins from C:\Users\becat\AppData\Local\LAMMPS 64-bit 15Sep2022\plugins
Lattice spacing in x,y,z = 4.079 4.079 4.079
Created orthogonal box = (0 0 0) to (40.79 40.79 40.79)
  1 by 1 by 1 MPI processor grid
Read molecule template np:
  1 molecules
  0 fragments
  1067 atoms with max type 1
  0 bonds with max type 0
  0 angles with max type 0
  0 dihedrals with max type 0
  0 impropers with max type 0
Created 1067 atoms
  using lattice units in orthogonal box = (3.4099634 2.9287961 5.9963022) to (37.04788 37.845196 34.793699)
  create_atoms CPU = 0.000 seconds
Neighbor list info ...
  update: every = 1 steps, delay = 10 steps, check = yes
  max neighbors/atom: 2000, page size: 100000
  master list distance cutoff = 7.55
  ghost atom cutoff = 7.55
  binsize = 3.775, bins = 9 10 8
  1 neighbor lists, perpetual/occasional/extra = 1 0 0
  (1) pair eam, perpetual
      attributes: half, newton on
      pair build: half/bin/atomonly/newton
      stencil: half/bin/3d
      bin: standard
Setting up Verlet run ...
  Unit style    : metal
  Current step  : 0
  Time step     : 0.001
Per MPI rank memory allocation (min/avg/max) = 4.6 | 4.6 | 4.6 Mbytes
   Step          Temp          PotEng         KinEng         TotEng         Volume    
         0   300           -3978.755       41.337394     -3937.4176      33822.972    
      1000   248.83101     -3971.645       34.286752     -3937.3583      33822.972    
      2000   242.93055     -3970.6589      33.47372      -3937.1852      31255.359    
      3000   244.17517     -3970.5419      33.645218     -3936.8967      31255.359    
      4000   253.66144     -3971.4659      34.952344     -3936.5136      31255.359    
      5000   252.04827     -3970.8143      34.730062     -3936.0842      31255.359    
      6000   253.02581     -3970.5164      34.864759     -3935.6516      31255.359    
      7000   259.34639     -3970.991       35.73568      -3935.2554      31255.359    
      8000   259.02012     -3970.5935      35.690723     -3934.9028      31803.946    
      9000   257.20596     -3970.0055      35.440747     -3934.5648      31955.912    
     10000   263.19255     -3970.4911      36.265647     -3934.2254      31955.912    
     11000   269.96065     -3971.0693      37.198233     -3933.8711      31955.912    
     12000   256.93589     -3968.8962      35.403534     -3933.4927      31955.912    
     13000   262.64565     -3969.2784      36.190289     -3933.0881      31955.912    
     14000   267.26481     -3969.4935      36.826769     -3932.6668      31955.912    
     15000   266.92083     -3969.0104      36.779373     -3932.231       31955.912    
     16000   268.79639     -3968.8222      37.037808     -3931.7844      31955.912    
     17000   264.6575      -3967.8048      36.467505     -3931.3373      31955.912    
     18000   268.66002     -3967.9101      37.019017     -3930.8911      31955.912    
     19000   275.3885      -3968.3888      37.946143     -3930.4426      31955.912    
     20000   276.2902      -3968.0712      38.07039      -3930.0008      31955.912    
     21000   271.60173     -3966.9838      37.424359     -3929.5595      31955.912    
     22000   285.60157     -3968.4732      39.353416     -3929.1198      31955.912    
     23000   286.54521     -3968.1684      39.483441     -3928.6849      31955.912    
     24000   274.13187     -3966.0294      37.77299      -3928.2564      31955.912    
     25000   278.03225     -3966.1376      38.310429     -3927.8272      31955.912    
     26000   279.23172     -3965.8832      38.475706     -3927.4075      31955.912    
     27000   283.31006     -3966.0317      39.037665     -3926.994       31955.912    
     28000   290.90672     -3966.6689      40.084419     -3926.5845      31955.912    
     29000   292.10869     -3966.4338      40.250041     -3926.1838      31887.882    
     30000   291.76523     -3965.9953      40.202714     -3925.7926      31887.882    
     31000   291.07218     -3965.5155      40.107218     -3925.4083      31887.882    
     32000   295.16331     -3965.7049      40.670941     -3925.0339      31551.745    
     33000   283.8169      -3963.7771      39.107504     -3924.6696      31923.093    
     34000   296.20365     -3965.1275      40.81429      -3924.3132      31923.093    
     35000   305.61264     -3966.0808      42.110767     -3923.9701      31923.093    
     36000   302.16952     -3965.277       41.636335     -3923.6407      31923.093    
     37000   305.07046     -3965.3576      42.03606      -3923.3216      31855.803    
     38000   303.99176     -3964.9038      41.887424     -3923.0164      31707.229    
     39000   300.91478     -3964.191       41.463443     -3922.7275      31707.229    
     40000   301.7607      -3964.0297      41.580004     -3922.4497      31935.652    
     41000   294.82746     -3962.8118      40.624663     -3922.1871      31732.322    
     42000   303.02326     -3963.6964      41.753973     -3921.9425      31355.881    
     43000   302.24516     -3963.3573      41.646758     -3921.7106      31355.881    
     44000   306.56294     -3963.7389      42.241711     -3921.4972      31355.881    
     45000   306.24091     -3963.4991      42.197338     -3921.3018      31355.881    
     46000   299.25959     -3962.3585      41.235373     -3921.1231      31355.881    
     47000   313.03897     -3964.0998      43.134051     -3920.9657      31355.881    
     48000   300.22146     -3962.1963      41.36791      -3920.8283      31814.939    
     49000   316.46628     -3964.3175      43.606305     -3920.7112      31431.683    
     50000   310.41427     -3963.3881      42.77239      -3920.6157      31431.683    
Loop time of 58.7277 on 1 procs for 50000 steps with 1067 atoms

Performance: 73.560 ns/day, 0.326 hours/ns, 851.387 timesteps/s
99.7% CPU use with 1 MPI tasks x 1 OpenMP threads

MPI task timing breakdown:
Section |  min time  |  avg time  |  max time  |%varavg| %total
---------------------------------------------------------------
Pair    | 57.518     | 57.518     | 57.518     |   0.0 | 97.94
Neigh   | 0.016807   | 0.016807   | 0.016807   |   0.0 |  0.03
Comm    | 0.007581   | 0.007581   | 0.007581   |   0.0 |  0.01
Output  | 0.16313    | 0.16313    | 0.16313    |   0.0 |  0.28
Modify  | 0.85958    | 0.85958    | 0.85958    |   0.0 |  1.46
Other   |            | 0.1625     |            |       |  0.28

Nlocal:           1067 ave        1067 max        1067 min
Histogram: 1 0 0 0 0 0 0 0 0 0
Nghost:              0 ave           0 max           0 min
Histogram: 1 0 0 0 0 0 0 0 0 0
Neighs:          41576 ave       41576 max       41576 min
Histogram: 1 0 0 0 0 0 0 0 0 0

Total # of neighbors = 41576
Ave neighs/atom = 38.965323
Neighbor list builds = 15
Dangerous builds = 0
Total wall time: 0:00:58
