LAMMPS (15 Sep 2022)
OMP_NUM_THREADS environment is not set. Defaulting to 1 thread. (src/comm.cpp:98)
  using 1 OpenMP thread(s) per MPI task
Loaded 1 plugins from C:\Users\becat\AppData\Local\LAMMPS 64-bit 15Sep2022\plugins
Lattice spacing in x,y,z = 4.079 4.079 4.079
Created orthogonal box = (0 0 0) to (40.79 40.79 40.79)
  1 by 1 by 1 MPI processor grid
Read molecule template np:
  1 molecules
  0 fragments
  1415 atoms with max type 1
  0 bonds with max type 0
  0 angles with max type 0
  0 dihedrals with max type 0
  0 impropers with max type 0
Created 1415 atoms
  using lattice units in orthogonal box = (2.0472949 1.0336904 2.0704968) to (35.699172 39.609679 38.719504)
  create_atoms CPU = 0.001 seconds
Neighbor list info ...
  update: every = 1 steps, delay = 10 steps, check = yes
  max neighbors/atom: 2000, page size: 100000
  master list distance cutoff = 7.55
  ghost atom cutoff = 7.55
  binsize = 3.775, bins = 9 11 10
  1 neighbor lists, perpetual/occasional/extra = 1 0 0
  (1) pair eam, perpetual
      attributes: half, newton on
      pair build: half/bin/atomonly/newton
      stencil: half/bin/3d
      bin: standard
Setting up Verlet run ...
  Unit style    : metal
  Current step  : 0
  Time step     : 0.001
Per MPI rank memory allocation (min/avg/max) = 4.621 | 4.621 | 4.621 Mbytes
   Step          Temp          PotEng         KinEng         TotEng         Volume    
         0   300           -5285.4842      54.832154     -5230.6521      47576.071    
      1000   244.07899     -5275.1795      44.611255     -5230.5682      43900.305    
      2000   232.5316      -5272.8234      42.500694     -5230.3227      46013.397    
      3000   246.73673     -5275.0191      45.097021     -5229.922       44381.653    
      4000   239.17381     -5273.1193      43.714716     -5229.4046      44268.454    
      5000   243.10472     -5273.2869      44.433185     -5228.8537      43578.012    
      6000   250.99807     -5274.2117      45.875882     -5228.3358      44521.686    
      7000   247.61523     -5273.1304      45.257587     -5227.8728      43924.292    
      8000   254.36141     -5273.9251      46.490612     -5227.4345      43512.203    
      9000   256.34669     -5273.8459      46.85347      -5226.9924      44665.895    
     10000   260.21897     -5274.0824      47.561222     -5226.5212      43053.035    
     11000   257.42063     -5273.0613      47.049759     -5226.0115      42905.345    
     12000   249.79316     -5271.1238      45.655655     -5225.4681      43674.606    
     13000   257.91226     -5272.0381      47.139616     -5224.8985      43641.989    
     14000   263.6801      -5272.5064      48.193825     -5224.3126      44330.078    
     15000   267.24843     -5272.5665      48.846023     -5223.7205      44086.798    
     16000   264.3815      -5271.4467      48.322023     -5223.1247      44524.749    
     17000   275.85453     -5272.9476      50.418992     -5222.5286      44155.882    
     18000   272.01974     -5271.6471      49.718093     -5221.929       43997.495    
     19000   274.03731     -5271.4163      50.086854     -5221.3294      44203.507    
     20000   273.33998     -5270.6899      49.959399     -5220.7305      44203.507    
     21000   273.40871     -5270.1049      49.971961     -5220.133       44203.507    
     22000   268.35661     -5268.5841      49.048569     -5219.5355      44875.846    
     23000   274.27558     -5269.0712      50.130402     -5218.9408      44074.968    
     24000   274.82387     -5268.5801      50.230615     -5218.3494      44087.946    
     25000   276.34026     -5268.2719      50.507772     -5217.7641      44022.265    
     26000   272.66139     -5267.0176      49.835371     -5217.1822      44718.572    
     27000   283.75391     -5268.4691      51.862793     -5216.6063      44294.096    
     28000   281.52072     -5267.4922      51.454624     -5216.0376      44142.48     
     29000   280.99464     -5266.8343      51.358471     -5215.4758      43693.73     
     30000   281.78951     -5266.4283      51.503751     -5214.9245      44055.276    
     31000   283.07516     -5266.1208      51.738735     -5214.382       44393.813    
     32000   287.54154     -5266.4049      52.555073     -5213.8498      43841.906    
     33000   291.83439     -5266.6692      53.339693     -5213.3295      44219.553    
     34000   287.59529     -5265.3822      52.564897     -5212.8174      44188.538    
     35000   286.85266     -5264.7474      52.429164     -5212.3183      44175.141    
     36000   294.54958     -5265.6679      53.83596      -5211.832       44833.42     
     37000   293.77279     -5265.0545      53.693982     -5211.3605      44479.15     
     38000   293.32938     -5264.518       53.612938     -5210.905       44113.944    
     39000   292.63264     -5263.9509      53.485593     -5210.4653      44030.015    
     40000   301.96499     -5265.2314      55.191302     -5210.0401      44073.381    
     41000   295.95092     -5263.7262      54.092087     -5209.6341      44125.918    
     42000   301.17579     -5264.2927      55.047057     -5209.2456      43704.002    
     43000   316.65144     -5266.7533      57.875602     -5208.8777      44388.293    
     44000   303.63402     -5264.0246      55.496356     -5208.5283      44247.769    
     45000   307.61049     -5264.4236      56.223152     -5208.2004      44390.595    
     46000   308.15121     -5264.2158      56.321981     -5207.8939      43798.021    
     47000   293.49527     -5261.2538      53.643259     -5207.6106      43920.968    
     48000   298.46634     -5261.9013      54.55184      -5207.3495      44479.85     
     49000   305.30298     -5262.913       55.8014       -5207.1116      44430.371    
     50000   308.9327      -5263.3632      56.464818     -5206.8984      43886.967    
Loop time of 176.52 on 1 procs for 50000 steps with 1415 atoms

Performance: 24.473 ns/day, 0.981 hours/ns, 283.255 timesteps/s
99.5% CPU use with 1 MPI tasks x 1 OpenMP threads

MPI task timing breakdown:
Section |  min time  |  avg time  |  max time  |%varavg| %total
---------------------------------------------------------------
Pair    | 172.59     | 172.59     | 172.59     |   0.0 | 97.77
Neigh   | 0.27051    | 0.27051    | 0.27051    |   0.0 |  0.15
Comm    | 0.031312   | 0.031312   | 0.031312   |   0.0 |  0.02
Output  | 0.46605    | 0.46605    | 0.46605    |   0.0 |  0.26
Modify  | 2.6451     | 2.6451     | 2.6451     |   0.0 |  1.50
Other   |            | 0.5185     |            |       |  0.29

Nlocal:           1415 ave        1415 max        1415 min
Histogram: 1 0 0 0 0 0 0 0 0 0
Nghost:              0 ave           0 max           0 min
Histogram: 1 0 0 0 0 0 0 0 0 0
Neighs:          56585 ave       56585 max       56585 min
Histogram: 1 0 0 0 0 0 0 0 0 0

Total # of neighbors = 56585
Ave neighs/atom = 39.989399
Neighbor list builds = 78
Dangerous builds = 0
Total wall time: 0:02:56
