LAMMPS (15 Sep 2022)
OMP_NUM_THREADS environment is not set. Defaulting to 1 thread. (src/comm.cpp:98)
  using 1 OpenMP thread(s) per MPI task
Loaded 1 plugins from C:\Users\becat\AppData\Local\LAMMPS 64-bit 15Sep2022\plugins
Lattice spacing in x,y,z = 4.079 4.079 4.079
Created orthogonal box = (0 0 0) to (40.79 40.79 40.79)
  1 by 1 by 1 MPI processor grid
Read molecule template np:
  1 molecules
  0 fragments
  1634 atoms with max type 1
  0 bonds with max type 0
  0 angles with max type 0
  0 dihedrals with max type 0
  0 impropers with max type 0
Created 1634 atoms
  using lattice units in orthogonal box = (0.78944806 0.16347614 3.3790988) to (39.233607 40.589573 37.410902)
  create_atoms CPU = 0.001 seconds
Neighbor list info ...
  update: every = 1 steps, delay = 10 steps, check = yes
  max neighbors/atom: 2000, page size: 100000
  master list distance cutoff = 7.55
  ghost atom cutoff = 7.55
  binsize = 3.775, bins = 11 11 10
  1 neighbor lists, perpetual/occasional/extra = 1 0 0
  (1) pair eam, perpetual
      attributes: half, newton on
      pair build: half/bin/atomonly/newton
      stencil: half/bin/3d
      bin: standard
Setting up Verlet run ...
  Unit style    : metal
  Current step  : 0
  Time step     : 0.001
Per MPI rank memory allocation (min/avg/max) = 4.635 | 4.635 | 4.635 Mbytes
   Step          Temp          PotEng         KinEng         TotEng         Volume    
         0   300           -6138.4576      63.324545     -6075.133       52890.435    
      1000   244.02378     -6126.528       51.508983     -6075.019       52890.435    
      2000   228.14601     -6122.8497      48.157474     -6074.6922      49508.612    
      3000   231.35352     -6122.9978      48.83452      -6074.1632      49508.612    
      4000   237.22124     -6123.6052      50.073089     -6073.5322      50143.724    
      5000   231.34405     -6121.7401      48.832523     -6072.9076      50143.724    
      6000   235.30223     -6122.0165      49.668022     -6072.3485      48780.312    
      7000   240.05795     -6122.4998      50.671867     -6071.8279      48780.312    
      8000   243.14256     -6122.6073      51.322973     -6071.2843      48780.312    
      9000   245.33791     -6122.4877      51.786371     -6070.7013      48780.312    
     10000   243.76951     -6121.5166      51.455312     -6070.0613      48780.312    
     11000   243.43914     -6120.7671      51.385576     -6069.3815      48780.312    
     12000   240.98353     -6119.5455      50.867242     -6068.6783      48780.312    
     13000   250.63479     -6120.8526      52.904447     -6067.9481      48780.312    
     14000   251.59492     -6120.3302      53.107113     -6067.2231      50488.058    
     15000   249.81715     -6119.21        52.731857     -6066.4781      50488.058    
     16000   251.25986     -6118.7713      53.036388     -6065.7349      50488.058    
     17000   249.86634     -6117.7234      52.742241     -6064.9811      50488.058    
     18000   261.58284     -6119.4321      55.21538      -6064.2168      50488.058    
     19000   258.19229     -6117.9576      54.499699     -6063.4579      50408.898    
     20000   263.31054     -6118.268       55.580068     -6062.6879      49180.756    
     21000   265.02699     -6117.8667      55.942379     -6061.9244      49180.756    
     22000   256.43794     -6115.2817      54.129387     -6061.1523      49180.756    
     23000   270.24191     -6117.4238      57.043154     -6060.3806      49180.756    
     24000   270.70959     -6116.7571      57.141873     -6059.6152      49180.756    
     25000   254.6051      -6112.5879      53.742508     -6058.8454      49180.756    
     26000   269.07209     -6114.8822      56.796225     -6058.0859      49180.756    
     27000   275.83905     -6115.5503      58.224607     -6057.3257      49180.756    
     28000   271.83262     -6113.9536      57.378923     -6056.5747      49180.756    
     29000   269.69445     -6112.7566      56.927595     -6055.8291      49180.756    
     30000   276.4665      -6113.443       58.357052     -6055.086       49180.756    
     31000   275.94003     -6112.6035      58.245924     -6054.3576      49180.756    
     32000   286.89614     -6114.1901      60.558558     -6053.6315      49716.214    
     33000   284.79811     -6113.0345      60.115703     -6052.9188      49716.214    
     34000   280.00236     -6111.3211      59.103408     -6052.2177      49558.574    
     35000   296.0894      -6114.0253      62.499089     -6051.5262      50229.83     
     36000   283.5389      -6110.702       59.849906     -6050.8521      50229.83     
     37000   293.33557     -6112.1015      61.917804     -6050.1837      50087.758    
     38000   281.0096      -6108.8554      59.316017     -6049.5394      50087.758    
     39000   296.13999     -6111.4135      62.509767     -6048.9038      50087.758    
     40000   292.5072      -6110.0311      61.742952     -6048.2882      50615.088    
     41000   290.29077     -6108.9655      61.275103     -6047.6904      50615.088    
     42000   295.94317     -6109.577       62.468223     -6047.1087      50876.795    
     43000   292.76815     -6108.3463      61.798033     -6046.5482      50876.795    
     44000   300.48578     -6109.4322      63.427084     -6046.0051      50876.795    
     45000   298.50174     -6108.4974      63.008289     -6045.4891      50876.795    
     46000   298.76954     -6108.0567      63.064818     -6044.9919      49957.408    
     47000   295.0773      -6106.8062      62.285453     -6044.5207      49721.686    
     48000   297.44568     -6106.8618      62.785375     -6044.0765      49582.1      
     49000   299.07646     -6106.7846      63.129603     -6043.655       49804.597    
     50000   305.98161     -6107.8507      64.587155     -6043.2635      50428.97     
Loop time of 186.889 on 1 procs for 50000 steps with 1634 atoms

Performance: 23.115 ns/day, 1.038 hours/ns, 267.538 timesteps/s
99.2% CPU use with 1 MPI tasks x 1 OpenMP threads

MPI task timing breakdown:
Section |  min time  |  avg time  |  max time  |%varavg| %total
---------------------------------------------------------------
Pair    | 183.06     | 183.06     | 183.06     |   0.0 | 97.95
Neigh   | 0.06566    | 0.06566    | 0.06566    |   0.0 |  0.04
Comm    | 0.024209   | 0.024209   | 0.024209   |   0.0 |  0.01
Output  | 0.50025    | 0.50025    | 0.50025    |   0.0 |  0.27
Modify  | 2.7147     | 2.7147     | 2.7147     |   0.0 |  1.45
Other   |            | 0.5199     |            |       |  0.28

Nlocal:           1634 ave        1634 max        1634 min
Histogram: 1 0 0 0 0 0 0 0 0 0
Nghost:              0 ave           0 max           0 min
Histogram: 1 0 0 0 0 0 0 0 0 0
Neighs:          65703 ave       65703 max       65703 min
Histogram: 1 0 0 0 0 0 0 0 0 0

Total # of neighbors = 65703
Ave neighs/atom = 40.209914
Neighbor list builds = 21
Dangerous builds = 0
Total wall time: 0:03:06
