LAMMPS (15 Sep 2022)
OMP_NUM_THREADS environment is not set. Defaulting to 1 thread. (src/comm.cpp:98)
  using 1 OpenMP thread(s) per MPI task
Loaded 1 plugins from C:\Users\becat\AppData\Local\LAMMPS 64-bit 15Sep2022\plugins
Lattice spacing in x,y,z = 4.079 4.079 4.079
Created orthogonal box = (0 0 0) to (40.79 40.79 40.79)
  1 by 1 by 1 MPI processor grid
Read molecule template np:
  1 molecules
  0 fragments
  561 atoms with max type 1
  0 bonds with max type 0
  0 angles with max type 0
  0 dihedrals with max type 0
  0 impropers with max type 0
Created 561 atoms
  using lattice units in orthogonal box = (7.2883313 6.5643227 7.3049035) to (31.327719 34.120936 33.485097)
  create_atoms CPU = 0.000 seconds
Neighbor list info ...
  update: every = 1 steps, delay = 10 steps, check = yes
  max neighbors/atom: 2000, page size: 100000
  master list distance cutoff = 7.55
  ghost atom cutoff = 7.55
  binsize = 3.775, bins = 7 8 7
  1 neighbor lists, perpetual/occasional/extra = 1 0 0
  (1) pair eam, perpetual
      attributes: half, newton on
      pair build: half/bin/atomonly/newton
      stencil: half/bin/3d
      bin: standard
Setting up Verlet run ...
  Unit style    : metal
  Current step  : 0
  Time step     : 0.001
Per MPI rank memory allocation (min/avg/max) = 4.57 | 4.57 | 4.57 Mbytes
   Step          Temp          PotEng         KinEng         TotEng         Volume    
         0   300           -2053.1301      21.715704     -2031.4144      17342.915    
      1000   281.15058     -2051.7629      20.351277     -2031.4117      15404.467    
      2000   294.24325     -2052.7001      21.298998     -2031.4011      15071.902    
      3000   297.07895     -2052.8872      21.504262     -2031.3829      15506.853    
      4000   290.22215     -2052.3641      21.007928     -2031.3562      15708.851    
      5000   295.06455     -2052.6788      21.358449     -2031.3203      16011.497    
      6000   302.02036     -2053.1371      21.86195      -2031.2752      15650.549    
      7000   302.87881     -2053.1429      21.924089     -2031.2188      15642.918    
      8000   286.74896     -2051.9061      20.756519     -2031.1496      15608.468    
      9000   297.10733     -2052.5741      21.506316     -2031.0677      15608.468    
     10000   289.62788     -2051.9368      20.964911     -2030.9719      15915.256    
     11000   300.35051     -2052.6014      21.741076     -2030.8603      15588.183    
     12000   309.05214     -2053.1038      22.370949     -2030.7328      16032.919    
     13000   292.98499     -2051.7951      21.207918     -2030.5872      15965.672    
     14000   293.95722     -2051.7023      21.278294     -2030.4241      15798.049    
     15000   287.70185     -2051.0684      20.825495     -2030.2429      15966.578    
     16000   299.9238      -2051.7552      21.710188     -2030.045       16125.899    
     17000   293.62045     -2051.0932      21.253916     -2029.8393      15689.055    
     18000   316.61616     -2052.5452      22.918476     -2029.6267      15689.055    
     19000   322.98372     -2052.7959      23.379396     -2029.4165      15680.534    
     20000   318.88982     -2052.3021      23.083057     -2029.219       15836.619    
     21000   303.33705     -2050.9971      21.957259     -2029.0398      15466.737    
     22000   313.36705     -2051.5681      22.683287     -2028.8848      15817.817    
     23000   298.99979     -2050.3998      21.643303     -2028.7565      16144.426    
     24000   322.16781     -2051.9751      23.320337     -2028.6548      15683.388    
     25000   322.67786     -2051.937       23.357257     -2028.5797      15774.818    
     26000   306.20217     -2050.6958      22.164653     -2028.5311      15591.071    
     27000   309.93328     -2050.9398      22.434732     -2028.5051      15846.243    
     28000   315.82348     -2051.3618      22.861098     -2028.5007      15948.384    
     29000   327.05308     -2052.1891      23.67396      -2028.5152      15906.509    
     30000   311.30436     -2051.08        22.533979     -2028.5461      16152.237    
     31000   310.64622     -2051.0774      22.486338     -2028.591       15766.736    
     32000   311.12375     -2051.1667      22.520904     -2028.6458      16233.706    
     33000   304.12155     -2050.7243      22.014045     -2028.7103      15846.673    
     34000   308.3291      -2051.0996      22.318612     -2028.781       15883.699    
     35000   308.98692     -2051.2237      22.366229     -2028.8575      16237.856    
     36000   291.6678      -2050.0508      21.112572     -2028.9382      16021.152    
     37000   297.73652     -2050.5723      21.551861     -2029.0204      15488.784    
     38000   298.78823     -2050.7317      21.62799      -2029.1037      15778.058    
     39000   305.80863     -2051.3239      22.136166     -2029.1877      15966.099    
     40000   313.11963     -2051.9358      22.665378     -2029.2705      15588.664    
     41000   309.49113     -2051.7568      22.402726     -2029.3541      15868.405    
     42000   298.59597     -2051.0505      21.614073     -2029.4364      16028.328    
     43000   307.77675     -2051.7959      22.27863      -2029.5172      16140.001    
     44000   304.31793     -2051.6261      22.02826      -2029.5979      15569.337    
     45000   301.23514     -2051.4836      21.805111     -2029.6784      15964.332    
     46000   304.5159      -2051.7998      22.042591     -2029.7572      15810.91     
     47000   305.24316     -2051.9306      22.095234     -2029.8354      15378.2      
     48000   299.23972     -2051.5721      21.660671     -2029.9114      15722.417    
     49000   294.87121     -2051.3307      21.344453     -2029.9862      15933.303    
     50000   303.89135     -2052.0562      21.997383     -2030.0588      15863.238    
Loop time of 36.4551 on 1 procs for 50000 steps with 561 atoms

Performance: 118.502 ns/day, 0.203 hours/ns, 1371.550 timesteps/s
99.2% CPU use with 1 MPI tasks x 1 OpenMP threads

MPI task timing breakdown:
Section |  min time  |  avg time  |  max time  |%varavg| %total
---------------------------------------------------------------
Pair    | 35.549     | 35.549     | 35.549     |   0.0 | 97.51
Neigh   | 0.054418   | 0.054418   | 0.054418   |   0.0 |  0.15
Comm    | 0.010705   | 0.010705   | 0.010705   |   0.0 |  0.03
Output  | 0.11781    | 0.11781    | 0.11781    |   0.0 |  0.32
Modify  | 0.60019    | 0.60019    | 0.60019    |   0.0 |  1.65
Other   |            | 0.1229     |            |       |  0.34

Nlocal:            561 ave         561 max         561 min
Histogram: 1 0 0 0 0 0 0 0 0 0
Nghost:              0 ave           0 max           0 min
Histogram: 1 0 0 0 0 0 0 0 0 0
Neighs:          20418 ave       20418 max       20418 min
Histogram: 1 0 0 0 0 0 0 0 0 0

Total # of neighbors = 20418
Ave neighs/atom = 36.395722
Neighbor list builds = 77
Dangerous builds = 0
Total wall time: 0:00:36
