LAMMPS (15 Sep 2022)
OMP_NUM_THREADS environment is not set. Defaulting to 1 thread. (src/comm.cpp:98)
  using 1 OpenMP thread(s) per MPI task
Loaded 1 plugins from C:\Users\becat\AppData\Local\LAMMPS 64-bit 15Sep2022\plugins
Lattice spacing in x,y,z = 4.079 4.079 4.079
Created orthogonal box = (0 0 0) to (40.79 40.79 40.79)
  1 by 1 by 1 MPI processor grid
Read molecule template np:
  1 molecules
  0 fragments
  2057 atoms with max type 1
  0 bonds with max type 0
  0 angles with max type 0
  0 dihedrals with max type 0
  0 impropers with max type 0
Created 2057 atoms
  using lattice units in orthogonal box = (-1.1001145 -0.6574765 -0.7431155) to (41.890114 41.447477 41.533115)
  create_atoms CPU = 0.000 seconds
Neighbor list info ...
  update: every = 1 steps, delay = 10 steps, check = yes
  max neighbors/atom: 2000, page size: 100000
  master list distance cutoff = 7.55
  ghost atom cutoff = 7.55
  binsize = 3.775, bins = 12 12 12
  1 neighbor lists, perpetual/occasional/extra = 1 0 0
  (1) pair eam, perpetual
      attributes: half, newton on
      pair build: half/bin/atomonly/newton
      stencil: half/bin/3d
      bin: standard
Setting up Verlet run ...
  Unit style    : metal
  Current step  : 0
  Time step     : 0.001
Per MPI rank memory allocation (min/avg/max) = 4.661 | 4.661 | 4.661 Mbytes
   Step          Temp          PotEng         KinEng         TotEng         Volume    
         0   300           -7602.9776      79.727657     -7523.25        76524.272    
      1000   633.31486     -7692.3216      168.30903     -7524.0126      61872.312    
      2000   482.54176     -7654.2464      128.23975     -7526.0066      64212.094    
      3000   422.22979     -7640.4957      112.21131     -7528.2844      72066.112    
      4000   481.04352     -7658.2406      127.84158     -7530.399       66509.103    
      5000   441.63672     -7649.7724      117.36887     -7532.4036      60863.409    
      6000   447.54301     -7653.5793      118.93852     -7534.6407      72815.603    
      7000   437.9828      -7653.6242      116.39781     -7537.2264      69351.448    
      8000   424.93266     -7652.6695      112.92962     -7539.7399      62381.226    
      9000   448.58986     -7661.5601      119.21673     -7542.3434      66886.002    
     10000   423.0309      -7657.4302      112.42421     -7545.006       66894.098    
     11000   449.87923     -7667.1712      119.55939     -7547.6118      64878.209    
     12000   447.79018     -7669.217       119.00421     -7550.2127      66620.897    
     13000   383.99405     -7654.9053      102.04982     -7552.8555      67979.759    
     14000   429.33791     -7669.5845      114.10035     -7555.4842      63724.037    
     15000   421.825       -7670.1323      112.10373     -7558.0286      64195.46     
     16000   402.48286     -7667.5216      106.96338     -7560.5582      67179.507    
     17000   403.2812      -7670.2899      107.17555     -7563.1144      67161.566    
     18000   384.92235     -7667.8765      102.29652     -7565.58        63335.645    
     19000   397.49493     -7673.648       105.6378      -7568.0102      66847.682    
     20000   373.75518     -7669.7559      99.32875      -7570.4271      66307.658    
     21000   396.387       -7678.1226      105.34336     -7572.7793      64813.829    
     22000   373.27016     -7674.2769      99.199852     -7575.0771      64361.64     
     23000   372.77184     -7676.4158      99.067418     -7577.3484      67395.031    
     24000   374.90327     -7679.2209      99.633864     -7579.5871      65258.677    
     25000   375.30185     -7681.4864      99.739791     -7581.7466      65066.5      
     26000   371.30354     -7682.5404      98.677204     -7583.8632      66996.281    
     27000   338.21599     -7675.8412      89.883896     -7585.9573      65609.18     
     28000   357.72614     -7683.0483      95.068891     -7587.9795      65609.18     
     29000   361.92963     -7686.1351      96.186006     -7589.9491      65607.927    
     30000   337.60181     -7681.5992      89.720671     -7591.8785      64796.475    
     31000   340.44132     -7684.2424      90.475297     -7593.7671      65174.327    
     32000   344.59712     -7687.1693      91.579737     -7595.5896      64767.856    
     33000   340.99937     -7687.9906      90.623603     -7597.367       67605.434    
     34000   331.38304     -7687.1743      88.067978     -7599.1063      66400.573    
     35000   339.60995     -7691.0338      90.254353     -7600.7794      64857.612    
     36000   331.47672     -7690.4969      88.092874     -7602.404       66627.272    
     37000   331.11923     -7691.9881      87.99787      -7603.9902      65770.036    
     38000   328.43954     -7692.8111      87.285717     -7605.5254      64266.594    
     39000   323.49757     -7692.9708      85.972344     -7606.9984      66262.66     
     40000   325.10335     -7694.8285      86.399094     -7608.4294      66262.66     
     41000   317.33956     -7694.152       84.335798     -7609.8162      64988.701    
     42000   317.85171     -7695.6158      84.471907     -7611.1439      64045.011    
     43000   318.56549     -7697.0856      84.6616       -7612.424       65287.445    
     44000   310.66879     -7696.2221      82.562984     -7613.6591      65287.445    
     45000   308.17983     -7696.7507      81.90152      -7614.8492      65287.445    
     46000   306.8717      -7697.5343      81.553872     -7615.9805      65287.445    
     47000   302.43387     -7697.4399      80.37448      -7617.0654      65287.445    
     48000   302.18102     -7698.4114      80.307282     -7618.1042      65287.445    
     49000   302.52152     -7699.4876      80.397773     -7619.0898      65287.445    
     50000   300.90148     -7699.9899      79.967235     -7620.0227      65287.445    
Loop time of 128.236 on 1 procs for 50000 steps with 2057 atoms

Performance: 33.688 ns/day, 0.712 hours/ns, 389.905 timesteps/s
99.9% CPU use with 1 MPI tasks x 1 OpenMP threads

MPI task timing breakdown:
Section |  min time  |  avg time  |  max time  |%varavg| %total
---------------------------------------------------------------
Pair    | 125.48     | 125.48     | 125.48     |   0.0 | 97.85
Neigh   | 0.31187    | 0.31187    | 0.31187    |   0.0 |  0.24
Comm    | 0.012698   | 0.012698   | 0.012698   |   0.0 |  0.01
Output  | 0.31396    | 0.31396    | 0.31396    |   0.0 |  0.24
Modify  | 1.7792     | 1.7792     | 1.7792     |   0.0 |  1.39
Other   |            | 0.3363     |            |       |  0.26

Nlocal:           2057 ave        2057 max        2057 min
Histogram: 1 0 0 0 0 0 0 0 0 0
Nghost:              0 ave           0 max           0 min
Histogram: 1 0 0 0 0 0 0 0 0 0
Neighs:          86088 ave       86088 max       86088 min
Histogram: 1 0 0 0 0 0 0 0 0 0

Total # of neighbors = 86088
Ave neighs/atom = 41.85124
Neighbor list builds = 119
Dangerous builds = 0
Total wall time: 0:02:08
