LAMMPS (15 Sep 2022)
OMP_NUM_THREADS environment is not set. Defaulting to 1 thread. (src/comm.cpp:98)
  using 1 OpenMP thread(s) per MPI task
Loaded 1 plugins from C:\Users\becat\AppData\Local\LAMMPS 64-bit 15Sep2022\plugins
Lattice spacing in x,y,z = 4.079 4.079 4.079
Created orthogonal box = (0 0 0) to (40.79 40.79 40.79)
  1 by 1 by 1 MPI processor grid
Read molecule template np:
  1 molecules
  0 fragments
  434 atoms with max type 1
  0 bonds with max type 0
  0 angles with max type 0
  0 dihedrals with max type 0
  0 impropers with max type 0
Created 434 atoms
  using lattice units in orthogonal box = (8.5154354 7.8739521 9.9221072) to (32.811995 32.941935 30.867893)
  create_atoms CPU = 0.000 seconds
Neighbor list info ...
  update: every = 1 steps, delay = 10 steps, check = yes
  max neighbors/atom: 2000, page size: 100000
  master list distance cutoff = 7.55
  ghost atom cutoff = 7.55
  binsize = 3.775, bins = 7 7 6
  1 neighbor lists, perpetual/occasional/extra = 1 0 0
  (1) pair eam, perpetual
      attributes: half, newton on
      pair build: half/bin/atomonly/newton
      stencil: half/bin/3d
      bin: standard
Setting up Verlet run ...
  Unit style    : metal
  Current step  : 0
  Time step     : 0.001
Per MPI rank memory allocation (min/avg/max) = 4.562 | 4.562 | 4.562 Mbytes
   Step          Temp          PotEng         KinEng         TotEng         Volume    
         0   300           -1585.5126      16.790893     -1568.7217      12757.361    
      1000   325.61872     -1586.9492      18.224764     -1568.7244      12757.361    
      2000   296.19141     -1585.3069      16.577727     -1568.7292      12757.361    
      3000   312.85557     -1586.2481      17.510415     -1568.7376      12757.361    
      4000   281.75138     -1584.5189      15.769524     -1568.7494      11815.05     
      5000   313.10131     -1586.2871      17.524169     -1568.7629      11815.05     
      6000   307.16969     -1585.9724      17.192178     -1568.7802      11815.05     
      7000   301.52669     -1585.677       16.876341     -1568.8007      11815.05     
      8000   285.26737     -1584.7905      15.966313     -1568.8242      11815.05     
      9000   301.88588     -1585.7479      16.896445     -1568.8514      11815.05     
     10000   295.2227      -1585.4063      16.523509     -1568.8828      11604.864    
     11000   300.16702     -1585.7195      16.800241     -1568.9193      11555.987    
     12000   299.09817     -1585.7012      16.740418     -1568.9608      11555.987    
     13000   299.6422      -1585.78        16.770867     -1569.0091      11555.987    
     14000   314.09393     -1586.6455      17.579725     -1569.0658      11555.987    
     15000   290.07334     -1585.3665      16.235301     -1569.1312      11555.987    
     16000   301.19427     -1586.0643      16.857736     -1569.2066      11555.987    
     17000   295.16899     -1585.8133      16.520503     -1569.2928      11683.767    
     18000   300.78914     -1586.2263      16.835061     -1569.3912      11464.792    
     19000   297.39062     -1586.1461      16.644847     -1569.5012      11464.792    
     20000   291.2729      -1585.9237      16.30244      -1569.6212      11464.792    
     21000   305.14834     -1586.8287      17.079044     -1569.7496      11464.792    
     22000   284.59179     -1585.812       15.928501     -1569.8835      11464.792    
     23000   298.41075     -1586.7214      16.701943     -1570.0195      11464.792    
     24000   292.10993     -1586.5027      16.349288     -1570.1534      11464.792    
     25000   280.7604      -1585.9946      15.714059     -1570.2806      11464.792    
     26000   284.33015     -1586.3129      15.913857     -1570.399       11464.792    
     27000   303.38776     -1587.4873      16.980505     -1570.5068      11464.792    
     28000   288.44904     -1586.7461      16.14439      -1570.6018      11510.977    
     29000   283.86425     -1586.5706      15.887781     -1570.6828      11510.977    
     30000   279.98219     -1586.4197      15.670503     -1570.7492      11510.977    
     31000   293.67541     -1587.2371      16.436908     -1570.8002      11510.977    
     32000   276.55341     -1586.314       15.478596     -1570.8355      11510.977    
     33000   284.09181     -1586.7556      15.900517     -1570.855       11510.977    
     34000   268.77424     -1585.901       15.043198     -1570.8578      11510.977    
     35000   271.09638     -1586.0168      15.173167     -1570.8436      11510.977    
     36000   291.85102     -1587.1457      16.334797     -1570.8109      11510.977    
     37000   294.18208     -1587.2234      16.465266     -1570.7582      11510.977    
     38000   284.3616      -1586.5999      15.915617     -1570.6843      11510.977    
     39000   271.44326     -1585.7801      15.192582     -1570.5875      11510.977    
     40000   308.09891     -1587.7096      17.244186     -1570.4655      11510.977    
     41000   302.09528     -1587.2273      16.908165     -1570.3192      11510.977    
     42000   281.59156     -1585.9106      15.760579     -1570.1501      11510.977    
     43000   310.79194     -1587.356       17.394914     -1569.9611      11510.977    
     44000   291.95919     -1586.1004      16.340851     -1569.7596      11510.977    
     45000   285.63677     -1585.543       15.986988     -1569.556       11510.977    
     46000   289.32464     -1585.553       16.193396     -1569.3596      11510.977    
     47000   297.05796     -1585.806       16.626228     -1569.1798      11510.977    
     48000   301.14062     -1585.8774      16.854733     -1569.0227      11510.977    
     49000   293.92309     -1585.341       16.45077      -1568.8902      11510.977    
     50000   295.29597     -1585.3096      16.52761      -1568.782       11510.977    
Loop time of 32.5877 on 1 procs for 50000 steps with 434 atoms

Performance: 132.565 ns/day, 0.181 hours/ns, 1534.323 timesteps/s
98.7% CPU use with 1 MPI tasks x 1 OpenMP threads

MPI task timing breakdown:
Section |  min time  |  avg time  |  max time  |%varavg| %total
---------------------------------------------------------------
Pair    | 31.771     | 31.771     | 31.771     |   0.0 | 97.49
Neigh   | 0.003967   | 0.003967   | 0.003967   |   0.0 |  0.01
Comm    | 0.01396    | 0.01396    | 0.01396    |   0.0 |  0.04
Output  | 0.10519    | 0.10519    | 0.10519    |   0.0 |  0.32
Modify  | 0.57336    | 0.57336    | 0.57336    |   0.0 |  1.76
Other   |            | 0.1205     |            |       |  0.37

Nlocal:            434 ave         434 max         434 min
Histogram: 1 0 0 0 0 0 0 0 0 0
Nghost:              0 ave           0 max           0 min
Histogram: 1 0 0 0 0 0 0 0 0 0
Neighs:          15350 ave       15350 max       15350 min
Histogram: 1 0 0 0 0 0 0 0 0 0

Total # of neighbors = 15350
Ave neighs/atom = 35.368664
Neighbor list builds = 7
Dangerous builds = 0
Total wall time: 0:00:32
