LAMMPS (15 Sep 2022)
OMP_NUM_THREADS environment is not set. Defaulting to 1 thread. (src/comm.cpp:98)
  using 1 OpenMP thread(s) per MPI task
Loaded 1 plugins from C:\Users\becat\AppData\Local\LAMMPS 64-bit 15Sep2022\plugins
Lattice spacing in x,y,z = 4.079 4.079 4.079
Created orthogonal box = (0 0 0) to (40.79 40.79 40.79)
  1 by 1 by 1 MPI processor grid
Read molecule template np:
  1 molecules
  0 fragments
  35 atoms with max type 1
  0 bonds with max type 0
  0 angles with max type 0
  0 dihedrals with max type 0
  0 impropers with max type 0
Created 35 atoms
  using lattice units in orthogonal box = (15.734917 17.430452 14.372176) to (25.185391 23.284971 26.326116)
  create_atoms CPU = 0.000 seconds
Neighbor list info ...
  update: every = 1 steps, delay = 10 steps, check = yes
  max neighbors/atom: 2000, page size: 100000
  master list distance cutoff = 7.55
  ghost atom cutoff = 7.55
  binsize = 3.775, bins = 3 2 4
  1 neighbor lists, perpetual/occasional/extra = 1 0 0
  (1) pair eam, perpetual
      attributes: half, newton on
      pair build: half/bin/atomonly/newton
      stencil: half/bin/3d
      bin: standard
Setting up Verlet run ...
  Unit style    : metal
  Current step  : 0
  Time step     : 0.001
Per MPI rank memory allocation (min/avg/max) = 4.537 | 4.537 | 4.537 Mbytes
   Step          Temp          PotEng         KinEng         TotEng         Volume    
         0   300           -115.45598      1.3184535     -114.13753      661.38724    
      1000   216.92103     -115.088        0.95333429    -114.13467      661.38724    
      2000   256.884       -115.25564      1.1289654     -114.12668      576.61138    
      3000   216.16677     -115.06351      0.95001945    -114.11349      591.2467     
      4000   268.38956     -115.27398      1.1795305     -114.09445      608.49906    
      5000   238.38908     -115.11953      1.047683      -114.07184      608.49906    
      6000   285.27367     -115.29864      1.2537336     -114.0449       608.49906    
      7000   312.70361     -115.38795      1.3742839     -114.01366      621.36913    
      8000   274.26684     -115.18451      1.2053602     -113.97914      621.36913    
      9000   327.34244     -115.37824      1.4386193     -113.93962      624.03197    
     10000   236.53303     -114.93732      1.039526      -113.8978       589.4581     
     11000   296.87716     -115.16091      1.3047291     -113.85619      589.4581     
     12000   311.15363     -115.18379      1.3674719     -113.81632      592.17161    
     13000   333.63636     -115.2445       1.4662801     -113.77822      592.17161    
     14000   272.89974     -114.94289      1.199352      -113.74354      592.17161    
     15000   308.4786      -115.06716      1.3557156     -113.71145      592.17161    
     16000   317.16136     -115.07783      1.393875      -113.68395      553.12151    
     17000   277.5828      -114.88189      1.2199334     -113.66196      553.12151    
     18000   289.82852     -114.91754      1.2737514     -113.64379      553.12151    
     19000   289.61992     -114.9024       1.2728346     -113.62957      553.12151    
     20000   325.35715     -115.04904      1.4298942     -113.61915      553.12151    
     21000   376.43088     -115.26593      1.6543554     -113.61157      553.12151    
     22000   342.81552     -115.1141       1.506621      -113.60748      566.4173     
     23000   362.51187     -115.19911      1.5931835     -113.60593      566.4173     
     24000   333.62673     -115.07318      1.4662377     -113.60695      636.55372    
     25000   350.1212      -115.14808      1.5387284     -113.60935      636.55372    
     26000   300.40305     -114.93378      1.3202248     -113.61355      636.55372    
     27000   333.07812     -115.08346      1.4638267     -113.61964      636.55372    
     28000   317.62627     -115.02239      1.3959182     -113.62648      636.55372    
     29000   305.12772     -114.97564      1.340989      -113.63465      600.924      
     30000   269.93304     -114.83014      1.1863139     -113.64382      609.13465    
     31000   290.39269     -114.92996      1.2762309     -113.65373      609.13465    
     32000   325.61232     -115.09559      1.4310157     -113.66457      609.13465    
     33000   341.25208     -115.17618      1.49975       -113.67643      600.24859    
     34000   363.33422     -115.28705      1.5967976     -113.69025      643.95349    
     35000   397.08327     -115.45161      1.7451194     -113.70649      619.27258    
     36000   391.57254     -115.44487      1.7209006     -113.72397      619.27258    
     37000   307.07655     -115.09244      1.3495538     -113.74288      619.27258    
     38000   318.31246     -115.16244      1.3989339     -113.76351      619.27258    
     39000   356.12515     -115.35022      1.5651148     -113.7851       633.4118     
     40000   279.62326     -115.03631      1.2289009     -113.80741      603.43449    
     41000   300.24859     -115.15039      1.319546      -113.83084      517.2359     
     42000   386.88926     -115.55862      1.7003183     -113.85831      528.79798    
     43000   389.85278     -115.60856      1.7133425     -113.89522      517.25215    
     44000   393.30395     -115.67013      1.7285099     -113.94162      517.25215    
     45000   458.45019     -116.01318      2.0148175     -113.99836      489.7102     
     46000   432.2618      -115.95907      1.8997236     -114.05935      489.7102     
     47000   326.5921      -115.55664      1.4353216     -114.12132      489.7102     
     48000   351.54946     -115.72783      1.5450054     -114.18282      489.7102     
     49000   274.11506     -115.44186      1.2046932     -114.23717      533.5255     
     50000   358.28736     -115.85951      1.5746174     -114.28489      533.5255     
Loop time of 1.08018 on 1 procs for 50000 steps with 35 atoms

Performance: 3999.315 ns/day, 0.006 hours/ns, 46288.367 timesteps/s
99.8% CPU use with 1 MPI tasks x 1 OpenMP threads

MPI task timing breakdown:
Section |  min time  |  avg time  |  max time  |%varavg| %total
---------------------------------------------------------------
Pair    | 0.96628    | 0.96628    | 0.96628    |   0.0 | 89.45
Neigh   | 0.000287   | 0.000287   | 0.000287   |   0.0 |  0.03
Comm    | 0.005895   | 0.005895   | 0.005895   |   0.0 |  0.55
Output  | 0.010199   | 0.010199   | 0.010199   |   0.0 |  0.94
Modify  | 0.081056   | 0.081056   | 0.081056   |   0.0 |  7.50
Other   |            | 0.01647    |            |       |  1.52

Nlocal:             35 ave          35 max          35 min
Histogram: 1 0 0 0 0 0 0 0 0 0
Nghost:              0 ave           0 max           0 min
Histogram: 1 0 0 0 0 0 0 0 0 0
Neighs:            521 ave         521 max         521 min
Histogram: 1 0 0 0 0 0 0 0 0 0

Total # of neighbors = 521
Ave neighs/atom = 14.885714
Neighbor list builds = 27
Dangerous builds = 0
Total wall time: 0:00:01
