LAMMPS (15 Sep 2022)
OMP_NUM_THREADS environment is not set. Defaulting to 1 thread. (src/comm.cpp:98)
  using 1 OpenMP thread(s) per MPI task
Loaded 1 plugins from C:\Users\becat\AppData\Local\LAMMPS 64-bit 15Sep2022\plugins
Lattice spacing in x,y,z = 4.079 4.079 4.079
Created orthogonal box = (0 0 0) to (40.79 40.79 40.79)
  1 by 1 by 1 MPI processor grid
Read molecule template np:
  1 molecules
  0 fragments
  33 atoms with max type 1
  0 bonds with max type 0
  0 angles with max type 0
  0 dihedrals with max type 0
  0 impropers with max type 0
Created 33 atoms
  using lattice units in orthogonal box = (15.962488 16.853156 16.265731) to (24.235246 23.973378 24.698468)
  create_atoms CPU = 0.000 seconds
Neighbor list info ...
  update: every = 1 steps, delay = 10 steps, check = yes
  max neighbors/atom: 2000, page size: 100000
  master list distance cutoff = 7.55
  ghost atom cutoff = 7.55
  binsize = 3.775, bins = 3 2 3
  1 neighbor lists, perpetual/occasional/extra = 1 0 0
  (1) pair eam, perpetual
      attributes: half, newton on
      pair build: half/bin/atomonly/newton
      stencil: half/bin/3d
      bin: standard
Setting up Verlet run ...
  Unit style    : metal
  Current step  : 0
  Time step     : 0.001
Per MPI rank memory allocation (min/avg/max) = 4.536 | 4.536 | 4.536 Mbytes
   Step          Temp          PotEng         KinEng         TotEng         Volume    
         0   300           -110.03075      1.2408974     -108.78985      496.72085    
      1000   190.60149     -109.57558      0.78838964    -108.78719      496.72085    
      2000   186.3871      -109.55009      0.77095754    -108.77913      496.72085    
      3000   212.17224     -109.64312      0.87761326    -108.7655       496.72085    
      4000   201.49326     -109.57981      0.83344152    -108.74637      480.38292    
      5000   246.96511     -109.7431       1.0215279     -108.72157      480.38292    
      6000   211.02071     -109.56386      0.87285016    -108.69101      480.38292    
      7000   230.54463     -109.60869      0.95360743    -108.65508      480.38292    
      8000   214.16662     -109.50063      0.88586265    -108.61477      480.38292    
      9000   228.79425     -109.51908      0.94636729    -108.57271      480.38292    
     10000   257.23265     -109.59345      1.0639978     -108.52946      480.38292    
     11000   250.99778     -109.52661      1.0382083     -108.4884       480.38292    
     12000   263.07786     -109.53925      1.0881754     -108.45107      480.38292    
     13000   280.55937     -109.57565      1.1604846     -108.41517      465.77324    
     14000   248.83806     -109.4149       1.029275      -108.38563      465.77324    
     15000   209.55519     -109.22581      0.86678829    -108.35902      455.42599    
     16000   271.69319     -109.4589       1.1238112     -108.33509      455.42599    
     17000   237.34157     -109.29485      0.98172179    -108.31313      455.42599    
     18000   323.43801     -109.63032      1.3378446     -108.29248      455.42599    
     19000   342.85827     -109.69082      1.4181731     -108.27265      455.42599    
     20000   259.73855     -109.32692      1.0743629     -108.25256      455.42599    
     21000   242.11904     -109.23491      1.001483      -108.23343      455.42599    
     22000   262.27779     -109.2984       1.0848661     -108.21354      455.42599    
     23000   295.68149     -109.41665      1.2230346     -108.19362      455.42599    
     24000   320.9744      -109.50063      1.3276543     -108.17297      455.42599    
     25000   292.92498     -109.36407      1.2116328     -108.15244      455.42599    
     26000   291.058       -109.33515      1.2039104     -108.13124      455.01164    
     27000   318.38947     -109.42685      1.3169622     -108.10989      489.42812    
     28000   302.75468     -109.34091      1.2522916     -108.08862      489.42812    
     29000   195.97733     -108.87739      0.81062588    -108.06677      489.42812    
     30000   292.20736     -109.25378      1.2086645     -108.04512      489.42812    
     31000   297.7305      -109.25416      1.23151       -108.02265      489.42812    
     32000   318.04105     -109.31571      1.315521      -108.00018      489.42812    
     33000   277.81746     -109.12829      1.1491432     -107.97915      489.42812    
     34000   334.23848     -109.33932      1.3825189     -107.9568       482.89429    
     35000   333.2609      -109.31239      1.3784753     -107.93391      482.89429    
     36000   295.59447     -109.13289      1.2226747     -107.91022      482.89429    
     37000   239.39511     -108.8755       0.99021587    -107.88529      498.43234    
     38000   319.7983      -109.18305      1.3227896     -107.86026      498.43234    
     39000   347.14682     -109.27141      1.4359119     -107.8355       484.08752    
     40000   339.17455     -109.21384      1.4029361     -107.8109       484.08752    
     41000   413.42874     -109.49828      1.7100755     -107.7882       484.08752    
     42000   369.95158     -109.29862      1.5302398     -107.76838      485.34509    
     43000   231.24104     -108.70776      0.956488      -107.75127      485.34509    
     44000   359.60661     -109.22397      1.4874497     -107.73652      485.34509    
     45000   358.29798     -109.20706      1.4820368     -107.72503      485.34509    
     46000   278.9088      -108.87043      1.1536573     -107.71677      466.97505    
     47000   330.0268      -109.07665      1.365098      -107.71155      489.00204    
     48000   345.10163     -109.13661      1.4274524     -107.70915      468.02761    
     49000   351.44146     -109.16275      1.453676      -107.70908      468.59224    
     50000   295.43196     -108.93326      1.2220025     -107.71125      468.59224    
Loop time of 1.22462 on 1 procs for 50000 steps with 33 atoms

Performance: 3527.619 ns/day, 0.007 hours/ns, 40828.925 timesteps/s
99.5% CPU use with 1 MPI tasks x 1 OpenMP threads

MPI task timing breakdown:
Section |  min time  |  avg time  |  max time  |%varavg| %total
---------------------------------------------------------------
Pair    | 1.1029     | 1.1029     | 1.1029     |   0.0 | 90.06
Neigh   | 0.000175   | 0.000175   | 0.000175   |   0.0 |  0.01
Comm    | 0.006773   | 0.006773   | 0.006773   |   0.0 |  0.55
Output  | 0.012483   | 0.012483   | 0.012483   |   0.0 |  1.02
Modify  | 0.083998   | 0.083998   | 0.083998   |   0.0 |  6.86
Other   |            | 0.01827    |            |       |  1.49

Nlocal:             33 ave          33 max          33 min
Histogram: 1 0 0 0 0 0 0 0 0 0
Nghost:              0 ave           0 max           0 min
Histogram: 1 0 0 0 0 0 0 0 0 0
Neighs:            487 ave         487 max         487 min
Histogram: 1 0 0 0 0 0 0 0 0 0

Total # of neighbors = 487
Ave neighs/atom = 14.757576
Neighbor list builds = 14
Dangerous builds = 0
Total wall time: 0:00:01
