LAMMPS (15 Sep 2022)
OMP_NUM_THREADS environment is not set. Defaulting to 1 thread. (src/comm.cpp:98)
  using 1 OpenMP thread(s) per MPI task
Loaded 1 plugins from C:\Users\becat\AppData\Local\LAMMPS 64-bit 15Sep2022\plugins
Lattice spacing in x,y,z = 4.079 4.079 4.079
Created orthogonal box = (0 0 0) to (40.79 40.79 40.79)
  1 by 1 by 1 MPI processor grid
Read molecule template np:
  1 molecules
  0 fragments
  32 atoms with max type 1
  0 bonds with max type 0
  0 angles with max type 0
  0 dihedrals with max type 0
  0 impropers with max type 0
Created 32 atoms
  using lattice units in orthogonal box = (16.400091 16.761659 16.095094) to (24.32189 24.283556 24.690444)
  create_atoms CPU = 0.000 seconds
Neighbor list info ...
  update: every = 1 steps, delay = 10 steps, check = yes
  max neighbors/atom: 2000, page size: 100000
  master list distance cutoff = 7.55
  ghost atom cutoff = 7.55
  binsize = 3.775, bins = 3 2 3
  1 neighbor lists, perpetual/occasional/extra = 1 0 0
  (1) pair eam, perpetual
      attributes: half, newton on
      pair build: half/bin/atomonly/newton
      stencil: half/bin/3d
      bin: standard
Setting up Verlet run ...
  Unit style    : metal
  Current step  : 0
  Time step     : 0.001
Per MPI rank memory allocation (min/avg/max) = 4.536 | 4.536 | 4.536 Mbytes
   Step          Temp          PotEng         KinEng         TotEng         Volume    
         0   300           -101.3349       1.2021193     -100.13278      512.17076    
      1000   758.90854     -103.21606      3.0409955     -100.17506      522.3765     
      2000   785.0954      -103.45279      3.1459279     -100.30687      491.61673    
      3000   735.8613      -103.46562      2.9486437     -100.51698      495.7506     
      4000   687.46732     -103.51898      2.7547259     -100.76426      483.0933     
      5000   597.73992     -103.38831      2.3951824     -100.99312      481.99774    
      6000   648.5767      -103.79406      2.5988887     -101.19517      490.66693    
      7000   691.13197     -104.13654      2.7694104     -101.36713      521.64764    
      8000   667.42187     -104.20215      2.6744025     -101.52774      540.40603    
      9000   557.77886     -103.92006      2.2350559     -101.685        484.70922    
     10000   545.883       -104.05533      2.1873884     -101.86794      431.60229    
     11000   447.25815     -103.84425      1.7921922     -102.05206      466.59174    
     12000   583.08672     -104.57359      2.3364661     -102.23712      518.5347     
     13000   526.9791      -104.53101      2.1116393     -102.41937      498.62796    
     14000   543.25076     -104.76419      2.1768408     -102.58734      456.88135    
     15000   564.33369     -105.01483      2.2613215     -102.75351      413.96925    
     16000   504.56651     -104.93884      2.0218305     -102.91701      432.54034    
     17000   505.51364     -105.09478      2.0256257     -103.06915      429.25545    
     18000   489.2348      -105.17481      1.9603954     -103.21442      432.69643    
     19000   397.80954     -104.94775      1.5940485     -103.3537       432.69643    
     20000   347.18169     -104.87554      1.3911794     -103.48436      467.10642    
     21000   374.10398     -105.10621      1.4990588     -103.60715      419.45164    
     22000   441.06782     -105.49202      1.7673872     -103.72463      435.806      
     23000   380.79868     -105.35622      1.5258849     -103.83034      432.77509    
     24000   357.40318     -105.36708      1.4321376     -103.93494      404.48363    
     25000   330.97754     -105.3568       1.3262484     -104.03055      413.75223    
     26000   292.23375     -105.28716      1.1709995     -104.11616      413.75223    
     27000   392.96517     -105.77306      1.5746368     -104.19842      408.24705    
     28000   382.26236     -105.80808      1.5317499     -104.27633      399.14757    
     29000   275.73812     -105.45249      1.1049004     -104.34759      399.14757    
     30000   348.57831     -105.81414      1.3967758     -104.41737      399.14757    
     31000   270.92194     -105.56733      1.0856017     -104.48173      443.01469    
     32000   293.93301     -105.71828      1.1778085     -104.54047      443.01469    
     33000   270.20258     -105.68108      1.0827192     -104.59837      443.01469    
     34000   301.98139     -105.86119      1.2100589     -104.65113      443.01469    
     35000   279.34763     -105.81932      1.119364      -104.69995      443.01469    
     36000   248.57863     -105.73966      0.9960706     -104.74359      443.01469    
     37000   305.95664     -106.01061      1.225988      -104.78462      443.01469    
     38000   261.06051     -105.8689       1.0460863     -104.82281      443.01469    
     39000   263.75614     -105.91477      1.0568878     -104.85788      443.01469    
     40000   210.01816     -105.72997      0.8415563     -104.88841      443.01469    
     41000   255.94727     -105.94255      1.0255972     -104.91695      443.01469    
     42000   267.52031     -106.01387      1.0719711     -104.9419       443.01469    
     43000   219.56226     -105.84385      0.87980014    -104.96405      443.01469    
     44000   272.95146     -106.07673      1.0937341     -104.98299      443.01469    
     45000   246.68451     -105.98715      0.98848075    -104.99867      443.01469    
     46000   240.24102     -105.97388      0.96266126    -105.01122      443.01469    
     47000   259.35104     -106.06002      1.0392363     -105.02079      443.01469    
     48000   253.84405     -106.04395      1.0171695     -105.02678      433.25705    
     49000   249.66082     -106.02956      1.000407      -105.02915      433.25705    
     50000   254.49237     -106.048        1.0197673     -105.02823      433.25705    
Loop time of 1.23219 on 1 procs for 50000 steps with 32 atoms

Performance: 3505.947 ns/day, 0.007 hours/ns, 40578.092 timesteps/s
100.2% CPU use with 1 MPI tasks x 1 OpenMP threads

MPI task timing breakdown:
Section |  min time  |  avg time  |  max time  |%varavg| %total
---------------------------------------------------------------
Pair    | 1.0991     | 1.0991     | 1.0991     |   0.0 | 89.20
Neigh   | 0.000529   | 0.000529   | 0.000529   |   0.0 |  0.04
Comm    | 0.007205   | 0.007205   | 0.007205   |   0.0 |  0.58
Output  | 0.011738   | 0.011738   | 0.011738   |   0.0 |  0.95
Modify  | 0.093412   | 0.093412   | 0.093412   |   0.0 |  7.58
Other   |            | 0.02022    |            |       |  1.64

Nlocal:             32 ave          32 max          32 min
Histogram: 1 0 0 0 0 0 0 0 0 0
Nghost:              0 ave           0 max           0 min
Histogram: 1 0 0 0 0 0 0 0 0 0
Neighs:            466 ave         466 max         466 min
Histogram: 1 0 0 0 0 0 0 0 0 0

Total # of neighbors = 466
Ave neighs/atom = 14.5625
Neighbor list builds = 48
Dangerous builds = 0
Total wall time: 0:00:01
