LAMMPS (15 Sep 2022)
OMP_NUM_THREADS environment is not set. Defaulting to 1 thread. (src/comm.cpp:98)
  using 1 OpenMP thread(s) per MPI task
Loaded 1 plugins from C:\Users\becat\AppData\Local\LAMMPS 64-bit 15Sep2022\plugins
Lattice spacing in x,y,z = 4.079 4.079 4.079
Created orthogonal box = (0 0 0) to (40.79 40.79 40.79)
  1 by 1 by 1 MPI processor grid
Read molecule template np:
  1 molecules
  0 fragments
  38 atoms with max type 1
  0 bonds with max type 0
  0 angles with max type 0
  0 dihedrals with max type 0
  0 impropers with max type 0
Created 38 atoms
  using lattice units in orthogonal box = (15.994571 16.013529 15.753407) to (24.913429 24.828281 24.99104)
  create_atoms CPU = 0.000 seconds
Neighbor list info ...
  update: every = 1 steps, delay = 10 steps, check = yes
  max neighbors/atom: 2000, page size: 100000
  master list distance cutoff = 7.55
  ghost atom cutoff = 7.55
  binsize = 3.775, bins = 3 3 3
  1 neighbor lists, perpetual/occasional/extra = 1 0 0
  (1) pair eam, perpetual
      attributes: half, newton on
      pair build: half/bin/atomonly/newton
      stencil: half/bin/3d
      bin: standard
Setting up Verlet run ...
  Unit style    : metal
  Current step  : 0
  Time step     : 0.001
Per MPI rank memory allocation (min/avg/max) = 4.537 | 4.537 | 4.537 Mbytes
   Step          Temp          PotEng         KinEng         TotEng         Volume    
         0   300           -127.90559      1.4347876     -126.4708       726.23979    
      1000   170.15725     -127.28144      0.8137984     -126.46765      726.23979    
      2000   239.50882     -127.60317      1.145481      -126.45769      726.23979    
      3000   204.85793     -127.42109      0.97975874    -126.44133      726.23979    
      4000   203.88311     -127.39324      0.97509655    -126.41814      726.23979    
      5000   220.76551     -127.44357      1.0558387     -126.38773      726.23979    
      6000   200.76028     -127.31061      0.96016118    -126.35044      726.23979    
      7000   206.80233     -127.29651      0.98905805    -126.30745      681.36608    
      8000   187.84198     -127.16075      0.89837779    -126.26237      681.36608    
      9000   229.79186     -127.31532      1.0990084     -126.21631      681.36608    
     10000   288.14446     -127.54978      1.378087      -126.17169      681.36608    
     11000   231.66837     -127.23863      1.107983      -126.13065      681.36608    
     12000   242.54468     -127.25345      1.1600003     -126.09345      681.36608    
     13000   239.53483     -127.20534      1.1456054     -126.05974      721.47775    
     14000   258.40086     -127.26509      1.2358345     -126.02925      721.47775    
     15000   284.03909     -127.35876      1.3584526     -126.00031      721.47775    
     16000   267.96297     -127.2532       1.2815665     -125.97163      721.47775    
     17000   237.65926     -127.07993      1.1366352     -125.9433       665.60143    
     18000   229.95122     -127.01242      1.0997705     -125.91265      696.09759    
     19000   259.61647     -127.12333      1.2416483     -125.88169      696.09759    
     20000   257.71075     -127.08276      1.232534      -125.85022      680.51861    
     21000   251.23328     -127.01872      1.2015547     -125.81716      680.51861    
     22000   236.45323     -126.91342      1.1308672     -125.78255      648.10652    
     23000   253.32621     -126.95925      1.2115643     -125.74769      648.10652    
     24000   270.60608     -127.00479      1.2942075     -125.71058      648.10652    
     25000   273.95264     -126.98322      1.3102128     -125.673        648.10652    
     26000   299.40967     -127.0678       1.4319643     -125.63584      692.82033    
     27000   297.07186     -127.01931      1.4207834     -125.59853      692.82033    
     28000   305.76149     -127.02338      1.4623427     -125.56104      692.82033    
     29000   320.40348     -127.05642      1.5323698     -125.52405      692.82033    
     30000   287.02093     -126.86005      1.3727136     -125.48733      692.82033    
     31000   346.91359     -127.11096      1.6591578     -125.45181      697.74537    
     32000   258.11518     -126.65209      1.2344682     -125.41762      697.74537    
     33000   323.29499     -126.9302       1.5461988     -125.38401      697.74537    
     34000   302.18574     -126.79754      1.4452412     -125.3523       697.74537    
     35000   323.75292     -126.87036      1.5483889     -125.32197      672.88247    
     36000   339.31937     -126.91653      1.6228374     -125.29369      672.88247    
     37000   356.80056     -126.97496      1.7064434     -125.26852      683.57386    
     38000   284.10097     -126.60391      1.3587485     -125.24516      699.15731    
     39000   354.90935     -126.92019      1.6973984     -125.22279      699.15731    
     40000   362.70997     -126.93807      1.7347059     -125.20336      652.89992    
     41000   336.04587     -126.793        1.6071815     -125.18582      652.89992    
     42000   314.69615     -126.67597      1.5050738     -125.1709       655.02409    
     43000   320.76468     -126.69216      1.5340973     -125.15806      655.02409    
     44000   297.90938     -126.57274      1.424789      -125.14795      655.02409    
     45000   344.6561      -126.78831      1.648361      -125.13994      655.02409    
     46000   313.95823     -126.63642      1.5015446     -125.13488      690.34786    
     47000   315.27156     -126.63966      1.5078258     -125.13184      692.48451    
     48000   330.95676     -126.71437      1.5828422     -125.13153      692.48451    
     49000   318.17617     -126.65606      1.5217174     -125.13435      692.48451    
     50000   304.38602     -126.59589      1.4557643     -125.14012      692.48451    
Loop time of 1.73144 on 1 procs for 50000 steps with 38 atoms

Performance: 2495.029 ns/day, 0.010 hours/ns, 28877.647 timesteps/s
98.4% CPU use with 1 MPI tasks x 1 OpenMP threads

MPI task timing breakdown:
Section |  min time  |  avg time  |  max time  |%varavg| %total
---------------------------------------------------------------
Pair    | 1.5739     | 1.5739     | 1.5739     |   0.0 | 90.90
Neigh   | 0.000262   | 0.000262   | 0.000262   |   0.0 |  0.02
Comm    | 0.008401   | 0.008401   | 0.008401   |   0.0 |  0.49
Output  | 0.013569   | 0.013569   | 0.013569   |   0.0 |  0.78
Modify  | 0.11153    | 0.11153    | 0.11153    |   0.0 |  6.44
Other   |            | 0.02377    |            |       |  1.37

Nlocal:             38 ave          38 max          38 min
Histogram: 1 0 0 0 0 0 0 0 0 0
Nghost:              0 ave           0 max           0 min
Histogram: 1 0 0 0 0 0 0 0 0 0
Neighs:            620 ave         620 max         620 min
Histogram: 1 0 0 0 0 0 0 0 0 0

Total # of neighbors = 620
Ave neighs/atom = 16.315789
Neighbor list builds = 15
Dangerous builds = 0
Total wall time: 0:00:01
