LAMMPS (15 Sep 2022)
OMP_NUM_THREADS environment is not set. Defaulting to 1 thread. (src/comm.cpp:98)
  using 1 OpenMP thread(s) per MPI task
Loaded 1 plugins from C:\Users\becat\AppData\Local\LAMMPS 64-bit 15Sep2022\plugins
Lattice spacing in x,y,z = 4.079 4.079 4.079
Created orthogonal box = (0 0 0) to (40.79 40.79 40.79)
  1 by 1 by 1 MPI processor grid
Read molecule template np:
  1 molecules
  0 fragments
  1228 atoms with max type 1
  0 bonds with max type 0
  0 angles with max type 0
  0 dihedrals with max type 0
  0 impropers with max type 0
Created 1228 atoms
  using lattice units in orthogonal box = (3.2743946 2.3433197 4.6877005) to (37.183449 38.430672 36.102301)
  create_atoms CPU = 0.000 seconds
Neighbor list info ...
  update: every = 1 steps, delay = 10 steps, check = yes
  max neighbors/atom: 2000, page size: 100000
  master list distance cutoff = 7.55
  ghost atom cutoff = 7.55
  binsize = 3.775, bins = 9 10 9
  1 neighbor lists, perpetual/occasional/extra = 1 0 0
  (1) pair eam, perpetual
      attributes: half, newton on
      pair build: half/bin/atomonly/newton
      stencil: half/bin/3d
      bin: standard
Setting up Verlet run ...
  Unit style    : metal
  Current step  : 0
  Time step     : 0.001
Per MPI rank memory allocation (min/avg/max) = 4.61 | 4.61 | 4.61 Mbytes
   Step          Temp          PotEng         KinEng         TotEng         Volume    
         0   300           -4591.176       47.580659     -4543.5953      38441.668    
      1000   246.52732     -4582.6215      39.099774     -4543.5218      38441.668    
      2000   250.96857     -4583.1077      39.804168     -4543.3036      35763.357    
      3000   248.63676     -4582.3793      39.434336     -4542.945       35763.357    
      4000   251.9316      -4582.4393      39.956905     -4542.4824      35763.357    
      5000   248.66822     -4581.4227      39.439327     -4541.9833      35763.357    
      6000   242.04784     -4579.8969      38.389319     -4541.5076      35763.357    
      7000   256.15901     -4581.7089      40.627383     -4541.0816      35763.357    
      8000   247.16359     -4579.8861      39.200689     -4540.6855      35763.357    
      9000   243.38876     -4578.8883      38.601993     -4540.2863      35979.231    
     10000   254.67176     -4580.2577      40.391501     -4539.8662      35979.231    
     11000   258.29843     -4580.3803      40.966699     -4539.4136      35979.231    
     12000   254.80867     -4579.3388      40.413215     -4538.9256      35682.544    
     13000   260.61864     -4579.7539      41.334689     -4538.4192      36542.773    
     14000   259.05901     -4578.982       41.087328     -4537.8947      36542.773    
     15000   260.29485     -4578.642       41.283335     -4537.3587      36542.773    
     16000   265.58722     -4578.946       42.122716     -4536.8233      36542.773    
     17000   252.67975     -4576.3598      40.075564     -4536.2842      36005.987    
     18000   265.25138     -4577.8123      42.069452     -4535.7428      36005.987    
     19000   263.71379     -4577.0292      41.825586     -4535.2036      36005.987    
     20000   260.7479      -4576.0177      41.355191     -4534.6625      36005.987    
     21000   277.29829     -4578.1024      43.980118     -4534.1223      36005.987    
     22000   273.56115     -4576.9745      43.387399     -4533.5871      36307.109    
     23000   279.7344      -4577.4158      44.366491     -4533.0493      36307.109    
     24000   273.65301     -4575.9206      43.401969     -4532.5186      36307.109    
     25000   279.39719     -4576.3041      44.313008     -4531.9911      36307.109    
     26000   276.86634     -4575.3778      43.91161      -4531.4662      36307.109    
     27000   284.873       -4576.1293      45.181484     -4530.9478      35827.072    
     28000   288.18611     -4576.1447      45.70695      -4530.4377      35972.414    
     29000   286.6211      -4575.3903      45.458737     -4529.9316      35972.414    
     30000   291.83662     -4575.7207      46.28593      -4529.4347      36320.959    
     31000   289.11687     -4574.8003      45.854571     -4528.9457      35867.207    
     32000   295.42358     -4575.321       46.854829     -4528.4662      35867.207    
     33000   292.90526     -4574.4536      46.455418     -4527.9982      35984.071    
     34000   289.73262     -4573.4921      45.952231     -4527.5399      35984.071    
     35000   292.83671     -4573.5385      46.444545     -4527.0939      35716.764    
     36000   290.26172     -4572.6971      46.036147     -4526.661       35956.189    
     37000   288.72081     -4572.0307      45.791754     -4526.239       35965.713    
     38000   294.72307     -4572.5777      46.743726     -4525.834       35965.713    
     39000   296.96489     -4572.5418      47.099285     -4525.4425      35965.713    
     40000   304.43786     -4573.3499      48.284513     -4525.0653      36129.294    
     41000   302.17833     -4572.6309      47.926147     -4524.7048      36061.754    
     42000   303.62619     -4572.5168      48.155782     -4524.3611      36061.754    
     43000   311.57675     -4573.4513      49.416757     -4524.0345      36061.754    
     44000   300.85074     -4571.4442      47.715589     -4523.7286      36061.754    
     45000   300.6433      -4571.1225      47.682689     -4523.4398      36061.754    
     46000   303.26711     -4571.2703      48.09883      -4523.1714      36061.754    
     47000   299.61561     -4570.4434      47.519694     -4522.9237      35948.467    
     48000   299.46146     -4570.1924      47.495245     -4522.6972      36128.977    
     49000   308.58993     -4571.4378      48.943041     -4522.4948      36128.977    
     50000   302.76195     -4570.3346      48.018711     -4522.3159      36128.977    
Loop time of 89.8938 on 1 procs for 50000 steps with 1228 atoms

Performance: 48.057 ns/day, 0.499 hours/ns, 556.212 timesteps/s
99.9% CPU use with 1 MPI tasks x 1 OpenMP threads

MPI task timing breakdown:
Section |  min time  |  avg time  |  max time  |%varavg| %total
---------------------------------------------------------------
Pair    | 88.062     | 88.062     | 88.062     |   0.0 | 97.96
Neigh   | 0.035355   | 0.035355   | 0.035355   |   0.0 |  0.04
Comm    | 0.010195   | 0.010195   | 0.010195   |   0.0 |  0.01
Output  | 0.24049    | 0.24049    | 0.24049    |   0.0 |  0.27
Modify  | 1.3056     | 1.3056     | 1.3056     |   0.0 |  1.45
Other   |            | 0.2398     |            |       |  0.27

Nlocal:           1228 ave        1228 max        1228 min
Histogram: 1 0 0 0 0 0 0 0 0 0
Nghost:              0 ave           0 max           0 min
Histogram: 1 0 0 0 0 0 0 0 0 0
Neighs:          48437 ave       48437 max       48437 min
Histogram: 1 0 0 0 0 0 0 0 0 0

Total # of neighbors = 48437
Ave neighs/atom = 39.443811
Neighbor list builds = 20
Dangerous builds = 0
Total wall time: 0:01:29
