LAMMPS (15 Sep 2022)
OMP_NUM_THREADS environment is not set. Defaulting to 1 thread. (src/comm.cpp:98)
  using 1 OpenMP thread(s) per MPI task
Loaded 1 plugins from C:\Users\becat\AppData\Local\LAMMPS 64-bit 15Sep2022\plugins
Lattice spacing in x,y,z = 4.079 4.079 4.079
Created orthogonal box = (0 0 0) to (40.79 40.79 40.79)
  1 by 1 by 1 MPI processor grid
Read molecule template np:
  1 molecules
  0 fragments
  459 atoms with max type 1
  0 bonds with max type 0
  0 angles with max type 0
  0 dihedrals with max type 0
  0 impropers with max type 0
Created 459 atoms
  using lattice units in orthogonal box = (7.8037767 7.7362583 7.5923807) to (32.986223 33.053742 33.197619)
  create_atoms CPU = 0.000 seconds
Neighbor list info ...
  update: every = 1 steps, delay = 10 steps, check = yes
  max neighbors/atom: 2000, page size: 100000
  master list distance cutoff = 7.55
  ghost atom cutoff = 7.55
  binsize = 3.775, bins = 7 7 7
  1 neighbor lists, perpetual/occasional/extra = 1 0 0
  (1) pair eam, perpetual
      attributes: half, newton on
      pair build: half/bin/atomonly/newton
      stencil: half/bin/3d
      bin: standard
Setting up Verlet run ...
  Unit style    : metal
  Current step  : 0
  Time step     : 0.001
Per MPI rank memory allocation (min/avg/max) = 4.564 | 4.564 | 4.564 Mbytes
   Step          Temp          PotEng         KinEng         TotEng         Volume    
         0   300           -1682.1924      17.760344     -1664.4321      16324.778    
      1000   306.26844     -1682.5498      18.131443     -1664.4183      16324.778    
      2000   264.88971     -1680.0555      15.681775     -1664.3737      16324.778    
      3000   291.17128     -1681.5359      17.237673     -1664.2982      16324.778    
      4000   270.09771     -1680.1815      15.990094     -1664.1914      16324.778    
      5000   257.70304     -1679.3113      15.256316     -1664.055       16324.778    
      6000   280.85831     -1680.5164      16.627134     -1663.8892      16324.778    
      7000   281.58439     -1680.3703      16.670118     -1663.7002      16324.778    
      8000   282.70843     -1680.2337      16.736663     -1663.4971      16324.778    
      9000   285.03118     -1680.1672      16.874173     -1663.2931      16324.778    
     10000   264.20246     -1678.7407      15.641089     -1663.0996      16324.778    
     11000   288.62609     -1680.0099      17.086995     -1662.9229      16324.778    
     12000   286.57028     -1679.7306      16.965289     -1662.7653      16324.778    
     13000   286.13824     -1679.5666      16.939712     -1662.6269      16324.778    
     14000   301.47516     -1680.3516      17.847675     -1662.5039      16324.778    
     15000   284.33198     -1679.2245      16.832779     -1662.3918      16324.778    
     16000   286.25261     -1679.2327      16.946483     -1662.2863      16324.778    
     17000   305.18947     -1680.2515      18.067567     -1662.1839      16324.778    
     18000   291.05755     -1679.3132      17.230941     -1662.0822      16324.778    
     19000   294.59034     -1679.4201      17.440086     -1661.98        16324.778    
     20000   284.57863     -1678.7238      16.847381     -1661.8765      16324.778    
     21000   276.62561     -1678.1475      16.376554     -1661.7709      16324.778    
     22000   298.96311     -1679.3619      17.698959     -1661.6629      16324.778    
     23000   295.12973     -1679.0248      17.472019     -1661.5528      16324.778    
     24000   293.22853     -1678.8007      17.359465     -1661.4412      16324.778    
     25000   297.28946     -1678.9291      17.599877     -1661.3292      16324.778    
     26000   299.79906     -1678.9657      17.748448     -1661.2172      16324.778    
     27000   290.86938     -1678.3256      17.219801     -1661.1058      16324.778    
     28000   315.76011     -1679.6879      18.693361     -1660.9946      16324.778    
     29000   306.93654     -1679.0566      18.170995     -1660.8856      16324.778    
     30000   315.32452     -1679.4465      18.667573     -1660.779       16324.778    
     31000   293.10128     -1678.028       17.351932     -1660.676       16324.778    
     32000   303.22693     -1678.5294      17.951382     -1660.5781      16324.778    
     33000   317.8392      -1679.3013      18.816445     -1660.4849      16324.778    
     34000   303.26311     -1678.3506      17.953524     -1660.3971      16324.778    
     35000   317.88561     -1679.1339      18.819193     -1660.3148      16324.778    
     36000   307.99462     -1678.4718      18.233635     -1660.2382      16324.778    
     37000   297.76567     -1677.7964      17.628069     -1660.1684      16324.778    
     38000   317.14083     -1678.8796      18.775101     -1660.1045      16324.778    
     39000   315.02719     -1678.6979      18.649971     -1660.048       16324.778    
     40000   307.17547     -1678.1841      18.18514      -1659.999       14739.922    
     41000   307.78258     -1678.1792      18.221082     -1659.9581      14667.43     
     42000   317.72909     -1678.7348      18.809926     -1659.9249      14667.43     
     43000   308.37472     -1678.1556      18.256137     -1659.8995      14667.43     
     44000   313.79469     -1678.4598      18.577005     -1659.8828      15167.932    
     45000   317.57601     -1678.6754      18.800864     -1659.8746      15167.932    
     46000   297.45014     -1677.4856      17.609389     -1659.8762      15167.932    
     47000   327.37602     -1679.2687      19.381036     -1659.8877      15167.932    
     48000   299.22112     -1677.6246      17.714233     -1659.9104      15167.932    
     49000   305.08048     -1678.0056      18.061114     -1659.9445      15167.932    
     50000   312.46951     -1678.4907      18.498553     -1659.9921      14744.626    
Loop time of 27.7813 on 1 procs for 50000 steps with 459 atoms

Performance: 155.500 ns/day, 0.154 hours/ns, 1799.772 timesteps/s
99.0% CPU use with 1 MPI tasks x 1 OpenMP threads

MPI task timing breakdown:
Section |  min time  |  avg time  |  max time  |%varavg| %total
---------------------------------------------------------------
Pair    | 27.072     | 27.072     | 27.072     |   0.0 | 97.45
Neigh   | 0.00195    | 0.00195    | 0.00195    |   0.0 |  0.01
Comm    | 0.009411   | 0.009411   | 0.009411   |   0.0 |  0.03
Output  | 0.093324   | 0.093324   | 0.093324   |   0.0 |  0.34
Modify  | 0.50537    | 0.50537    | 0.50537    |   0.0 |  1.82
Other   |            | 0.0997     |            |       |  0.36

Nlocal:            459 ave         459 max         459 min
Histogram: 1 0 0 0 0 0 0 0 0 0
Nghost:              0 ave           0 max           0 min
Histogram: 1 0 0 0 0 0 0 0 0 0
Neighs:          15840 ave       15840 max       15840 min
Histogram: 1 0 0 0 0 0 0 0 0 0

Total # of neighbors = 15840
Ave neighs/atom = 34.509804
Neighbor list builds = 4
Dangerous builds = 0
Total wall time: 0:00:27
