LAMMPS (15 Sep 2022)
OMP_NUM_THREADS environment is not set. Defaulting to 1 thread. (src/comm.cpp:98)
  using 1 OpenMP thread(s) per MPI task
Loaded 1 plugins from C:\Users\becat\AppData\Local\LAMMPS 64-bit 15Sep2022\plugins
Lattice spacing in x,y,z = 4.079 4.079 4.079
Created orthogonal box = (0 0 0) to (40.79 40.79 40.79)
  1 by 1 by 1 MPI processor grid
Read molecule template np:
  1 molecules
  0 fragments
  923 atoms with max type 1
  0 bonds with max type 0
  0 angles with max type 0
  0 dihedrals with max type 0
  0 impropers with max type 0
Created 923 atoms
  using lattice units in orthogonal box = (4.66782 3.7990103 4.6877002) to (33.513446 36.865301 36.1023)
  create_atoms CPU = 0.000 seconds
Neighbor list info ...
  update: every = 1 steps, delay = 10 steps, check = yes
  max neighbors/atom: 2000, page size: 100000
  master list distance cutoff = 7.55
  ghost atom cutoff = 7.55
  binsize = 3.775, bins = 8 9 9
  1 neighbor lists, perpetual/occasional/extra = 1 0 0
  (1) pair eam, perpetual
      attributes: half, newton on
      pair build: half/bin/atomonly/newton
      stencil: half/bin/3d
      bin: standard
Setting up Verlet run ...
  Unit style    : metal
  Current step  : 0
  Time step     : 0.001
Per MPI rank memory allocation (min/avg/max) = 4.592 | 4.592 | 4.592 Mbytes
   Step          Temp          PotEng         KinEng         TotEng         Volume    
         0   300           -3418.4882      35.753356     -3382.7349      29963.806    
      1000   251.27614     -3412.6468      29.946551     -3382.7002      27368.42     
      2000   254.87314     -3412.9661      30.375234     -3382.5909      27368.42     
      3000   264.47899     -3413.9278      31.520038     -3382.4078      27368.42     
      4000   253.91723     -3412.4139      30.26131      -3382.1525      27668.877    
      5000   265.99455     -3413.5391      31.70066      -3381.8385      27610.719    
      6000   259.68561     -3412.4364      30.948773     -3381.4876      27568.101    
      7000   275.57203     -3413.9762      32.842083     -3381.1342      26935.517    
      8000   273.52478     -3413.4011      32.598096     -3380.803       26756.734    
      9000   272.02871     -3412.9243      32.419798     -3380.5045      27601.327    
     10000   274.28625     -3412.9263      32.688846     -3380.2374      27892.908    
     11000   271.52129     -3412.3466      32.359324     -3379.9873      27819.968    
     12000   271.02411     -3412.0446      32.300072     -3379.7445      27340.4      
     13000   285.3159      -3413.5018      34.003336     -3379.4984      27256.134    
     14000   278.6631      -3412.4542      33.210471     -3379.2437      27256.134    
     15000   275.77211     -3411.8416      32.865929     -3378.9756      27844.107    
     16000   282.73443     -3412.3906      33.695683     -3378.6949      28106.007    
     17000   278.51855     -3411.5964      33.193243     -3378.4032      27097.589    
     18000   283.06647     -3411.8379      33.735254     -3378.1026      27294.037    
     19000   287.82998     -3412.0997      34.302959     -3377.7967      27677.215    
     20000   279.60185     -3410.812       33.322349     -3377.4897      27677.215    
     21000   286.09236     -3411.28        34.095874     -3377.1842      27677.215    
     22000   293.65146     -3411.8779      34.99675      -3376.8811      27677.215    
     23000   283.16201     -3410.3294      33.746641     -3376.5828      27178.909    
     24000   282.29375     -3409.9334      33.643163     -3376.2902      27513.573    
     25000   307.65398     -3412.6679      36.665541     -3376.0023      27491.118    
     26000   296.63166     -3411.0754      35.351925     -3375.7235      27444.539    
     27000   292.77023     -3410.3404      34.891727     -3375.4486      27553.106    
     28000   304.47777     -3411.4699      36.287007     -3375.1829      27512.877    
     29000   296.93269     -3410.3134      35.387801     -3374.9256      27850.589    
     30000   303.75913     -3410.8779      36.201361     -3374.6765      27139.167    
     31000   299.10357     -3410.0814      35.646522     -3374.4349      27209.205    
     32000   295.14856     -3409.3771      35.175172     -3374.2019      28197.569    
     33000   299.36708     -3409.6576      35.677927     -3373.9797      27425.968    
     34000   294.75685     -3408.8956      35.128489     -3373.7671      27733.943    
     35000   291.39004     -3408.2922      34.72724      -3373.565       27040.674    
     36000   307.36309     -3410.0026      36.630873     -3373.3717      27961.447    
     37000   298.29139     -3408.7397      35.549728     -3373.19        27543.667    
     38000   308.07715     -3409.7353      36.715973     -3373.0193      28015.809    
     39000   304.3418      -3409.1332      36.270802     -3372.8624      28030.559    
     40000   308.35109     -3409.4664      36.748621     -3372.7178      27005.464    
     41000   298.86607     -3408.2048      35.618217     -3372.5865      27212.111    
     42000   310.63848     -3409.4911      37.021227     -3372.4698      27525.505    
     43000   312.3394      -3409.5912      37.223939     -3372.3673      27534.648    
     44000   303.91504     -3408.4999      36.219942     -3372.2799      27405.793    
     45000   302.84952     -3408.3018      36.092955     -3372.2088      27301.64     
     46000   305.83553     -3408.6001      36.448822     -3372.1512      27155.259    
     47000   299.58556     -3407.8121      35.703963     -3372.1082      27467.113    
     48000   298.91807     -3407.7059      35.624414     -3372.0815      27653.449    
     49000   305.72259     -3408.5068      36.435362     -3372.0715      27506.084    
     50000   315.7523      -3409.7097      37.630682     -3372.079       27458.326    
Loop time of 48.8586 on 1 procs for 50000 steps with 923 atoms

Performance: 88.418 ns/day, 0.271 hours/ns, 1023.362 timesteps/s
100.0% CPU use with 1 MPI tasks x 1 OpenMP threads

MPI task timing breakdown:
Section |  min time  |  avg time  |  max time  |%varavg| %total
---------------------------------------------------------------
Pair    | 47.792     | 47.792     | 47.792     |   0.0 | 97.82
Neigh   | 0.068595   | 0.068595   | 0.068595   |   0.0 |  0.14
Comm    | 0.006946   | 0.006946   | 0.006946   |   0.0 |  0.01
Output  | 0.13843    | 0.13843    | 0.13843    |   0.0 |  0.28
Modify  | 0.71889    | 0.71889    | 0.71889    |   0.0 |  1.47
Other   |            | 0.134      |            |       |  0.27

Nlocal:            923 ave         923 max         923 min
Histogram: 1 0 0 0 0 0 0 0 0 0
Nghost:              0 ave           0 max           0 min
Histogram: 1 0 0 0 0 0 0 0 0 0
Neighs:          35137 ave       35137 max       35137 min
Histogram: 1 0 0 0 0 0 0 0 0 0

Total # of neighbors = 35137
Ave neighs/atom = 38.068256
Neighbor list builds = 75
Dangerous builds = 0
Total wall time: 0:00:48
