LAMMPS (15 Sep 2022)
OMP_NUM_THREADS environment is not set. Defaulting to 1 thread. (src/comm.cpp:98)
  using 1 OpenMP thread(s) per MPI task
Loaded 1 plugins from C:\Users\becat\AppData\Local\LAMMPS 64-bit 15Sep2022\plugins
Lattice spacing in x,y,z = 4.079 4.079 4.079
Created orthogonal box = (0 0 0) to (40.79 40.79 40.79)
  1 by 1 by 1 MPI processor grid
Read molecule template np:
  1 molecules
  0 fragments
  13 atoms with max type 1
  0 bonds with max type 0
  0 angles with max type 0
  0 dihedrals with max type 0
  0 impropers with max type 0
Created 13 atoms
  using lattice units in orthogonal box = (18.118063 17.729817 17.692936) to (22.671937 23.060183 23.097064)
  create_atoms CPU = 0.000 seconds
Neighbor list info ...
  update: every = 1 steps, delay = 10 steps, check = yes
  max neighbors/atom: 2000, page size: 100000
  master list distance cutoff = 7.55
  ghost atom cutoff = 7.55
  binsize = 3.775, bins = 2 2 2
  1 neighbor lists, perpetual/occasional/extra = 1 0 0
  (1) pair eam, perpetual
      attributes: half, newton on
      pair build: half/bin/atomonly/newton
      stencil: half/bin/3d
      bin: standard
Setting up Verlet run ...
  Unit style    : metal
  Current step  : 0
  Time step     : 0.001
Per MPI rank memory allocation (min/avg/max) = 4.41 | 4.41 | 4.41 Mbytes
   Step          Temp          PotEng         KinEng         TotEng         Volume    
         0   300           -36.658324      0.46533652    -36.192988      131.17881    
      1000   977.76385     -37.751463      1.5166308     -36.234832      130.41764    
      2000   1059.8956     -38.009378      1.6440271     -36.36535       109.34883    
      3000   862.56735     -37.901348      1.337947      -36.563401      144.60049    
      4000   833.49227     -38.065236      1.292848      -36.772388      110.59941    
      5000   932.32149     -38.388142      1.4461441     -36.941998      134.42385    
      6000   841.49999     -38.396026      1.3052689     -37.090757      139.7086     
      7000   829.48373     -38.511985      1.2866303     -37.225355      145.75507    
      8000   665.21648     -38.394171      1.0318317     -37.362339      108.31186    
      9000   484.57453     -38.246352      0.75163408    -37.494718      113.07387    
     10000   877.15943     -38.977849      1.3605811     -37.617267      148.67436    
     11000   787.72442     -38.970134      1.2218565     -37.748277      156.57315    
     12000   754.31825     -39.032332      1.1700394     -37.862293      150.20673    
     13000   591.47712     -38.883945      0.91745302    -37.966492      143.25753    
     14000   601.86697     -38.997959      0.93356894    -38.06439       146.98296    
     15000   572.60264     -39.061668      0.88817641    -38.173492      111.22391    
     16000   619.00383     -39.237589      0.9601503     -38.277439      136.61719    
     17000   614.13855     -39.320529      0.95260366    -38.367925      127.94882    
     18000   333.8658      -38.973884      0.51786651    -38.456017      130.5519     
     19000   469.91877     -39.270419      0.72890122    -38.541518      129.91357    
     20000   443.9182      -39.30792       0.68857117    -38.619349      124.41813    
     21000   600.72572     -39.640984      0.93179873    -38.709185      120.70904    
     22000   603.85548     -39.745794      0.93665337    -38.809141      120.70904    
     23000   592.40613     -39.823049      0.91889403    -38.904155      118.4033     
     24000   465.88569     -39.719396      0.72264543    -38.99675       118.4033     
     25000   544.51782     -39.926201      0.84461342    -39.081588      126.69656    
     26000   493.00672     -39.927984      0.76471344    -39.16327       126.69656    
     27000   317.86627     -39.732687      0.49304929    -39.239637      126.69656    
     28000   330.97144     -39.822657      0.513377      -39.30928       126.69656    
     29000   366.85592     -39.941397      0.56903819    -39.372359      126.69656    
     30000   388.20038     -40.03488       0.60214605    -39.432734      126.69656    
     31000   389.42494     -40.090542      0.60404548    -39.486496      126.69656    
     32000   339.33059     -40.062652      0.52634306    -39.536309      126.69656    
     33000   326.81406     -40.088748      0.50692839    -39.58182       126.69656    
     34000   333.67967     -40.140921      0.51757779    -39.623343      126.69656    
     35000   276.78372     -40.090878      0.42932525    -39.661552      126.69656    
     36000   344.71033     -40.231685      0.53468769    -39.696998      126.69656    
     37000   347.6517      -40.268454      0.53925011    -39.729204      126.69656    
     38000   289.29574     -40.207587      0.44873292    -39.758854      126.69656    
     39000   267.53252     -40.200399      0.4149755     -39.785424      126.69656    
     40000   273.98265     -40.234629      0.42498045    -39.809649      126.69656    
     41000   295.30628     -40.28976       0.45805599    -39.831704      126.69656    
     42000   259.30901     -40.254201      0.40221984    -39.851981      126.69656    
     43000   227.53138     -40.223031      0.35292887    -39.870102      126.69656    
     44000   195.28353     -40.189194      0.30290853    -39.886285      126.69656    
     45000   228.00492     -40.254094      0.35366339    -39.90043       126.69656    
     46000   265.75916     -40.324832      0.4122248     -39.912608      126.69656    
     47000   326.45271     -40.429171      0.5063679     -39.922803      126.69656    
     48000   232.3113      -40.291801      0.36034311    -39.931458      126.69656    
     49000   250.4517      -40.326703      0.38848107    -39.938222      126.69656    
     50000   297.98393     -40.405452      0.46220935    -39.943243      126.69656    
Loop time of 0.367277 on 1 procs for 50000 steps with 13 atoms

Performance: 11762.239 ns/day, 0.002 hours/ns, 136137.030 timesteps/s
97.8% CPU use with 1 MPI tasks x 1 OpenMP threads

MPI task timing breakdown:
Section |  min time  |  avg time  |  max time  |%varavg| %total
---------------------------------------------------------------
Pair    | 0.27572    | 0.27572    | 0.27572    |   0.0 | 75.07
Neigh   | 0.00017    | 0.00017    | 0.00017    |   0.0 |  0.05
Comm    | 0.006707   | 0.006707   | 0.006707   |   0.0 |  1.83
Output  | 0.004631   | 0.004631   | 0.004631   |   0.0 |  1.26
Modify  | 0.064633   | 0.064633   | 0.064633   |   0.0 | 17.60
Other   |            | 0.01541    |            |       |  4.20

Nlocal:             13 ave          13 max          13 min
Histogram: 1 0 0 0 0 0 0 0 0 0
Nghost:              0 ave           0 max           0 min
Histogram: 1 0 0 0 0 0 0 0 0 0
Neighs:             78 ave          78 max          78 min
Histogram: 1 0 0 0 0 0 0 0 0 0

Total # of neighbors = 78
Ave neighs/atom = 6
Neighbor list builds = 50
Dangerous builds = 0
Total wall time: 0:00:00
