LAMMPS (15 Sep 2022)
OMP_NUM_THREADS environment is not set. Defaulting to 1 thread. (src/comm.cpp:98)
  using 1 OpenMP thread(s) per MPI task
Loaded 1 plugins from C:\Users\becat\AppData\Local\LAMMPS 64-bit 15Sep2022\plugins
Lattice spacing in x,y,z = 4.079 4.079 4.079
Created orthogonal box = (0 0 0) to (40.79 40.79 40.79)
  1 by 1 by 1 MPI processor grid
Read molecule template np:
  1 molecules
  0 fragments
  766 atoms with max type 1
  0 bonds with max type 0
  0 angles with max type 0
  0 dihedrals with max type 0
  0 impropers with max type 0
Created 766 atoms
  using lattice units in orthogonal box = (5.894918 5.1086397 7.3049039) to (34.997722 35.686307 33.485097)
  create_atoms CPU = 0.000 seconds
Neighbor list info ...
  update: every = 1 steps, delay = 10 steps, check = yes
  max neighbors/atom: 2000, page size: 100000
  master list distance cutoff = 7.55
  ghost atom cutoff = 7.55
  binsize = 3.775, bins = 8 9 7
  1 neighbor lists, perpetual/occasional/extra = 1 0 0
  (1) pair eam, perpetual
      attributes: half, newton on
      pair build: half/bin/atomonly/newton
      stencil: half/bin/3d
      bin: standard
Setting up Verlet run ...
  Unit style    : metal
  Current step  : 0
  Time step     : 0.001
Per MPI rank memory allocation (min/avg/max) = 4.582 | 4.582 | 4.582 Mbytes
   Step          Temp          PotEng         KinEng         TotEng         Volume    
         0   300           -2837.5249      29.665203     -2807.8597      23297.645    
      1000   246.96668     -2832.253       24.421056     -2807.832       23297.645    
      2000   262.84396     -2833.7339      25.991065     -2807.7429      23297.645    
      3000   257.82674     -2833.0898      25.494942     -2807.5948      23297.645    
      4000   265.41633     -2833.633       26.245431     -2807.3876      23297.645    
      5000   278.57171     -2834.6723      27.546288     -2807.126       23297.645    
      6000   278.55417     -2834.3745      27.544553     -2806.83        23297.645    
      7000   269.66708     -2833.1879      26.665763     -2806.5221      23297.645    
      8000   264.57435     -2832.3864      26.162173     -2806.2243      21616.549    
      9000   259.24221     -2831.587       25.63491      -2805.9521      21616.549    
     10000   284.11647     -2833.8036      28.094576     -2805.709       21764.509    
     11000   277.27088     -2832.9076      27.417656     -2805.4899      21764.509    
     12000   271.94153     -2832.174       26.890669     -2805.2833      21764.509    
     13000   288.80395     -2833.6381      28.558093     -2805.08        21764.509    
     14000   276.54822     -2832.2208      27.346198     -2804.8746      21695.584    
     15000   272.17794     -2831.5776      26.914046     -2804.6636      21695.584    
     16000   272.03716     -2831.3433      26.900125     -2804.4432      21695.584    
     17000   270.76562     -2830.9883      26.77439      -2804.2139      21695.584    
     18000   293.32704     -2832.9809      29.005354     -2803.9755      21695.584    
     19000   287.80123     -2832.1913      28.45894      -2803.7324      21695.584    
     20000   286.78128     -2831.8423      28.358084     -2803.4842      21695.584    
     21000   285.79392     -2831.4945      28.260449     -2803.234       21695.584    
     22000   289.54722     -2831.6163      28.63159      -2802.9847      21695.584    
     23000   295.43364     -2831.9527      29.213663     -2802.7391      21695.584    
     24000   276.8661      -2829.8738      27.377631     -2802.4961      21695.584    
     25000   300.22648     -2831.9456      29.687599     -2802.258       21695.584    
     26000   291.7143      -2830.8737      28.84588      -2802.0278      21695.584    
     27000   294.98161     -2830.9732      29.168965     -2801.8042      21695.584    
     28000   296.93166     -2830.9486      29.361793     -2801.5868      21695.584    
     29000   305.21982     -2831.5586      30.18136      -2801.3772      21695.584    
     30000   308.09698     -2831.6432      30.465865     -2801.1773      21695.584    
     31000   299.15944     -2830.5674      29.582085     -2800.9854      21695.584    
     32000   288.51202     -2829.3317      28.529226     -2800.8025      21695.584    
     33000   312.09482     -2831.4877      30.861188     -2800.6265      21695.584    
     34000   300.06724     -2830.1324      29.671852     -2800.4606      21585.777    
     35000   301.58502     -2830.1259      29.821936     -2800.304       21585.777    
     36000   298.88083     -2829.7109      29.554536     -2800.1564      21891.389    
     37000   304.11965     -2830.0906      30.07257      -2800.018       21891.389    
     38000   308.95228     -2830.4414      30.550441     -2799.8909      21891.389    
     39000   305.97244     -2830.0313      30.255782     -2799.7755      21891.389    
     40000   303.62477     -2829.6946      30.023635     -2799.671       21747.037    
     41000   303.08847     -2829.5476      29.970604     -2799.577       21572.61     
     42000   306.0982      -2829.7619      30.268218     -2799.4936      21572.61     
     43000   308.29657     -2829.9091      30.485601     -2799.4235      21572.61     
     44000   307.04222     -2829.727       30.361567     -2799.3655      21572.61     
     45000   304.13286     -2829.3936      30.073877     -2799.3198      21572.61     
     46000   308.33973     -2829.7772      30.489869     -2799.2873      21572.61     
     47000   315.48757     -2830.4651      31.196676     -2799.2684      21572.61     
     48000   311.45124     -2830.0619      30.797548     -2799.2644      21572.61     
     49000   307.65523     -2829.6965      30.422183     -2799.2743      21637.01     
     50000   302.95956     -2829.258       29.957856     -2799.3002      21864.896    
Loop time of 40.1967 on 1 procs for 50000 steps with 766 atoms

Performance: 107.471 ns/day, 0.223 hours/ns, 1243.883 timesteps/s
100.0% CPU use with 1 MPI tasks x 1 OpenMP threads

MPI task timing breakdown:
Section |  min time  |  avg time  |  max time  |%varavg| %total
---------------------------------------------------------------
Pair    | 39.334     | 39.334     | 39.334     |   0.0 | 97.85
Neigh   | 0.009824   | 0.009824   | 0.009824   |   0.0 |  0.02
Comm    | 0.006281   | 0.006281   | 0.006281   |   0.0 |  0.02
Output  | 0.11594    | 0.11594    | 0.11594    |   0.0 |  0.29
Modify  | 0.61614    | 0.61614    | 0.61614    |   0.0 |  1.53
Other   |            | 0.1142     |            |       |  0.28

Nlocal:            766 ave         766 max         766 min
Histogram: 1 0 0 0 0 0 0 0 0 0
Nghost:              0 ave           0 max           0 min
Histogram: 1 0 0 0 0 0 0 0 0 0
Neighs:          28887 ave       28887 max       28887 min
Histogram: 1 0 0 0 0 0 0 0 0 0

Total # of neighbors = 28887
Ave neighs/atom = 37.711488
Neighbor list builds = 13
Dangerous builds = 0
Total wall time: 0:00:40
