LAMMPS (15 Sep 2022)
OMP_NUM_THREADS environment is not set. Defaulting to 1 thread. (src/comm.cpp:98)
  using 1 OpenMP thread(s) per MPI task
Loaded 1 plugins from C:\Users\becat\AppData\Local\LAMMPS 64-bit 15Sep2022\plugins
Lattice spacing in x,y,z = 4.079 4.079 4.079
Created orthogonal box = (0 0 0) to (40.79 40.79 40.79)
  1 by 1 by 1 MPI processor grid
Read molecule template np:
  1 molecules
  0 fragments
  36 atoms with max type 1
  0 bonds with max type 0
  0 angles with max type 0
  0 dihedrals with max type 0
  0 impropers with max type 0
Created 36 atoms
  using lattice units in orthogonal box = (16.093404 16.513266 15.882042) to (24.271129 24.215175 24.653941)
  create_atoms CPU = 0.000 seconds
Neighbor list info ...
  update: every = 1 steps, delay = 10 steps, check = yes
  max neighbors/atom: 2000, page size: 100000
  master list distance cutoff = 7.55
  ghost atom cutoff = 7.55
  binsize = 3.775, bins = 3 3 3
  1 neighbor lists, perpetual/occasional/extra = 1 0 0
  (1) pair eam, perpetual
      attributes: half, newton on
      pair build: half/bin/atomonly/newton
      stencil: half/bin/3d
      bin: standard
Setting up Verlet run ...
  Unit style    : metal
  Current step  : 0
  Time step     : 0.001
Per MPI rank memory allocation (min/avg/max) = 4.537 | 4.537 | 4.537 Mbytes
   Step          Temp          PotEng         KinEng         TotEng         Volume    
         0   300           -120.86046      1.3572315     -119.50323      552.49023    
      1000   184.84209     -120.33649      0.83624502    -119.50025      552.49023    
      2000   216.94613     -120.47249      0.98148711    -119.491        552.49023    
      3000   184.5137      -120.31032      0.83475936    -119.47556      552.49023    
      4000   197.27832     -120.3465       0.89250784    -119.45399      552.49023    
      5000   236.92755     -120.49634      1.0718851     -119.42446      516.56934    
      6000   198.00165     -120.28514      0.89578029    -119.38936      516.56934    
      7000   222.91291     -120.35751      1.0084814     -119.34902      516.56934    
      8000   252.19008     -120.44595      1.1409344     -119.30501      516.56934    
      9000   247.66461     -120.38049      1.1204607     -119.26002      516.56934    
     10000   246.20208     -120.32965      1.1138441     -119.21581      516.56934    
     11000   254.84949     -120.32789      1.1529659     -119.17493      516.56934    
     12000   203.83709     -120.06129      0.92218043    -119.13911      583.62359    
     13000   240.17554     -120.19328      1.0865794     -119.1067       583.62359    
     14000   237.67717     -120.15173      1.0752765     -119.07645      510.33745    
     15000   240.49213     -120.13669      1.0880116     -119.04868      510.33745    
     16000   232.0746      -120.07193      1.0499299     -119.022        510.33745    
     17000   293.81249     -120.32465      1.3292386     -118.99541      510.33745    
     18000   216.79612     -119.94938      0.98080842    -118.96857      510.33745    
     19000   267.9981      -120.15303      1.2124516     -118.94058      541.5861     
     20000   280.86428     -120.18225      1.2706595     -118.91159      506.10206    
     21000   298.23191     -120.23176      1.3492325     -118.88252      506.10206    
     22000   300.53184     -120.21083      1.3596376     -118.85119      506.10206    
     23000   316.76012     -120.25205      1.433056      -118.819        506.10206    
     24000   252.07714     -119.92622      1.1404235     -118.7858       506.10206    
     25000   233.79268     -119.81035      1.0577026     -118.75265      506.10206    
     26000   290.33261     -120.03247      1.3134952     -118.71897      506.10206    
     27000   316.09096     -120.11474      1.4300287     -118.68471      506.10206    
     28000   322.1604      -120.1094       1.4574875     -118.65191      506.10206    
     29000   277.02195     -119.87032      1.2532764     -118.61704      506.10206    
     30000   314.94599     -120.0086       1.4248487     -118.58376      506.10206    
     31000   278.615       -119.81129      1.2604835     -118.5508       506.10206    
     32000   269.50407     -119.73803      1.2192647     -118.51877      558.80574    
     33000   338.02022     -120.01866      1.529239      -118.48942      558.80574    
     34000   310.09226     -119.86475      1.40289       -118.46186      568.72386    
     35000   294.68193     -119.76747      1.333172      -118.4343       568.72386    
     36000   285.29616     -119.69795      1.2907098     -118.40724      611.00844    
     37000   269.06264     -119.59827      1.2172676     -118.381        555.72127    
     38000   349.4476      -119.93451      1.5809377     -118.35357      626.50157    
     39000   315.31695     -119.755        1.426527      -118.32848      591.3071     
     40000   294.0382      -119.63624      1.3302597     -118.30598      591.3071     
     41000   344.25121     -119.84347      1.5574286     -118.28604      591.3071     
     42000   354.03051     -119.87089      1.6016712     -118.26922      591.3071     
     43000   317.79971     -119.69329      1.4377593     -118.25554      591.3071     
     44000   365.60513     -119.89913      1.654036      -118.2451       591.3071     
     45000   361.74729     -119.87462      1.6365827     -118.23804      591.3071     
     46000   341.24704     -119.7779       1.5438375     -118.23407      590.79824    
     47000   313.21523     -119.64998      1.4170186     -118.23296      590.79824    
     48000   392.11953     -120.00905      1.77399       -118.23506      599.94997    
     49000   279.96646     -119.50758      1.2665977     -118.24098      571.32319    
     50000   364.97721     -119.9014       1.6511953     -118.25021      571.32319    
Loop time of 0.975668 on 1 procs for 50000 steps with 36 atoms

Performance: 4427.736 ns/day, 0.005 hours/ns, 51246.941 timesteps/s
99.3% CPU use with 1 MPI tasks x 1 OpenMP threads

MPI task timing breakdown:
Section |  min time  |  avg time  |  max time  |%varavg| %total
---------------------------------------------------------------
Pair    | 0.88042    | 0.88042    | 0.88042    |   0.0 | 90.24
Neigh   | 0.000149   | 0.000149   | 0.000149   |   0.0 |  0.02
Comm    | 0.00494    | 0.00494    | 0.00494    |   0.0 |  0.51
Output  | 0.008939   | 0.008939   | 0.008939   |   0.0 |  0.92
Modify  | 0.067762   | 0.067762   | 0.067762   |   0.0 |  6.95
Other   |            | 0.01346    |            |       |  1.38

Nlocal:             36 ave          36 max          36 min
Histogram: 1 0 0 0 0 0 0 0 0 0
Nghost:              0 ave           0 max           0 min
Histogram: 1 0 0 0 0 0 0 0 0 0
Neighs:            564 ave         564 max         564 min
Histogram: 1 0 0 0 0 0 0 0 0 0

Total # of neighbors = 564
Ave neighs/atom = 15.666667
Neighbor list builds = 14
Dangerous builds = 0
Total wall time: 0:00:00
