LAMMPS (15 Sep 2022)
OMP_NUM_THREADS environment is not set. Defaulting to 1 thread. (src/comm.cpp:98)
  using 1 OpenMP thread(s) per MPI task
Loaded 1 plugins from C:\Users\becat\AppData\Local\LAMMPS 64-bit 15Sep2022\plugins
Lattice spacing in x,y,z = 4.079 4.079 4.079
Created orthogonal box = (0 0 0) to (40.79 40.79 40.79)
  1 by 1 by 1 MPI processor grid
Read molecule template np:
  1 molecules
  0 fragments
  42 atoms with max type 1
  0 bonds with max type 0
  0 angles with max type 0
  0 dihedrals with max type 0
  0 impropers with max type 0
Created 42 atoms
  using lattice units in orthogonal box = (15.149884 14.86028 15.156514) to (24.770532 25.887821 25.633486)
  create_atoms CPU = 0.000 seconds
Neighbor list info ...
  update: every = 1 steps, delay = 10 steps, check = yes
  max neighbors/atom: 2000, page size: 100000
  master list distance cutoff = 7.55
  ghost atom cutoff = 7.55
  binsize = 3.775, bins = 3 3 3
  1 neighbor lists, perpetual/occasional/extra = 1 0 0
  (1) pair eam, perpetual
      attributes: half, newton on
      pair build: half/bin/atomonly/newton
      stencil: half/bin/3d
      bin: standard
Setting up Verlet run ...
  Unit style    : metal
  Current step  : 0
  Time step     : 0.001
Per MPI rank memory allocation (min/avg/max) = 4.537 | 4.537 | 4.537 Mbytes
   Step          Temp          PotEng         KinEng         TotEng         Volume    
         0   300           -109.67053      1.5898998     -108.08063      1111.5238    
      1000   2336.3808     -121.26498      12.382038     -108.88294      903.75255    
      2000   1982.3659     -121.29195      10.505877     -110.78608      1233.3658    
      3000   2362.4427     -125.12622      12.520157     -112.60606      885.95455    
      4000   2131.7436     -125.83045      11.297529     -114.53292      848.10092    
      5000   1926.9113     -126.67198      10.211986     -116.46         887.64641    
      6000   1622.2375     -126.86439      8.5973169     -118.26707      953.4092     
      7000   1639.2471     -128.59506      8.6874619     -119.9076       1277.9859    
      8000   1690.4313     -130.47401      8.9587211     -121.51529      753.72905    
      9000   1463.7509     -130.84987      7.7573907     -123.09248      797.50383    
     10000   1516.0148     -132.48309      8.034372      -124.44872      1011.0974    
     11000   1502.624      -133.72568      7.963405      -125.76227      915.96485    
     12000   1083.5418     -132.75169      5.7424094     -127.00928      891.94044    
     13000   1034.5926     -133.52188      5.4829954     -128.03889      758.33271    
     14000   989.05586     -134.25125      5.2416656     -129.00958      816.51542    
     15000   712.10713     -133.65789      3.7739299     -129.88396      803.06167    
     16000   846.52736     -135.15455      4.4863122     -130.66823      820.04046    
     17000   830.93548     -135.7833       4.4036804     -131.37962      706.59673    
     18000   761.5884      -136.03965      4.0361641     -132.00348      679.92897    
     19000   806.15499     -136.90579      4.2723522     -132.63344      733.98427    
     20000   806.01253     -137.51731      4.2715971     -133.24571      758.06667    
     21000   581.87151     -136.88982      3.0837246     -133.8061       740.40848    
     22000   617.98734     -137.58204      3.2751265     -134.30691      689.22481    
     23000   708.07911     -138.57387      3.7525828     -134.82129      671.86275    
     24000   623.73946     -138.60536      3.3056108     -135.29974      763.44848    
     25000   676.44506     -139.34935      3.5849328     -135.76442      691.17375    
     26000   562.38928     -139.16105      2.9804753     -136.18057      817.50555    
     27000   391.08897     -138.61192      2.0726409     -136.53928      818.85966    
     28000   559.25855     -139.85793      2.9638835     -136.89404      753.9483     
     29000   474.82868     -139.71957      2.5164334     -137.20314      732.73349    
     30000   381.15399     -139.51032      2.0199888     -137.49033      751.69639    
     31000   416.46062     -139.96343      2.2071021     -137.75633      777.40272    
     32000   406.04669     -140.15117      2.1519118     -137.99926      773.20914    
     33000   337.17245     -140.00705      1.7869013     -138.22015      793.11654    
     34000   371.49292     -140.40055      1.9687884     -138.43176      716.01445    
     35000   422.90473     -140.86527      2.2412538     -138.62402      716.01445    
     36000   367.86406     -140.74174      1.9495567     -138.79218      750.09809    
     37000   327.4526      -140.68391      1.7353894     -138.94852      750.09809    
     38000   310.88871     -140.73972      1.6476063     -139.09212      750.09809    
     39000   309.66457     -140.86789      1.6411188     -139.22677      710.09271    
     40000   291.88844     -140.89448      1.5469112     -139.34757      667.93145    
     41000   274.61987     -140.90698      1.4553936     -139.45159      667.93145    
     42000   279.94043     -141.02846      1.4835907     -139.54486      667.93145    
     43000   259.98946     -141.00884      1.3778573     -139.63099      666.85331    
     44000   232.78831     -140.94297      1.2337003     -139.70927      666.85331    
     45000   234.01722     -141.01903      1.2402131     -139.77882      666.85331    
     46000   240.1735      -141.11538      1.2728393     -139.84254      682.02782    
     47000   211.10819     -141.01921      1.1188029     -139.9004       682.02782    
     48000   233.23556     -141.18657      1.2360706     -139.9505       682.02782    
     49000   224.22415     -141.183        1.1883131     -139.99469      682.02782    
     50000   245.23956     -141.33135      1.2996877     -140.03166      682.02782    
Loop time of 1.30456 on 1 procs for 50000 steps with 42 atoms

Performance: 3311.451 ns/day, 0.007 hours/ns, 38326.981 timesteps/s
98.2% CPU use with 1 MPI tasks x 1 OpenMP threads

MPI task timing breakdown:
Section |  min time  |  avg time  |  max time  |%varavg| %total
---------------------------------------------------------------
Pair    | 1.1864     | 1.1864     | 1.1864     |   0.0 | 90.94
Neigh   | 0.001959   | 0.001959   | 0.001959   |   0.0 |  0.15
Comm    | 0.005821   | 0.005821   | 0.005821   |   0.0 |  0.45
Output  | 0.010763   | 0.010763   | 0.010763   |   0.0 |  0.83
Modify  | 0.079449   | 0.079449   | 0.079449   |   0.0 |  6.09
Other   |            | 0.02021    |            |       |  1.55

Nlocal:             42 ave          42 max          42 min
Histogram: 1 0 0 0 0 0 0 0 0 0
Nghost:              0 ave           0 max           0 min
Histogram: 1 0 0 0 0 0 0 0 0 0
Neighs:            712 ave         712 max         712 min
Histogram: 1 0 0 0 0 0 0 0 0 0

Total # of neighbors = 712
Ave neighs/atom = 16.952381
Neighbor list builds = 168
Dangerous builds = 0
Total wall time: 0:00:01
