LAMMPS (15 Sep 2022)
OMP_NUM_THREADS environment is not set. Defaulting to 1 thread. (src/comm.cpp:98)
  using 1 OpenMP thread(s) per MPI task
Loaded 1 plugins from C:\Users\becat\AppData\Local\LAMMPS 64-bit 15Sep2022\plugins
Lattice spacing in x,y,z = 4.079 4.079 4.079
Created orthogonal box = (0 0 0) to (40.79 40.79 40.79)
  1 by 1 by 1 MPI processor grid
Read molecule template np:
  1 molecules
  0 fragments
  20 atoms with max type 1
  0 bonds with max type 0
  0 angles with max type 0
  0 dihedrals with max type 0
  0 impropers with max type 0
Created 20 atoms
  using lattice units in orthogonal box = (16.750898 17.593241 16.472723) to (23.881172 23.48155 23.493457)
  create_atoms CPU = 0.000 seconds
Neighbor list info ...
  update: every = 1 steps, delay = 10 steps, check = yes
  max neighbors/atom: 2000, page size: 100000
  master list distance cutoff = 7.55
  ghost atom cutoff = 7.55
  binsize = 3.775, bins = 2 2 2
  1 neighbor lists, perpetual/occasional/extra = 1 0 0
  (1) pair eam, perpetual
      attributes: half, newton on
      pair build: half/bin/atomonly/newton
      stencil: half/bin/3d
      bin: standard
Setting up Verlet run ...
  Unit style    : metal
  Current step  : 0
  Time step     : 0.001
Per MPI rank memory allocation (min/avg/max) = 4.41 | 4.41 | 4.41 Mbytes
   Step          Temp          PotEng         KinEng         TotEng         Volume    
         0   300           -56.641857      0.73678283    -55.905074      294.76727    
      1000   1554.8985     -59.821582      3.8187417     -56.00284       368.08696    
      2000   1221.644      -59.334629      3.0002878     -56.334341      252.64837    
      3000   1061.1258     -59.399352      2.6060642     -56.793288      282.57821    
      4000   1227.5627     -60.18939       3.0148237     -57.174566      266.4396     
      5000   1181.2294     -60.479559      2.9010318     -57.578527      286.58097    
      6000   1127.3657     -60.701087      2.7687457     -57.932341      277.98865    
      7000   1077.9566     -60.948673      2.6473997     -58.301274      240.55333    
      8000   1245.8065     -61.726175      3.0596295     -58.666545      241.83875    
      9000   1077.1516     -61.690124      2.6454228     -59.044702      227.0531     
     10000   982.60326     -61.80791       2.4132174     -59.394692      320.51674    
     11000   652.6943      -61.324669      1.6029798     -59.721689      249.02953    
     12000   854.74726     -62.072915      2.0992103     -59.973705      258.08523    
     13000   875.012       -62.384033      2.1489794     -60.235053      244.4987     
     14000   653.50799     -62.085958      1.6049782     -60.48098       237.79212    
     15000   582.49322     -62.147292      1.43057       -60.716722      206.43016    
     16000   540.5009      -62.272317      1.3274393     -60.944877      246.69224    
     17000   611.29312     -62.660233      1.5013009     -61.158932      246.69224    
     18000   532.72133     -62.668651      1.3083331     -61.360318      246.69224    
     19000   467.86829     -62.702122      1.1490577     -61.553064      246.69224    
     20000   591.01944     -63.184697      1.4515099     -61.733187      246.69224    
     21000   471.86339     -63.053819      1.1588695     -61.894949      210.84592    
     22000   495.47374     -63.257332      1.2168551     -62.040477      210.84592    
     23000   386.69253     -63.125601      0.94969471    -62.175906      198.38489    
     24000   542.68647     -63.633865      1.3328069     -62.301058      198.38489    
     25000   464.89227     -63.559628      1.1417488     -62.41788       234.52124    
     26000   393.12178     -63.490345      0.9654846     -62.524861      234.52124    
     27000   357.70229     -63.498678      0.87849634    -62.620182      234.52124    
     28000   391.05834     -63.666832      0.96041689    -62.706415      228.66614    
     29000   313.92005     -63.556617      0.77096967    -62.785647      228.66614    
     30000   333.0191      -63.680137      0.81787584    -62.862261      228.66614    
     31000   265.75126     -63.584571      0.65266989    -62.931901      228.66614    
     32000   270.91335     -63.658168      0.66534768    -62.992821      228.66614    
     33000   271.49557     -63.717784      0.66677758    -63.051006      228.66614    
     34000   275.30274     -63.781335      0.67612778    -63.105207      228.66614    
     35000   270.29063     -63.817264      0.66381832    -63.153445      228.66614    
     36000   272.30647     -63.864993      0.66876911    -63.196224      206.22258    
     37000   287.74921     -63.941389      0.70669559    -63.234693      206.22258    
     38000   241.83142     -63.8634        0.59392413    -63.269476      206.22258    
     39000   287.86435     -64.008192      0.70697836    -63.301214      206.22258    
     40000   264.88324     -63.979973      0.65053808    -63.329435      206.22258    
     41000   254.62404     -63.979425      0.62534206    -63.354083      206.22258    
     42000   201.31831     -63.870061      0.49442624    -63.375634      206.22258    
     43000   214.74124     -63.921451      0.52739219    -63.394058      206.22258    
     44000   253.6787      -64.032391      0.62302036    -63.409371      206.22258    
     45000   221.63681     -63.966026      0.54432732    -63.421699      206.22258    
     46000   283.45771     -64.127428      0.6961559     -63.431272      206.22258    
     47000   209.94906     -63.953603      0.51562288    -63.437981      206.22258    
     48000   258.9224      -64.077692      0.63589859    -63.441794      206.22258    
     49000   201.06629     -63.936552      0.49380729    -63.442744      206.22258    
     50000   212.69761     -63.963032      0.52237317    -63.440659      206.22258    
Loop time of 0.617759 on 1 procs for 50000 steps with 20 atoms

Performance: 6993.018 ns/day, 0.003 hours/ns, 80937.712 timesteps/s
98.6% CPU use with 1 MPI tasks x 1 OpenMP threads

MPI task timing breakdown:
Section |  min time  |  avg time  |  max time  |%varavg| %total
---------------------------------------------------------------
Pair    | 0.51105    | 0.51105    | 0.51105    |   0.0 | 82.73
Neigh   | 0.000334   | 0.000334   | 0.000334   |   0.0 |  0.05
Comm    | 0.006665   | 0.006665   | 0.006665   |   0.0 |  1.08
Output  | 0.008889   | 0.008889   | 0.008889   |   0.0 |  1.44
Modify  | 0.073899   | 0.073899   | 0.073899   |   0.0 | 11.96
Other   |            | 0.01692    |            |       |  2.74

Nlocal:             20 ave          20 max          20 min
Histogram: 1 0 0 0 0 0 0 0 0 0
Nghost:              0 ave           0 max           0 min
Histogram: 1 0 0 0 0 0 0 0 0 0
Neighs:            190 ave         190 max         190 min
Histogram: 1 0 0 0 0 0 0 0 0 0

Total # of neighbors = 190
Ave neighs/atom = 9.5
Neighbor list builds = 70
Dangerous builds = 0
Total wall time: 0:00:00
