LAMMPS (15 Sep 2022)
OMP_NUM_THREADS environment is not set. Defaulting to 1 thread. (src/comm.cpp:98)
  using 1 OpenMP thread(s) per MPI task
Loaded 1 plugins from C:\Users\becat\AppData\Local\LAMMPS 64-bit 15Sep2022\plugins
Lattice spacing in x,y,z = 4.079 4.079 4.079
Created orthogonal box = (0 0 0) to (40.79 40.79 40.79)
  1 by 1 by 1 MPI processor grid
Read molecule template np:
  1 molecules
  0 fragments
  80 atoms with max type 1
  0 bonds with max type 0
  0 angles with max type 0
  0 dihedrals with max type 0
  0 impropers with max type 0
Created 80 atoms
  using lattice units in orthogonal box = (13.756468 13.404597 15.156514) to (28.440542 27.453192 25.633486)
  create_atoms CPU = 0.000 seconds
Neighbor list info ...
  update: every = 1 steps, delay = 10 steps, check = yes
  max neighbors/atom: 2000, page size: 100000
  master list distance cutoff = 7.55
  ghost atom cutoff = 7.55
  binsize = 3.775, bins = 4 4 3
  1 neighbor lists, perpetual/occasional/extra = 1 0 0
  (1) pair eam, perpetual
      attributes: half, newton on
      pair build: half/bin/atomonly/newton
      stencil: half/bin/3d
      bin: standard
Setting up Verlet run ...
  Unit style    : metal
  Current step  : 0
  Time step     : 0.001
Per MPI rank memory allocation (min/avg/max) = 4.54 | 4.54 | 4.54 Mbytes
   Step          Temp          PotEng         KinEng         TotEng         Volume    
         0   300           -271.70348      3.0634654     -268.64002      2161.3008    
      1000   347.60165     -272.23269      3.5495522     -268.68314      1503.6457    
      2000   498.80762     -273.8919       5.0935997     -268.7983       1595.3453    
      3000   409.99677     -273.1667       4.1867031     -268.98         1495.6014    
      4000   476.43393     -274.06857      4.8651296     -269.20344      1509.2009    
      5000   474.83278     -274.29017      4.8487794     -269.44139      1454.1502    
      6000   463.45921     -274.40471      4.7326376     -269.67208      1567.0824    
      7000   445.27782     -274.42426      4.5469774     -269.87729      1645.7507    
      8000   486.67746     -275.03307      4.969732      -270.06333      1605.2908    
      9000   411.49468     -274.44641      4.2019991     -270.24442      1562.294     
     10000   433.64413     -274.85179      4.4281793     -270.42361      1568.5308    
     11000   412.9293      -274.83168      4.2166488     -270.61503      1568.5308    
     12000   437.46782     -275.27723      4.4672251     -270.81         1581.5897    
     13000   429.3669      -275.39143      4.3845022     -271.00693      1581.5897    
     14000   427.52631     -275.56624      4.365707      -271.20054      1581.5897    
     15000   468.70794     -276.18115      4.7862352     -271.39492      1581.5897    
     16000   416.45109     -275.83816      4.2526117     -271.58555      1581.5897    
     17000   393.85808     -275.79061      4.021902      -271.76871      1581.5897    
     18000   392.18622     -275.95408      4.0048298     -271.94925      1581.5897    
     19000   338.98103     -275.58417      3.4615223     -272.12264      1581.5897    
     20000   354.51097     -275.90987      3.620107      -272.28976      1532.5745    
     21000   386.99296     -276.39753      3.9517985     -272.44574      1460.7441    
     22000   309.90255     -275.75618      3.1645858     -272.59159      1460.7441    
     23000   339.80161     -276.20561      3.4699016     -272.73571      1360.0395    
     24000   315.35442     -276.09423      3.2202578     -272.87397      1383.8632    
     25000   339.30798     -276.47083      3.4648609     -273.00597      1383.8632    
     26000   326.23013     -276.46354      3.3313157     -273.13222      1352.0424    
     27000   362.01887     -276.94426      3.6967743     -273.24749      1352.0424    
     28000   324.15521     -276.67354      3.3101276     -273.36342      1352.0424    
     29000   309.00939     -276.62805      3.1554652     -273.47258      1349.5132    
     30000   346.52381     -277.11356      3.5385458     -273.57501      1349.5132    
     31000   336.16508     -277.10474      3.432767      -273.67197      1349.5132    
     32000   289.92315     -276.72587      2.9605652     -273.7653       1349.5132    
     33000   281.36012     -276.72591      2.8731233     -273.85278      1349.5132    
     34000   257.30686     -276.56269      2.6275022     -273.93518      1349.5132    
     35000   283.07418     -276.90285      2.8906265     -274.01223      1349.5132    
     36000   299.21882     -277.13852      3.0554884     -274.08303      1349.5132    
     37000   321.40028     -277.43214      3.2819955     -274.15015      1349.5132    
     38000   281.21458     -277.08268      2.8716371     -274.21104      1349.5132    
     39000   265.72259     -276.98151      2.7134399     -274.26807      1349.5132    
     40000   277.18712     -277.15039      2.8305105     -274.31988      1349.5132    
     41000   281.42425     -277.24024      2.8737783     -274.36646      1349.5132    
     42000   279.79945     -277.26534      2.8571864     -274.40816      1349.5132    
     43000   277.08298     -277.27442      2.8294471     -274.44498      1349.5132    
     44000   282.2053      -277.35859      2.8817539     -274.47683      1349.5132    
     45000   297.44247     -277.54128      3.0373491     -274.50393      1349.5132    
     46000   235.22163     -276.92776      2.4019778     -274.52578      1349.5132    
     47000   271.84511     -277.31829      2.7759603     -274.54233      1349.5132    
     48000   269.10935     -277.30173      2.748024      -274.5537       1349.5132    
     49000   259.87812     -277.21356      2.6537588     -274.5598       1349.5132    
     50000   251.88        -277.13239      2.5720856     -274.56031      1349.5132    
Loop time of 2.70432 on 1 procs for 50000 steps with 80 atoms

Performance: 1597.447 ns/day, 0.015 hours/ns, 18488.970 timesteps/s
99.4% CPU use with 1 MPI tasks x 1 OpenMP threads

MPI task timing breakdown:
Section |  min time  |  avg time  |  max time  |%varavg| %total
---------------------------------------------------------------
Pair    | 2.5641     | 2.5641     | 2.5641     |   0.0 | 94.81
Neigh   | 0.000878   | 0.000878   | 0.000878   |   0.0 |  0.03
Comm    | 0.005025   | 0.005025   | 0.005025   |   0.0 |  0.19
Output  | 0.015396   | 0.015396   | 0.015396   |   0.0 |  0.57
Modify  | 0.099676   | 0.099676   | 0.099676   |   0.0 |  3.69
Other   |            | 0.01926    |            |       |  0.71

Nlocal:             80 ave          80 max          80 min
Histogram: 1 0 0 0 0 0 0 0 0 0
Nghost:              0 ave           0 max           0 min
Histogram: 1 0 0 0 0 0 0 0 0 0
Neighs:           1848 ave        1848 max        1848 min
Histogram: 1 0 0 0 0 0 0 0 0 0

Total # of neighbors = 1848
Ave neighs/atom = 23.1
Neighbor list builds = 27
Dangerous builds = 0
Total wall time: 0:00:02
