LAMMPS (15 Sep 2022)
OMP_NUM_THREADS environment is not set. Defaulting to 1 thread. (src/comm.cpp:98)
  using 1 OpenMP thread(s) per MPI task
Loaded 1 plugins from C:\Users\becat\AppData\Local\LAMMPS 64-bit 15Sep2022\plugins
Lattice spacing in x,y,z = 4.079 4.079 4.079
Created orthogonal box = (0 0 0) to (40.79 40.79 40.79)
  1 by 1 by 1 MPI processor grid
Read molecule template np:
  1 molecules
  0 fragments
  19 atoms with max type 1
  0 bonds with max type 0
  0 angles with max type 0
  0 dihedrals with max type 0
  0 impropers with max type 0
Created 19 atoms
  using lattice units in orthogonal box = (16.370207 16.724693 16.689632) to (24.419793 24.065307 24.100368)
  create_atoms CPU = 0.000 seconds
Neighbor list info ...
  update: every = 1 steps, delay = 10 steps, check = yes
  max neighbors/atom: 2000, page size: 100000
  master list distance cutoff = 7.55
  ghost atom cutoff = 7.55
  binsize = 3.775, bins = 3 2 2
  1 neighbor lists, perpetual/occasional/extra = 1 0 0
  (1) pair eam, perpetual
      attributes: half, newton on
      pair build: half/bin/atomonly/newton
      stencil: half/bin/3d
      bin: standard
Setting up Verlet run ...
  Unit style    : metal
  Current step  : 0
  Time step     : 0.001
Per MPI rank memory allocation (min/avg/max) = 4.535 | 4.535 | 4.535 Mbytes
   Step          Temp          PotEng         KinEng         TotEng         Volume    
         0   300           -56.82847       0.69800478    -56.130465      437.89228    
      1000   1070.2031     -58.667308      2.490023      -56.177285      258.45239    
      2000   943.96564     -58.497011      2.1963084     -56.300702      286.79179    
      3000   837.2335      -58.449307      1.9479766     -56.501331      228.84015    
      4000   826.15481     -58.662506      1.9222        -56.740306      216.90553    
      5000   723.79904     -58.654487      1.6840507     -56.970437      248.15906    
      6000   835.48851     -59.096953      1.9439166     -57.153037      217.44135    
      7000   714.64793     -58.964122      1.6627589     -57.301363      196.63811    
      8000   772.64809     -59.249344      1.7977069     -57.451637      217.28559    
      9000   653.0257      -59.126297      1.5193835     -57.606914      199.47726    
     10000   566.40369     -59.088802      1.3178416     -57.77096       212.30259    
     11000   649.9882      -59.434983      1.5123162     -57.922667      214.38027    
     12000   599.38603     -59.475143      1.3945811     -58.080562      203.2409     
     13000   609.83461     -59.656384      1.4188916     -58.237493      213.16929    
     14000   634.97555     -59.855732      1.4773866     -58.378346      205.20146    
     15000   502.61631     -59.682737      1.1694286     -58.513309      213.5501     
     16000   610.75738     -60.058552      1.4210386     -58.637513      213.5501     
     17000   550.59796     -60.036866      1.2810667     -58.755799      213.5501     
     18000   531.90076     -60.1044        1.2375642     -58.866836      213.5501     
     19000   385.10516     -59.862386      0.89601749    -58.966369      213.61076    
     20000   452.55621     -60.115551      1.0529547     -59.062596      267.52016    
     21000   400.84324     -60.085859      0.93263501    -59.153224      267.52016    
     22000   420.37306     -60.217084      0.97807468    -59.23901       236.12148    
     23000   394.40708     -60.236038      0.91766009    -59.318378      244.0337     
     24000   294.40841     -60.073042      0.68499492    -59.388047      205.461      
     25000   355.43104     -60.280358      0.82697521    -59.453383      205.461      
     26000   394.65536     -60.434765      0.91823777    -59.516527      205.461      
     27000   507.14167     -60.753382      1.1799577     -59.573425      205.461      
     28000   370.66768     -60.488898      0.86242603    -59.626472      205.461      
     29000   286.76976     -60.344946      0.66722221    -59.677724      205.461      
     30000   367.87945     -60.579361      0.85593872    -59.723422      205.461      
     31000   267.55483     -60.388951      0.62251518    -59.766436      205.461      
     32000   269.46323     -60.433042      0.62695542    -59.806087      205.461      
     33000   283.67062     -60.503787      0.6600115     -59.843775      205.461      
     34000   214.06601     -60.375998      0.49806366    -59.877935      205.461      
     35000   269.71497     -60.53682       0.62754114    -59.909279      205.461      
     36000   205.93888     -60.417231      0.47915442    -59.938077      205.461      
     37000   247.20118     -60.538758      0.5751587     -59.9636        205.461      
     38000   226.29082     -60.513557      0.52650691    -59.98705       205.461      
     39000   275.35549     -60.648418      0.64066482    -60.007753      205.461      
     40000   280.32794     -60.67813       0.65223415    -60.025895      205.461      
     41000   215.22619     -60.542392      0.50076304    -60.041629      205.461      
     42000   243.49226     -60.621889      0.5665292     -60.05536       205.461      
     43000   170.18829     -60.462718      0.39597413    -60.066744      205.461      
     44000   251.57132     -60.660791      0.5853266     -60.075465      205.461      
     45000   163.78762     -60.463263      0.3810818     -60.082181      205.461      
     46000   269.24588     -60.712711      0.62644971    -60.086262      205.461      
     47000   204.06145     -60.562943      0.47478623    -60.088157      205.461      
     48000   211.66953     -60.58008       0.4924878     -60.087592      205.461      
     49000   218.4499      -60.592764      0.50826359    -60.0845        205.461      
     50000   312.47356     -60.806129      0.7270268     -60.079102      205.461      
Loop time of 0.590664 on 1 procs for 50000 steps with 19 atoms

Performance: 7313.803 ns/day, 0.003 hours/ns, 84650.495 timesteps/s
97.9% CPU use with 1 MPI tasks x 1 OpenMP threads

MPI task timing breakdown:
Section |  min time  |  avg time  |  max time  |%varavg| %total
---------------------------------------------------------------
Pair    | 0.48758    | 0.48758    | 0.48758    |   0.0 | 82.55
Neigh   | 0.000176   | 0.000176   | 0.000176   |   0.0 |  0.03
Comm    | 0.006453   | 0.006453   | 0.006453   |   0.0 |  1.09
Output  | 0.008578   | 0.008578   | 0.008578   |   0.0 |  1.45
Modify  | 0.072388   | 0.072388   | 0.072388   |   0.0 | 12.26
Other   |            | 0.01549    |            |       |  2.62

Nlocal:             19 ave          19 max          19 min
Histogram: 1 0 0 0 0 0 0 0 0 0
Nghost:              0 ave           0 max           0 min
Histogram: 1 0 0 0 0 0 0 0 0 0
Neighs:            171 ave         171 max         171 min
Histogram: 1 0 0 0 0 0 0 0 0 0

Total # of neighbors = 171
Ave neighs/atom = 9
Neighbor list builds = 41
Dangerous builds = 0
Total wall time: 0:00:00
