LAMMPS (15 Sep 2022)
OMP_NUM_THREADS environment is not set. Defaulting to 1 thread. (src/comm.cpp:98)
  using 1 OpenMP thread(s) per MPI task
Loaded 1 plugins from C:\Users\becat\AppData\Local\LAMMPS 64-bit 15Sep2022\plugins
Lattice spacing in x,y,z = 4.079 4.079 4.079
Created orthogonal box = (0 0 0) to (40.79 40.79 40.79)
  1 by 1 by 1 MPI processor grid
Read molecule template np:
  1 molecules
  0 fragments
  38 atoms with max type 1
  0 bonds with max type 0
  0 angles with max type 0
  0 dihedrals with max type 0
  0 impropers with max type 0
Created 38 atoms
  using lattice units in orthogonal box = (16.134212 16.504651 16.258276) to (24.655912 24.285434 24.531636)
  create_atoms CPU = 0.000 seconds
Neighbor list info ...
  update: every = 1 steps, delay = 10 steps, check = yes
  max neighbors/atom: 2000, page size: 100000
  master list distance cutoff = 7.55
  ghost atom cutoff = 7.55
  binsize = 3.775, bins = 3 3 3
  1 neighbor lists, perpetual/occasional/extra = 1 0 0
  (1) pair eam, perpetual
      attributes: half, newton on
      pair build: half/bin/atomonly/newton
      stencil: half/bin/3d
      bin: standard
Setting up Verlet run ...
  Unit style    : metal
  Current step  : 0
  Time step     : 0.001
Per MPI rank memory allocation (min/avg/max) = 4.537 | 4.537 | 4.537 Mbytes
   Step          Temp          PotEng         KinEng         TotEng         Volume    
         0   300           -127.95186      1.4347876     -126.51707      548.56931    
      1000   173.43437     -127.34313      0.82947161    -126.51366      548.56931    
      2000   197.57785     -127.44831      0.94494084    -126.50336      548.56931    
      3000   241.68878     -127.64177      1.1559069     -126.48586      548.56931    
      4000   183.26801     -127.33761      0.87650226    -126.46111      548.56931    
      5000   197.61056     -127.37426      0.94509727    -126.42916      548.56931    
      6000   171.43366     -127.21086      0.81990297    -126.39096      548.56931    
      7000   210.71589     -127.35548      1.0077751     -126.34771      548.56931    
      8000   201.68155     -127.26621      0.96456728    -126.30164      548.56931    
      9000   183.51362     -127.1341       0.87767689    -126.25642      548.56931    
     10000   212.0329      -127.22905      1.0140739     -126.21498      548.56931    
     11000   244.59425     -127.34618      1.1698027     -126.17637      548.56931    
     12000   207.44441     -127.13399      0.99212891    -126.14186      548.56931    
     13000   220.70788     -127.16537      1.0555631     -126.10981      548.56931    
     14000   246.83004     -127.25992      1.1804956     -126.07942      548.56931    
     15000   259.60978     -127.29011      1.2416163     -126.04849      548.56931    
     16000   244.41882     -127.18617      1.1689636     -126.01721      548.56931    
     17000   250.49492     -127.18383      1.1980234     -125.98581      548.56931    
     18000   241.03578     -127.10415      1.1527838     -125.95136      548.56931    
     19000   228.43651     -127.00881      1.0925263     -125.91628      548.56931    
     20000   219.11096     -126.92611      1.0479256     -125.87818      548.56931    
     21000   241.69469     -126.9945       1.1559352     -125.83857      548.56931    
     22000   260.31144     -127.04395      1.2449721     -125.79898      548.56931    
     23000   298.25184     -127.18315      1.4264268     -125.75672      548.56931    
     24000   270.24274     -127.00755      1.2924698     -125.71508      548.56931    
     25000   242.21626     -126.83084      1.1584296     -125.67241      548.56931    
     26000   284.27717     -126.98852      1.3595912     -125.62893      548.56931    
     27000   253.71102     -126.79981      1.2134047     -125.5864       548.56931    
     28000   279.94159     -126.88397      1.3388558     -125.54511      548.56931    
     29000   276.68062     -126.82706      1.3232598     -125.5038       548.56931    
     30000   275.83769     -126.78198      1.3192283     -125.46276      548.56931    
     31000   273.65566     -126.73126      1.3087925     -125.42246      548.56931    
     32000   263.10222     -126.64174      1.2583194     -125.38342      548.56931    
     33000   270.19067     -126.638        1.2922207     -125.34578      548.56931    
     34000   286.72327     -126.68092      1.37129       -125.30963      548.56931    
     35000   298.67034     -126.70358      1.4284284     -125.27516      548.56931    
     36000   290.80241     -126.63306      1.390799      -125.24226      548.56931    
     37000   253.92698     -126.42584      1.2144376     -125.2114       548.56931    
     38000   279.6624      -126.51935      1.3375205     -125.18183      548.56931    
     39000   315.60304     -126.66423      1.5094111     -125.15482      548.56931    
     40000   409.12522     -127.08698      1.9566927     -125.13029      548.56931    
     41000   323.42038     -126.65446      1.5467985     -125.10766      548.56931    
     42000   296.34455     -126.50532      1.417305      -125.08801      548.56931    
     43000   323.17334     -126.61585      1.545617      -125.07023      548.56931    
     44000   355.54469     -126.75494      1.700437      -125.0545       548.56931    
     45000   342.15523     -126.67856      1.6364003     -125.04216      548.56931    
     46000   317.83598     -126.55276      1.5200904     -125.03267      548.56931    
     47000   336.99407     -126.63775      1.6117164     -125.02604      548.56931    
     48000   325.74628     -126.58032      1.5579224     -125.0224       548.56931    
     49000   341.43848     -126.65501      1.6329723     -125.02204      548.56931    
     50000   396.19517     -126.9188       1.8948531     -125.02395      548.56931    
Loop time of 1.46282 on 1 procs for 50000 steps with 38 atoms

Performance: 2953.196 ns/day, 0.008 hours/ns, 34180.509 timesteps/s
100.4% CPU use with 1 MPI tasks x 1 OpenMP threads

MPI task timing breakdown:
Section |  min time  |  avg time  |  max time  |%varavg| %total
---------------------------------------------------------------
Pair    | 1.3261     | 1.3261     | 1.3261     |   0.0 | 90.65
Neigh   | 0          | 0          | 0          |   0.0 |  0.00
Comm    | 0.006989   | 0.006989   | 0.006989   |   0.0 |  0.48
Output  | 0.014026   | 0.014026   | 0.014026   |   0.0 |  0.96
Modify  | 0.096479   | 0.096479   | 0.096479   |   0.0 |  6.60
Other   |            | 0.01924    |            |       |  1.32

Nlocal:             38 ave          38 max          38 min
Histogram: 1 0 0 0 0 0 0 0 0 0
Nghost:              0 ave           0 max           0 min
Histogram: 1 0 0 0 0 0 0 0 0 0
Neighs:            643 ave         643 max         643 min
Histogram: 1 0 0 0 0 0 0 0 0 0

Total # of neighbors = 643
Ave neighs/atom = 16.921053
Neighbor list builds = 0
Dangerous builds = 0
Total wall time: 0:00:01
