LAMMPS (15 Sep 2022)
OMP_NUM_THREADS environment is not set. Defaulting to 1 thread. (src/comm.cpp:98)
  using 1 OpenMP thread(s) per MPI task
Loaded 1 plugins from C:\Users\becat\AppData\Local\LAMMPS 64-bit 15Sep2022\plugins
Lattice spacing in x,y,z = 4.079 4.079 4.079
Created orthogonal box = (0 0 0) to (40.79 40.79 40.79)
  1 by 1 by 1 MPI processor grid
Read molecule template np:
  1 molecules
  0 fragments
  32 atoms with max type 1
  0 bonds with max type 0
  0 angles with max type 0
  0 dihedrals with max type 0
  0 impropers with max type 0
Created 32 atoms
  using lattice units in orthogonal box = (16.2307 16.333063 16.854732) to (24.747232 24.820555 23.64239)
  create_atoms CPU = 0.000 seconds
Neighbor list info ...
  update: every = 1 steps, delay = 10 steps, check = yes
  max neighbors/atom: 2000, page size: 100000
  master list distance cutoff = 7.55
  ghost atom cutoff = 7.55
  binsize = 3.775, bins = 3 3 2
  1 neighbor lists, perpetual/occasional/extra = 1 0 0
  (1) pair eam, perpetual
      attributes: half, newton on
      pair build: half/bin/atomonly/newton
      stencil: half/bin/3d
      bin: standard
Setting up Verlet run ...
  Unit style    : metal
  Current step  : 0
  Time step     : 0.001
Per MPI rank memory allocation (min/avg/max) = 4.536 | 4.536 | 4.536 Mbytes
   Step          Temp          PotEng         KinEng         TotEng         Volume    
         0   300           -105.53423      1.2021193     -104.33211      490.63912    
      1000   281.39907     -105.45921      1.1275842     -104.33162      490.63912    
      2000   308.05338     -105.56573      1.2343898     -104.33134      417.31535    
      3000   283.44822     -105.46801      1.1357953     -104.33222      498.18961    
      4000   299.54186     -105.53468      1.2002835     -104.33439      498.18961    
      5000   339.56945     -105.69846      1.3606767     -104.33778      468.55093    
      6000   297.28624     -105.53405      1.1912451     -104.34281      468.55093    
      7000   313.07352     -105.60358      1.2545058     -104.34908      373.06312    
      8000   319.1138      -105.6355       1.2787096     -104.35679      408.1424     
      9000   310.58779     -105.61071      1.2445453     -104.36616      408.1424     
     10000   344.60516     -105.75779      1.3808551     -104.37693      401.95581    
     11000   333.56364     -105.72616      1.336611      -104.38955      401.95581    
     12000   353.48828     -105.82061      1.4164503     -104.40416      385.05665    
     13000   288.60037     -105.57807      1.1564403     -104.42163      427.85162    
     14000   281.5684      -105.57108      1.1282627     -104.44282      427.85162    
     15000   326.45821     -105.77449      1.3081391     -104.46635      427.85162    
     16000   276.82696     -105.60364      1.1092635     -104.49438      427.85162    
     17000   289.0634      -105.68456      1.1582957     -104.52626      427.85162    
     18000   249.00371     -105.55917      0.99777391    -104.56139      427.85162    
     19000   307.44219     -105.83259      1.2319407     -104.60065      386.51919    
     20000   277.84132     -105.75491      1.1133281     -104.64158      386.51919    
     21000   310.87347     -105.92868      1.2456901     -104.68299      386.51919    
     22000   292.4925      -105.89666      1.1720363     -104.72462      386.51919    
     23000   261.15569     -105.80954      1.0464677     -104.76307      432.14854    
     24000   237.26221     -105.75067      0.950725      -104.79994      394.7372     
     25000   174.76252     -105.53193      0.70028468    -104.83164      394.7372     
     26000   252.32596     -105.86896      1.0110864     -104.85787      394.7372     
     27000   256.17252     -105.90735      1.0264998     -104.88085      406.51796    
     28000   257.38629     -105.93135      1.0313635     -104.89999      427.84792    
     29000   266.90135     -105.98419      1.0694909     -104.91469      469.93666    
     30000   199.29665     -105.72375      0.79859452    -104.92516      417.13651    
     31000   209.46734     -105.771        0.83934914    -104.93165      417.13651    
     32000   216.13098     -105.80012      0.86605079    -104.93407      417.13651    
     33000   267.3934      -106.00418      1.0714626     -104.93272      417.13651    
     34000   277.14521     -106.03797      1.1105387     -104.92743      417.13651    
     35000   274.54997     -106.01823      1.1001395     -104.91809      417.13651    
     36000   229.33901     -105.82392      0.91897622    -104.90494      417.13651    
     37000   256.46498     -105.91488      1.0276717     -104.88721      417.13651    
     38000   311.42961     -106.11237      1.2479185     -104.86445      417.13651    
     39000   219.8757      -105.71825      0.8810561     -104.83719      417.13651    
     40000   218.81042     -105.6814       0.87678747    -104.80461      417.13651    
     41000   271.52403     -105.85727      1.0880143     -104.76926      417.13651    
     42000   261.62424     -105.77698      1.0483452     -104.72864      417.13651    
     43000   276.71698     -105.79524      1.1088228     -104.68642      417.13651    
     44000   308.90665     -105.8799       1.2378089     -104.64209      417.13651    
     45000   293.73804     -105.77596      1.1770273     -104.59893      417.13651    
     46000   265.90346     -105.62426      1.0654923     -104.55877      405.24555    
     47000   297.23931     -105.71405      1.1910571     -104.52299      438.72024    
     48000   311.513       -105.74182      1.2482527     -104.49357      438.72024    
     49000   282.42468     -105.6007       1.1316939     -104.469        438.72024    
     50000   275.26904     -105.55248      1.1030208     -104.44946      438.72024    
Loop time of 1.19919 on 1 procs for 50000 steps with 32 atoms

Performance: 3602.441 ns/day, 0.007 hours/ns, 41694.915 timesteps/s
100.3% CPU use with 1 MPI tasks x 1 OpenMP threads

MPI task timing breakdown:
Section |  min time  |  avg time  |  max time  |%varavg| %total
---------------------------------------------------------------
Pair    | 1.0682     | 1.0682     | 1.0682     |   0.0 | 89.08
Neigh   | 0.000207   | 0.000207   | 0.000207   |   0.0 |  0.02
Comm    | 0.007451   | 0.007451   | 0.007451   |   0.0 |  0.62
Output  | 0.011699   | 0.011699   | 0.011699   |   0.0 |  0.98
Modify  | 0.091492   | 0.091492   | 0.091492   |   0.0 |  7.63
Other   |            | 0.02011    |            |       |  1.68

Nlocal:             32 ave          32 max          32 min
Histogram: 1 0 0 0 0 0 0 0 0 0
Nghost:              0 ave           0 max           0 min
Histogram: 1 0 0 0 0 0 0 0 0 0
Neighs:            450 ave         450 max         450 min
Histogram: 1 0 0 0 0 0 0 0 0 0

Total # of neighbors = 450
Ave neighs/atom = 14.0625
Neighbor list builds = 18
Dangerous builds = 0
Total wall time: 0:00:01
