LAMMPS (15 Sep 2022)
OMP_NUM_THREADS environment is not set. Defaulting to 1 thread. (src/comm.cpp:98)
  using 1 OpenMP thread(s) per MPI task
Loaded 1 plugins from C:\Users\becat\AppData\Local\LAMMPS 64-bit 15Sep2022\plugins
Lattice spacing in x,y,z = 4.079 4.079 4.079
Created orthogonal box = (0 0 0) to (40.79 40.79 40.79)
  1 by 1 by 1 MPI processor grid
Read molecule template np:
  1 molecules
  0 fragments
  561 atoms with max type 1
  0 bonds with max type 0
  0 angles with max type 0
  0 dihedrals with max type 0
  0 impropers with max type 0
Created 561 atoms
  using lattice units in orthogonal box = (6.959025 7.2356729 7.1821477) to (33.830975 33.554327 33.607852)
  create_atoms CPU = 0.000 seconds
Neighbor list info ...
  update: every = 1 steps, delay = 10 steps, check = yes
  max neighbors/atom: 2000, page size: 100000
  master list distance cutoff = 7.55
  ghost atom cutoff = 7.55
  binsize = 3.775, bins = 8 7 8
  1 neighbor lists, perpetual/occasional/extra = 1 0 0
  (1) pair eam, perpetual
      attributes: half, newton on
      pair build: half/bin/atomonly/newton
      stencil: half/bin/3d
      bin: standard
Setting up Verlet run ...
  Unit style    : metal
  Current step  : 0
  Time step     : 0.001
Per MPI rank memory allocation (min/avg/max) = 4.57 | 4.57 | 4.57 Mbytes
   Step          Temp          PotEng         KinEng         TotEng         Volume    
         0   300           -2016.6733      21.715704     -1994.9576      18689.145    
      1000   428.90293     -2026.3583      31.046431     -1995.3119      17082.441    
      2000   535.51967     -2035.09        38.763956     -1996.326       17648.016    
      3000   590.05371     -2040.3341      42.71144      -1997.6227      16463.529    
      4000   581.54271     -2040.868       42.095365     -1998.7727      16947.179    
      5000   567.35051     -2040.8884      41.068053     -1999.8203      17170.194    
      6000   525.2279      -2038.9638      38.018979     -2000.9448      16254.868    
      7000   520.11288     -2039.832       37.648725     -2002.1832      15251.027    
      8000   515.25833     -2040.7804      37.297325     -2003.483       15579.575    
      9000   528.27018     -2043.026       38.239197     -2004.7868      15370.852    
     10000   505.87073     -2042.7087      36.617797     -2006.0909      15520.226    
     11000   480.55164     -2042.1684      34.785058     -2007.3834      16037.35     
     12000   466.58832     -2042.4367      33.774314     -2008.6624      15295.344    
     13000   470.83159     -2044.0148      34.081466     -2009.9333      16031.658    
     14000   451.29548     -2043.8376      32.667331     -2011.1703      15984.831    
     15000   465.05542     -2046.0553      33.663354     -2012.3919      16051.056    
     16000   446.51953     -2045.9106      32.32162      -2013.589       15682.935    
     17000   441.03137     -2046.6824      31.924356     -2014.7581      15956.324    
     18000   438.80831     -2047.6668      31.763439     -2015.9033      15558.771    
     19000   418.33033     -2047.2956      30.281126     -2017.0145      15423.623    
     20000   405.3368      -2047.4426      29.34058      -2018.102       15695.872    
     21000   418.98168     -2049.4781      30.328275     -2019.1498      15170.151    
     22000   405.50433     -2049.5302      29.352707     -2020.1775      15787.332    
     23000   380.28197     -2048.7011      27.52697      -2021.1741      15734.749    
     24000   383.97187     -2049.9305      27.794066     -2022.1364      15520.538    
     25000   401.5047      -2052.1348      29.063191     -2023.0716      15775.286    
     26000   369.70666     -2050.7349      26.761468     -2023.9735      15519.138    
     27000   379.74669     -2052.3398      27.488223     -2024.8516      16034.179    
     28000   366.29242     -2052.2098      26.514327     -2025.6954      15931.337    
     29000   364.13749     -2052.8712      26.35834      -2026.5128      15542.611    
     30000   365.77505     -2053.7781      26.476876     -2027.3012      15542.611    
     31000   351.92195     -2053.5338      25.47411      -2028.0597      15542.611    
     32000   342.74914     -2053.6025      24.81013      -2028.7924      15542.611    
     33000   342.19662     -2054.2646      24.770135     -2029.4945      15542.611    
     34000   330.15195     -2054.0683      23.898273     -2030.17        15779.472    
     35000   334.74265     -2055.0482      24.230575     -2030.8176      15779.472    
     36000   320.23916     -2054.6195      23.18073      -2031.4388      15590.074    
     37000   330.58426     -2055.9624      23.929567     -2032.0329      15590.074    
     38000   324.62803     -2056.1002      23.498421     -2032.6018      15590.074    
     39000   297.39225     -2054.6717      21.52694      -2033.1448      15590.074    
     40000   311.79358     -2056.237       22.56939      -2033.6677      15590.074    
     41000   308.5736      -2056.4983      22.33631      -2034.162       15675.949    
     42000   312.32152     -2057.2407      22.607606     -2034.6331      15675.949    
     43000   300.71833     -2056.8459      21.767702     -2035.0782      15422.733    
     44000   308.34948     -2057.8203      22.320087     -2035.5002      15552.692    
     45000   296.1666      -2057.3346      21.438221     -2035.8964      15552.692    
     46000   300.98092     -2058.0568      21.786709     -2036.2701      15552.692    
     47000   292.3333      -2057.7787      21.160745     -2036.6179      15552.692    
     48000   286.2548      -2057.663       20.720749     -2036.9422      15552.692    
     49000   280.48239     -2057.544       20.302909     -2037.2411      15552.692    
     50000   292.58687     -2058.6953      21.1791       -2037.5162      15552.692    
Loop time of 35.5473 on 1 procs for 50000 steps with 561 atoms

Performance: 121.528 ns/day, 0.197 hours/ns, 1406.577 timesteps/s
99.6% CPU use with 1 MPI tasks x 1 OpenMP threads

MPI task timing breakdown:
Section |  min time  |  avg time  |  max time  |%varavg| %total
---------------------------------------------------------------
Pair    | 34.679     | 34.679     | 34.679     |   0.0 | 97.56
Neigh   | 0.058193   | 0.058193   | 0.058193   |   0.0 |  0.16
Comm    | 0.00988    | 0.00988    | 0.00988    |   0.0 |  0.03
Output  | 0.10539    | 0.10539    | 0.10539    |   0.0 |  0.30
Modify  | 0.57588    | 0.57588    | 0.57588    |   0.0 |  1.62
Other   |            | 0.1188     |            |       |  0.33

Nlocal:            561 ave         561 max         561 min
Histogram: 1 0 0 0 0 0 0 0 0 0
Nghost:              0 ave           0 max           0 min
Histogram: 1 0 0 0 0 0 0 0 0 0
Neighs:          20977 ave       20977 max       20977 min
Histogram: 1 0 0 0 0 0 0 0 0 0

Total # of neighbors = 20977
Ave neighs/atom = 37.392157
Neighbor list builds = 89
Dangerous builds = 0
Total wall time: 0:00:35
