LAMMPS (15 Sep 2022)
OMP_NUM_THREADS environment is not set. Defaulting to 1 thread. (src/comm.cpp:98)
  using 1 OpenMP thread(s) per MPI task
Loaded 1 plugins from C:\Users\becat\AppData\Local\LAMMPS 64-bit 15Sep2022\plugins
Lattice spacing in x,y,z = 4.079 4.079 4.079
Created orthogonal box = (0 0 0) to (40.79 40.79 40.79)
  1 by 1 by 1 MPI processor grid
Read molecule template np:
  1 molecules
  0 fragments
  38 atoms with max type 1
  0 bonds with max type 0
  0 angles with max type 0
  0 dihedrals with max type 0
  0 impropers with max type 0
Created 38 atoms
  using lattice units in orthogonal box = (15.383013 16.448526 16.886227) to (25.136556 23.943365 24.405827)
  create_atoms CPU = 0.000 seconds
Neighbor list info ...
  update: every = 1 steps, delay = 10 steps, check = yes
  max neighbors/atom: 2000, page size: 100000
  master list distance cutoff = 7.55
  ghost atom cutoff = 7.55
  binsize = 3.775, bins = 3 2 2
  1 neighbor lists, perpetual/occasional/extra = 1 0 0
  (1) pair eam, perpetual
      attributes: half, newton on
      pair build: half/bin/atomonly/newton
      stencil: half/bin/3d
      bin: standard
Setting up Verlet run ...
  Unit style    : metal
  Current step  : 0
  Time step     : 0.001
Per MPI rank memory allocation (min/avg/max) = 4.536 | 4.536 | 4.536 Mbytes
   Step          Temp          PotEng         KinEng         TotEng         Volume    
         0   300           -127.85848      1.4347876     -126.42369      549.69194    
      1000   198.31733     -127.36898      0.94847748    -126.4205       549.69194    
      2000   222.67417     -127.4757       1.0649671     -126.41073      553.54425    
      3000   242.00602     -127.55189      1.1574241     -126.39447      553.54425    
      4000   207.24286     -127.36271      0.99116495    -126.37154      553.54425    
      5000   224.82139     -127.41713      1.0752365     -126.34189      553.54425    
      6000   235.65489     -127.43238      1.127049      -126.30534      553.54425    
      7000   229.55761     -127.36223      1.0978881     -126.26434      553.54425    
      8000   221.9262      -127.28023      1.0613899     -126.21884      553.54425    
      9000   238.56358     -127.31374      1.1409602     -126.17278      553.54425    
     10000   239.87552     -127.27353      1.1472347     -126.12629      553.54425    
     11000   238.76242     -127.22625      1.1419112     -126.08434      553.54425    
     12000   256.15283     -127.2704       1.225083      -126.04532      553.54425    
     13000   244.89414     -127.18163      1.1712369     -126.0104       553.54425    
     14000   260.21471     -127.22413      1.2445095     -125.97962      553.54425    
     15000   226.39768     -127.03338      1.0827753     -125.9506       553.54425    
     16000   296.12061     -127.34076      1.4162339     -125.92452      553.54425    
     17000   264.08115     -127.16004      1.2630012     -125.89704      553.54425    
     18000   277.95595     -127.19926      1.3293592     -125.86991      553.54425    
     19000   237.33995     -126.97797      1.1351081     -125.84286      553.54425    
     20000   287.11804     -127.18801      1.373178      -125.81483      553.54425    
     21000   285.68654     -127.15197      1.3663317     -125.78564      553.54425    
     22000   244.86339     -126.92672      1.1710899     -125.75563      553.54425    
     23000   289.25498     -127.10788      1.3833982     -125.72448      553.54425    
     24000   268.76557     -126.9773       1.285405      -125.69189      553.54425    
     25000   310.82275     -127.14582      1.4865488     -125.65927      553.54425    
     26000   292.16532     -127.02352      1.3973173     -125.6262       553.54425    
     27000   361.67038     -127.32344      1.7297339     -125.5937       553.54425    
     28000   321.40262     -127.09674      1.5371483     -125.5596       553.54425    
     29000   301.09264     -126.96615      1.4400133     -125.52614      568.84192    
     30000   266.70605     -126.76935      1.2755551     -125.49379      568.84192    
     31000   241.32649     -126.61595      1.1541742     -125.46177      568.84192    
     32000   294.02406     -126.83647      1.4062069     -125.43026      574.92979    
     33000   307.88364     -126.87354      1.4724921     -125.40104      574.92979    
     34000   263.84635     -126.63497      1.2618782     -125.37309      574.92979    
     35000   269.37161     -126.6349       1.2883035     -125.3466       574.92979    
     36000   281.50069     -126.66811      1.3463123     -125.3218       574.92979    
     37000   307.06228     -126.76741      1.4685638     -125.29885      548.9851     
     38000   319.5178      -126.80602      1.5281339     -125.27789      548.9851     
     39000   294.26001     -126.66663      1.4073354     -125.25929      548.9851     
     40000   353.11313     -126.93135      1.6888078     -125.24254      548.9851     
     41000   373.16338     -127.01326      1.7847006     -125.22856      548.9851     
     42000   275.66304     -126.53564      1.318393      -125.21724      548.9851     
     43000   339.65406     -126.83271      1.6244381     -125.20827      568.46107    
     44000   298.86558     -126.63001      1.4293621     -125.20065      568.46107    
     45000   312.46516     -126.68932      1.4944038     -125.19491      568.46107    
     46000   319.19543     -126.71825      1.5265921     -125.19166      568.46107    
     47000   285.60773     -126.55727      1.3659548     -125.19131      568.46107    
     48000   345.76305     -126.84788      1.6536551     -125.19423      568.46107    
     49000   327.65751     -126.76754      1.5670631     -125.20047      554.30899    
     50000   347.45809     -126.87076      1.6617619     -125.209        554.30899    
Loop time of 1.51769 on 1 procs for 50000 steps with 38 atoms

Performance: 2846.439 ns/day, 0.008 hours/ns, 32944.891 timesteps/s
97.8% CPU use with 1 MPI tasks x 1 OpenMP threads

MPI task timing breakdown:
Section |  min time  |  avg time  |  max time  |%varavg| %total
---------------------------------------------------------------
Pair    | 1.3726     | 1.3726     | 1.3726     |   0.0 | 90.44
Neigh   | 0.00011    | 0.00011    | 0.00011    |   0.0 |  0.01
Comm    | 0.007464   | 0.007464   | 0.007464   |   0.0 |  0.49
Output  | 0.013585   | 0.013585   | 0.013585   |   0.0 |  0.90
Modify  | 0.10025    | 0.10025    | 0.10025    |   0.0 |  6.61
Other   |            | 0.02371    |            |       |  1.56

Nlocal:             38 ave          38 max          38 min
Histogram: 1 0 0 0 0 0 0 0 0 0
Nghost:              0 ave           0 max           0 min
Histogram: 1 0 0 0 0 0 0 0 0 0
Neighs:            614 ave         614 max         614 min
Histogram: 1 0 0 0 0 0 0 0 0 0

Total # of neighbors = 614
Ave neighs/atom = 16.157895
Neighbor list builds = 7
Dangerous builds = 0
Total wall time: 0:00:01
