LAMMPS (15 Sep 2022)
OMP_NUM_THREADS environment is not set. Defaulting to 1 thread. (src/comm.cpp:98)
  using 1 OpenMP thread(s) per MPI task
Loaded 1 plugins from C:\Users\becat\AppData\Local\LAMMPS 64-bit 15Sep2022\plugins
Lattice spacing in x,y,z = 4.079 4.079 4.079
Created orthogonal box = (0 0 0) to (40.79 40.79 40.79)
  1 by 1 by 1 MPI processor grid
Read molecule template np:
  1 molecules
  0 fragments
  147 atoms with max type 1
  0 bonds with max type 0
  0 angles with max type 0
  0 dihedrals with max type 0
  0 impropers with max type 0
Created 147 atoms
  using lattice units in orthogonal box = (12.331781 12.497772 12.465658) to (28.458219 28.292228 28.324342)
  create_atoms CPU = 0.000 seconds
Neighbor list info ...
  update: every = 1 steps, delay = 10 steps, check = yes
  max neighbors/atom: 2000, page size: 100000
  master list distance cutoff = 7.55
  ghost atom cutoff = 7.55
  binsize = 3.775, bins = 5 5 5
  1 neighbor lists, perpetual/occasional/extra = 1 0 0
  (1) pair eam, perpetual
      attributes: half, newton on
      pair build: half/bin/atomonly/newton
      stencil: half/bin/3d
      bin: standard
Setting up Verlet run ...
  Unit style    : metal
  Current step  : 0
  Time step     : 0.001
Per MPI rank memory allocation (min/avg/max) = 4.544 | 4.544 | 4.544 Mbytes
   Step          Temp          PotEng         KinEng         TotEng         Volume    
         0   300           -503.44929      5.6615944     -497.7877       4039.3388    
      1000   999.96722     -516.86927      18.871363     -497.99791      3053.1702    
      2000   737.97943     -512.47011      13.927134     -498.54298      3687.7488    
      3000   607.90535     -510.74916      11.472378     -499.27678      3388.4896    
      4000   624.58483     -511.73153      11.787153     -499.94438      3325.4882    
      5000   617.99001     -512.1501       11.662696     -500.4874       3364.1764    
      6000   616.5128      -512.64724      11.634818     -501.01243      3435.4631    
      7000   625.16243     -513.3714       11.798054     -501.57335      3286.6764    
      8000   605.28821     -513.60118      11.422988     -502.17819      3273.8795    
      9000   596.34204     -514.05924      11.254156     -502.80509      3251.8386    
     10000   518.85082     -513.23043      9.791743      -503.43869      3187.8625    
     11000   524.5787      -513.95107      9.8998393     -504.05123      3360.0921    
     12000   571.17174     -515.43717      10.779142     -504.65803      3375.7043    
     13000   462.87142     -513.98397      8.7353007     -505.24867      3334.1296    
     14000   521.05884     -515.6465       9.8334125     -505.81308      3255.8327    
     15000   515.64167     -516.09465      9.73118       -506.36347      3183.444     
     16000   471.67111     -515.79155      8.9013683     -506.89018      3207.9157    
     17000   427.38122     -515.46954      8.0655303     -507.40401      3259.9135    
     18000   475.11942     -516.86782      8.9664448     -507.90137      3122.8874    
     19000   439.78849     -516.67895      8.2996801     -508.37927      3341.068     
     20000   437.8679      -517.10239      8.2634349     -508.83896      3341.068     
     21000   419.57976     -517.20286      7.9183014     -509.28456      3188.9008    
     22000   385.85097     -516.98427      7.2817722     -509.7025       3307.3627    
     23000   424.1815      -518.10852      8.0051452     -510.10337      3349.9067    
     24000   393.66304     -517.916        7.4292015     -510.4868       3260.1915    
     25000   371.18059     -517.85744      7.0049131     -510.85253      3403.6849    
     26000   364.4406      -518.08243      6.8777162     -511.20471      3339.1922    
     27000   409.42723     -519.2637       7.726703      -511.53699      3193.6913    
     28000   363.44764     -518.71343      6.8589771     -511.85445      3203.7389    
     29000   378.97981     -519.30998      7.1520997     -512.15788      3227.7891    
     30000   368.09675     -519.40396      6.9467149     -512.45724      3295.7531    
     31000   345.85372     -519.27785      6.5269448     -512.7509       3265.9307    
     32000   334.54535     -519.34995      6.3135335     -513.03641      3251.0948    
     33000   337.42317     -519.67772      6.3678437     -513.30987      3251.0948    
     34000   339.15568     -519.97283      6.4005396     -513.57229      3251.0948    
     35000   356.36143     -520.54244      6.7252463     -513.81719      3384.6611    
     36000   326.31455     -520.21247      6.1582021     -514.05427      3384.6611    
     37000   329.43432     -520.49745      6.2170783     -514.28037      3282.1588    
     38000   301.94448     -520.19191      5.6982905     -514.49362      3282.1588    
     39000   331.02573     -520.94226      6.2471113     -514.69515      3282.1588    
     40000   312.66247     -520.78625      5.9005603     -514.88569      3282.1588    
     41000   313.66329     -520.98326      5.9194477     -515.06381      3282.1588    
     42000   309.4498      -521.07027      5.8399307     -515.23034      3282.1588    
     43000   319.25199     -521.41326      6.0249175     -515.38834      3282.1588    
     44000   274.38897     -520.71185      5.1782634     -515.53359      3282.1588    
     45000   287.16131     -521.08756      5.4193029     -515.66825      3282.1588    
     46000   281.8433      -521.11072      5.3189414     -515.79178      3282.1588    
     47000   292.94489     -521.43316      5.5284504     -515.90471      3282.1588    
     48000   271.8219      -521.13725      5.1298177     -516.00743      3282.1588    
     49000   301.35687     -521.78645      5.6872011     -516.09925      3282.1588    
     50000   279.10193     -521.44848      5.2672064     -516.18128      3282.1588    
Loop time of 9.59519 on 1 procs for 50000 steps with 147 atoms

Performance: 450.225 ns/day, 0.053 hours/ns, 5210.942 timesteps/s
99.0% CPU use with 1 MPI tasks x 1 OpenMP threads

MPI task timing breakdown:
Section |  min time  |  avg time  |  max time  |%varavg| %total
---------------------------------------------------------------
Pair    | 9.234      | 9.234      | 9.234      |   0.0 | 96.24
Neigh   | 0.01297    | 0.01297    | 0.01297    |   0.0 |  0.14
Comm    | 0.009465   | 0.009465   | 0.009465   |   0.0 |  0.10
Output  | 0.042711   | 0.042711   | 0.042711   |   0.0 |  0.45
Modify  | 0.24467    | 0.24467    | 0.24467    |   0.0 |  2.55
Other   |            | 0.05141    |            |       |  0.54

Nlocal:            147 ave         147 max         147 min
Histogram: 1 0 0 0 0 0 0 0 0 0
Nghost:              0 ave           0 max           0 min
Histogram: 1 0 0 0 0 0 0 0 0 0
Neighs:           4304 ave        4304 max        4304 min
Histogram: 1 0 0 0 0 0 0 0 0 0

Total # of neighbors = 4304
Ave neighs/atom = 29.278912
Neighbor list builds = 92
Dangerous builds = 0
Total wall time: 0:00:09
