LAMMPS (15 Sep 2022)
OMP_NUM_THREADS environment is not set. Defaulting to 1 thread. (src/comm.cpp:98)
  using 1 OpenMP thread(s) per MPI task
Loaded 1 plugins from C:\Users\becat\AppData\Local\LAMMPS 64-bit 15Sep2022\plugins
Lattice spacing in x,y,z = 4.079 4.079 4.079
Created orthogonal box = (0 0 0) to (40.79 40.79 40.79)
  1 by 1 by 1 MPI processor grid
Read molecule template np:
  1 molecules
  0 fragments
  6 atoms with max type 1
  0 bonds with max type 0
  0 angles with max type 0
  0 dihedrals with max type 0
  0 impropers with max type 0
Created 6 atoms
  using lattice units in orthogonal box = (18.380564 18.557807 18.540276) to (22.409436 22.232193 22.249724)
  create_atoms CPU = 0.000 seconds
Neighbor list info ...
  update: every = 1 steps, delay = 10 steps, check = yes
  max neighbors/atom: 2000, page size: 100000
  master list distance cutoff = 7.55
  ghost atom cutoff = 7.55
  binsize = 3.775, bins = 2 1 1
  1 neighbor lists, perpetual/occasional/extra = 1 0 0
  (1) pair eam, perpetual
      attributes: half, newton on
      pair build: half/bin/atomonly/newton
      stencil: half/bin/3d
      bin: standard
Setting up Verlet run ...
  Unit style    : metal
  Current step  : 0
  Time step     : 0.001
Per MPI rank memory allocation (min/avg/max) = 4.413 | 4.413 | 4.413 Mbytes
   Step          Temp          PotEng         KinEng         TotEng         Volume    
         0   300           -14.451673      0.19389022    -14.257782      54.913286    
      1000   2530.2577     -15.958863      1.6353074     -14.323555      54.913286    
      2000   1266.2944     -15.313826      0.818407      -14.495419      44.956653    
      3000   1629.6783     -15.761716      1.0532622     -14.708453      46.146947    
      4000   1426.1441     -15.854999      0.92171798    -14.933281      33.580927    
      5000   999.61792     -15.739427      0.64605379    -15.093373      36.045971    
      6000   1702.1236     -16.320351      1.1000837     -15.220268      19.381537    
      7000   779.4361      -15.823492      0.50375012    -15.319742      30.269015    
      8000   945.54437     -16.031158      0.61110601    -15.420052      20.075964    
      9000   803.69606     -16.040243      0.51942934    -15.520814      38.332754    
     10000   782.56598     -16.10904       0.50577296    -15.603267      23.938607    
     11000   1162.6592     -16.450411      0.75142748    -15.698983      28.23346     
     12000   411.57781     -16.074668      0.26600304    -15.808665      28.23346     
     13000   841.76216     -16.447956      0.54403149    -15.903924      28.23346     
     14000   506.08525     -16.291035      0.32708326    -15.963952      32.90655     
     15000   476.92865     -16.340759      0.30823934    -16.03252       24.252652    
     16000   230.76584     -16.230876      0.14914413    -16.081732      27.042055    
     17000   321.57095     -16.327901      0.20783154    -16.120069      27.042055    
     18000   536.05115     -16.513726      0.34645024    -16.167276      27.803605    
     19000   366.92173     -16.434521      0.23714178    -16.197379      27.803605    
     20000   778.21521     -16.745122      0.50296105    -16.242161      27.803605    
     21000   363.77924     -16.523525      0.23511079    -16.288414      27.803605    
     22000   283.12157     -16.513823      0.18298167    -16.330841      27.803605    
     23000   221.45267     -16.512432      0.14312502    -16.369307      27.803605    
     24000   188.99719     -16.525058      0.12214902    -16.402909      27.803605    
     25000   261.68474     -16.604172      0.16912704    -16.435045      27.803605    
     26000   453.80103     -16.758926      0.29329193    -16.465634      27.803605    
     27000   175.63481     -16.608291      0.1135129     -16.494779      27.803605    
     28000   452.66337     -16.811589      0.29255667    -16.519032      27.803605    
     29000   208.36511     -16.678351      0.13466652    -16.543685      27.803605    
     30000   284.62731     -16.747467      0.18395484    -16.563512      27.803605    
     31000   320.31034     -16.790247      0.20701681    -16.583231      27.803605    
     32000   268.12767     -16.77332       0.17329111    -16.600029      27.803605    
     33000   256.25431     -16.781289      0.16561735    -16.615672      27.803605    
     34000   169.89654     -16.739188      0.10980426    -16.629384      27.803605    
     35000   254.6258      -16.806861      0.16456484    -16.642296      27.803605    
     36000   197.94834     -16.781207      0.12793416    -16.653272      27.803605    
     37000   261.42133     -16.832123      0.1689568     -16.663166      27.803605    
     38000   194.63135     -16.797714      0.12579038    -16.671924      23.24142     
     39000   226.16466     -16.825829      0.14617039    -16.679659      23.24142     
     40000   218.26608     -16.827457      0.14106553    -16.686392      23.24142     
     41000   179.30134     -16.807942      0.11588259    -16.69206       23.24142     
     42000   171.04774     -16.807467      0.11054828    -16.696919      23.24142     
     43000   238.52626     -16.854832      0.15415969    -16.700672      23.24142     
     44000   169.26283     -16.81303       0.10939469    -16.703635      23.24142     
     45000   248.08851     -16.866029      0.16033978    -16.705689      23.24142     
     46000   126.04885     -16.788332      0.081465461   -16.706866      23.24142     
     47000   213.11202     -16.844912      0.13773445    -16.707177      23.24142     
     48000   279.15911     -16.887018      0.18042073    -16.706597      23.24142     
     49000   169.46376     -16.814569      0.10952455    -16.705045      23.24142     
     50000   223.64179     -16.847177      0.14453985    -16.702638      23.24142     
Loop time of 0.098452 on 1 procs for 50000 steps with 6 atoms

Performance: 43879.251 ns/day, 0.001 hours/ns, 507861.699 timesteps/s
79.4% CPU use with 1 MPI tasks x 1 OpenMP threads

MPI task timing breakdown:
Section |  min time  |  avg time  |  max time  |%varavg| %total
---------------------------------------------------------------
Pair    | 0.043946   | 0.043946   | 0.043946   |   0.0 | 44.64
Neigh   | 5.3e-05    | 5.3e-05    | 5.3e-05    |   0.0 |  0.05
Comm    | 0.004453   | 0.004453   | 0.004453   |   0.0 |  4.52
Output  | 0.003328   | 0.003328   | 0.003328   |   0.0 |  3.38
Modify  | 0.038104   | 0.038104   | 0.038104   |   0.0 | 38.70
Other   |            | 0.008568   |            |       |  8.70

Nlocal:              6 ave           6 max           6 min
Histogram: 1 0 0 0 0 0 0 0 0 0
Nghost:              0 ave           0 max           0 min
Histogram: 1 0 0 0 0 0 0 0 0 0
Neighs:             15 ave          15 max          15 min
Histogram: 1 0 0 0 0 0 0 0 0 0

Total # of neighbors = 15
Ave neighs/atom = 2.5
Neighbor list builds = 27
Dangerous builds = 0
Total wall time: 0:00:00
