LAMMPS (15 Sep 2022)
OMP_NUM_THREADS environment is not set. Defaulting to 1 thread. (src/comm.cpp:98)
  using 1 OpenMP thread(s) per MPI task
Loaded 1 plugins from C:\Users\becat\AppData\Local\LAMMPS 64-bit 15Sep2022\plugins
Lattice spacing in x,y,z = 4.079 4.079 4.079
Created orthogonal box = (0 0 0) to (40.79 40.79 40.79)
  1 by 1 by 1 MPI processor grid
Read molecule template np:
  1 molecules
  0 fragments
  92 atoms with max type 1
  0 bonds with max type 0
  0 angles with max type 0
  0 dihedrals with max type 0
  0 impropers with max type 0
Created 92 atoms
  using lattice units in orthogonal box = (14.542855 13.606555 13.955534) to (25.989059 25.866132 27.201748)
  create_atoms CPU = 0.000 seconds
Neighbor list info ...
  update: every = 1 steps, delay = 10 steps, check = yes
  max neighbors/atom: 2000, page size: 100000
  master list distance cutoff = 7.55
  ghost atom cutoff = 7.55
  binsize = 3.775, bins = 4 4 4
  1 neighbor lists, perpetual/occasional/extra = 1 0 0
  (1) pair eam, perpetual
      attributes: half, newton on
      pair build: half/bin/atomonly/newton
      stencil: half/bin/3d
      bin: standard
Setting up Verlet run ...
  Unit style    : metal
  Current step  : 0
  Time step     : 0.001
Per MPI rank memory allocation (min/avg/max) = 4.54 | 4.54 | 4.54 Mbytes
   Step          Temp          PotEng         KinEng         TotEng         Volume    
         0   300           -322.40442      3.528802      -318.87562      1858.7832    
      1000   180.23471     -320.98731      2.120042      -318.86726      1858.7832    
      2000   196.03928     -321.1478       2.305946      -318.84186      1858.7832    
      3000   188.75184     -321.01953      2.2202262     -318.7993       1858.7832    
      4000   191.9243      -320.99752      2.2575428     -318.73998      1858.7832    
      5000   184.22684     -320.83372      2.1670001     -318.66672      1858.7832    
      6000   201.46223     -320.95531      2.3697344     -318.58558      1761.5007    
      7000   197.30574     -320.82237      2.320843      -318.50152      1761.5007    
      8000   190.62077     -320.66618      2.2422098     -318.42397      1761.5007    
      9000   195.9143      -320.65645      2.3044759     -318.35197      1897.2452    
     10000   228.74758     -320.97488      2.690683      -318.28419      1822.7166    
     11000   219.49179     -320.80346      2.5818102     -318.22165      1822.7166    
     12000   227.57717     -320.83582      2.6769159     -318.15891      1822.7166    
     13000   203.21334     -320.48429      2.3903321     -318.09396      1822.7166    
     14000   217.20898     -320.58045      2.5549583     -318.02549      1796.9565    
     15000   247.03268     -320.85822      2.9057646     -317.95246      1796.9565    
     16000   260.43909     -320.93832      3.0634599     -317.87486      1843.9385    
     17000   237.54537     -320.58878      2.7941685     -317.79461      1843.9385    
     18000   267.89227     -320.86112      3.1511292     -317.70999      1845.836     
     19000   266.80817     -320.76226      3.1383773     -317.62388      1845.836     
     20000   255.68002     -320.54372      3.0074806     -317.53624      1845.836     
     21000   255.50683     -320.45314      3.0054433     -317.44769      1845.836     
     22000   232.65095     -320.09462      2.736597      -317.35803      1850.521     
     23000   263.00861     -320.36341      3.0936843     -317.26972      1850.521     
     24000   272.4665      -320.38595      3.2049345     -317.18101      1850.521     
     25000   290.84342     -320.51533      3.4210961     -317.09423      1828.1314    
     26000   282.17565     -320.32706      3.31914       -317.00792      1828.1314    
     27000   286.35612     -320.29058      3.3683134     -316.92226      1835.9385    
     28000   254.0133      -319.8264       2.9878755     -316.83853      1835.9385    
     29000   312.24825     -320.42943      3.6728741     -316.75656      1831.3319    
     30000   292.41515     -320.11537      3.4395838     -316.67579      1831.3319    
     31000   303.30674     -320.1651       3.5676981     -316.5974       1765.593     
     32000   255.00538     -319.51835      2.9995449     -316.51881      1880.3004    
     33000   297.82323     -319.94638      3.5031973     -316.44319      1880.3004    
     34000   246.2006      -319.26558      2.8959772     -316.3696       1880.3004    
     35000   297.84927     -319.80186      3.5035036     -316.29836      1880.3004    
     36000   336.1343      -320.18261      3.9538379     -316.22877      1844.4519    
     37000   268.19727     -319.31751      3.1547168     -316.1628       1844.4519    
     38000   319.15655     -319.85417      3.7541342     -316.10004      1844.4519    
     39000   294.25646     -319.50079      3.4612425     -316.03955      1844.4519    
     40000   306.24641     -319.5845       3.6022765     -315.98223      1844.4519    
     41000   299.51521     -319.45142      3.5230996     -315.92832      1944.4708    
     42000   283.3054      -319.21213      3.3324288     -315.8797       1803.5959    
     43000   331.51895     -319.73188      3.899549      -315.83233      1803.0222    
     44000   286.20627     -319.15444      3.3665508     -315.78789      1803.0222    
     45000   298.55143     -319.2593       3.5117629     -315.74753      1877.1702    
     46000   333.17539     -319.63125      3.9190332     -315.71221      1877.1702    
     47000   307.1509      -319.29489      3.6129157     -315.68197      1865.6141    
     48000   324.17708     -319.47081      3.8131891     -315.65762      1865.6141    
     49000   316.0803      -319.35681      3.7179493     -315.63886      1865.6141    
     50000   327.19738     -319.47435      3.8487159     -315.62563      1865.6141    
Loop time of 3.20369 on 1 procs for 50000 steps with 92 atoms

Performance: 1348.445 ns/day, 0.018 hours/ns, 15607.008 timesteps/s
100.0% CPU use with 1 MPI tasks x 1 OpenMP threads

MPI task timing breakdown:
Section |  min time  |  avg time  |  max time  |%varavg| %total
---------------------------------------------------------------
Pair    | 3.0536     | 3.0536     | 3.0536     |   0.0 | 95.32
Neigh   | 0.000884   | 0.000884   | 0.000884   |   0.0 |  0.03
Comm    | 0.005056   | 0.005056   | 0.005056   |   0.0 |  0.16
Output  | 0.016585   | 0.016585   | 0.016585   |   0.0 |  0.52
Modify  | 0.10651    | 0.10651    | 0.10651    |   0.0 |  3.32
Other   |            | 0.02101    |            |       |  0.66

Nlocal:             92 ave          92 max          92 min
Histogram: 1 0 0 0 0 0 0 0 0 0
Nghost:              0 ave           0 max           0 min
Histogram: 1 0 0 0 0 0 0 0 0 0
Neighs:           2261 ave        2261 max        2261 min
Histogram: 1 0 0 0 0 0 0 0 0 0

Total # of neighbors = 2261
Ave neighs/atom = 24.576087
Neighbor list builds = 20
Dangerous builds = 0
Total wall time: 0:00:03
