LAMMPS (15 Sep 2022)
OMP_NUM_THREADS environment is not set. Defaulting to 1 thread. (src/comm.cpp:98)
  using 1 OpenMP thread(s) per MPI task
Loaded 1 plugins from C:\Users\becat\AppData\Local\LAMMPS 64-bit 15Sep2022\plugins
Lattice spacing in x,y,z = 4.079 4.079 4.079
Created orthogonal box = (0 0 0) to (40.79 40.79 40.79)
  1 by 1 by 1 MPI processor grid
Read molecule template np:
  1 molecules
  0 fragments
  2057 atoms with max type 1
  0 bonds with max type 0
  0 angles with max type 0
  0 dihedrals with max type 0
  0 impropers with max type 0
Created 2057 atoms
  using lattice units in orthogonal box = (2.2080568 -0.89789921 -1.1929448) to (38.581943 41.687899 41.982945)
  create_atoms CPU = 0.000 seconds
Neighbor list info ...
  update: every = 1 steps, delay = 10 steps, check = yes
  max neighbors/atom: 2000, page size: 100000
  master list distance cutoff = 7.55
  ghost atom cutoff = 7.55
  binsize = 3.775, bins = 10 12 12
  1 neighbor lists, perpetual/occasional/extra = 1 0 0
  (1) pair eam, perpetual
      attributes: half, newton on
      pair build: half/bin/atomonly/newton
      stencil: half/bin/3d
      bin: standard
Setting up Verlet run ...
  Unit style    : metal
  Current step  : 0
  Time step     : 0.001
Per MPI rank memory allocation (min/avg/max) = 4.659 | 4.659 | 4.659 Mbytes
   Step          Temp          PotEng         KinEng         TotEng         Volume    
         0   300           -7741.3077      79.727657     -7661.58        66879.928    
      1000   210.55152     -7717.3679      55.95593      -7661.412       61791.478    
      2000   206.02994     -7715.6692      54.754282     -7660.9149      63471.321    
      3000   207.23843     -7715.2507      55.075448     -7660.1753      63935.485    
      4000   210.52786     -7715.3425      55.949644     -7659.3929      63935.485    
      5000   213.39345     -7715.4114      56.7112       -7658.7002      63935.485    
      6000   217.09633     -7715.7313      57.695273     -7658.0361      63935.485    
      7000   212.20837     -7713.7147      56.396254     -7657.3185      62100.75     
      8000   222.24831     -7715.5837      59.064458     -7656.5192      62529.251    
      9000   220.57986     -7714.2707      58.621051     -7655.6497      62529.251    
     10000   214.79616     -7711.8196      57.083981     -7654.7356      62529.251    
     11000   218.57677     -7711.884       58.088713     -7653.7953      62529.251    
     12000   225.26628     -7712.7015      59.86651      -7652.835       63857.083    
     13000   224.94742     -7711.6376      59.781769     -7651.8558      62301.997    
     14000   231.42519     -7712.3611      61.503294     -7650.8578      63181.065    
     15000   231.39817     -7711.3356      61.496113     -7649.8395      62886.549    
     16000   232.19242     -7710.5185      61.707191     -7648.8113      63500.739    
     17000   230.53992     -7709.0346      61.268025     -7647.7666      62152.513    
     18000   231.80454     -7708.3099      61.604109     -7646.7058      63172.886    
     19000   242.78236     -7710.1606      64.521562     -7645.639       62751.889    
     20000   240.13974     -7708.3816      63.819263     -7644.5623      62751.889    
     21000   240.47342     -7707.3829      63.907942     -7643.4749      62751.889    
     22000   247.56078     -7708.1723      65.791471     -7642.3808      62751.889    
     23000   244.93696     -7706.3764      65.094167     -7641.2823      62824.228    
     24000   248.13814     -7706.1257      65.944909     -7640.1808      62356.305    
     25000   252.96371     -7706.3005      67.227347     -7639.0732      62214.816    
     26000   251.11374     -7704.6992      66.7357       -7637.9635      63144.991    
     27000   254.91072     -7704.5981      67.744783     -7636.8534      61907.204    
     28000   253.50375     -7703.116       67.370868     -7635.7451      62758.894    
     29000   255.23961     -7702.4633      67.832188     -7634.6311      62086.303    
     30000   253.55945     -7700.9129      67.38567      -7633.5272      63640.897    
     31000   263.81864     -7702.5332      70.11214      -7632.4211      62979.532    
     32000   260.72587     -7700.6115      69.290209     -7631.3213      63179.452    
     33000   262.29777     -7699.935       69.707957     -7630.227       62132.375    
     34000   267.2012      -7700.1512      71.011086     -7629.1401      63605.542    
     35000   270.42491     -7699.9251      71.867816     -7628.0573      63605.542    
     36000   269.49081     -7698.6041      71.61957      -7626.9845      62461.253    
     37000   277.27931     -7699.6137      73.689434     -7625.9243      63253.558    
     38000   275.49858     -7698.0879      73.216188     -7624.8717      63369.357    
     39000   276.9222      -7697.4288      73.594528     -7623.8342      62764.398    
     40000   281.23921     -7697.549       74.741811     -7622.8072      62847.524    
     41000   279.08802     -7695.9678      74.170113     -7621.7977      63762.308    
     42000   274.85314     -7693.8463      73.044657     -7620.8016      62855.12     
     43000   280.4621      -7694.3577      74.535287     -7619.8224      62302.007    
     44000   286.65367     -7695.0444      76.180751     -7618.8636      63380.948    
     45000   284.81573     -7693.6141      75.692303     -7617.9218      63326.96     
     46000   285.89434     -7692.9831      75.978952     -7617.0041      63326.96     
     47000   290.15096     -7693.2142      77.110187     -7616.104       63572.303    
     48000   292.72114     -7693.0273      77.793236     -7615.2341      62893.439    
     49000   300.20623     -7694.1689      79.782464     -7614.3865      62818.648    
     50000   289.00507     -7690.3718      76.805658     -7613.5662      62081.945    
Loop time of 147.898 on 1 procs for 50000 steps with 2057 atoms

Performance: 29.209 ns/day, 0.822 hours/ns, 338.070 timesteps/s
99.1% CPU use with 1 MPI tasks x 1 OpenMP threads

MPI task timing breakdown:
Section |  min time  |  avg time  |  max time  |%varavg| %total
---------------------------------------------------------------
Pair    | 144.71     | 144.71     | 144.71     |   0.0 | 97.85
Neigh   | 0.15607    | 0.15607    | 0.15607    |   0.0 |  0.11
Comm    | 0.019226   | 0.019226   | 0.019226   |   0.0 |  0.01
Output  | 0.38325    | 0.38325    | 0.38325    |   0.0 |  0.26
Modify  | 2.2043     | 2.2043     | 2.2043     |   0.0 |  1.49
Other   |            | 0.4239     |            |       |  0.29

Nlocal:           2057 ave        2057 max        2057 min
Histogram: 1 0 0 0 0 0 0 0 0 0
Nghost:              0 ave           0 max           0 min
Histogram: 1 0 0 0 0 0 0 0 0 0
Neighs:          82342 ave       82342 max       82342 min
Histogram: 1 0 0 0 0 0 0 0 0 0

Total # of neighbors = 82342
Ave neighs/atom = 40.030141
Neighbor list builds = 56
Dangerous builds = 0
Total wall time: 0:02:27
