LAMMPS (15 Sep 2022)
OMP_NUM_THREADS environment is not set. Defaulting to 1 thread. (src/comm.cpp:98)
  using 1 OpenMP thread(s) per MPI task
Loaded 1 plugins from C:\Users\becat\AppData\Local\LAMMPS 64-bit 15Sep2022\plugins
Lattice spacing in x,y,z = 4.079 4.079 4.079
Created orthogonal box = (0 0 0) to (40.79 40.79 40.79)
  1 by 1 by 1 MPI processor grid
Read molecule template np:
  1 molecules
  0 fragments
  1428 atoms with max type 1
  0 bonds with max type 0
  0 angles with max type 0
  0 dihedrals with max type 0
  0 impropers with max type 0
Created 1428 atoms
  using lattice units in orthogonal box = (0.92501692 0.7489525 4.6877005) to (39.098038 40.004097 36.102301)
  create_atoms CPU = 0.001 seconds
Neighbor list info ...
  update: every = 1 steps, delay = 10 steps, check = yes
  max neighbors/atom: 2000, page size: 100000
  master list distance cutoff = 7.55
  ghost atom cutoff = 7.55
  binsize = 3.775, bins = 11 11 9
  1 neighbor lists, perpetual/occasional/extra = 1 0 0
  (1) pair eam, perpetual
      attributes: half, newton on
      pair build: half/bin/atomonly/newton
      stencil: half/bin/3d
      bin: standard
Setting up Verlet run ...
  Unit style    : metal
  Current step  : 0
  Time step     : 0.001
Per MPI rank memory allocation (min/avg/max) = 4.623 | 4.623 | 4.623 Mbytes
   Step          Temp          PotEng         KinEng         TotEng         Volume    
         0   300           -5351.8767      55.336268     -5296.5404      47074.384    
      1000   250.37309     -5342.6301      46.182374     -5296.4477      47074.384    
      2000   242.30963     -5340.875       44.695035     -5296.18        44012.949    
      3000   242.37189     -5340.444       44.70652      -5295.7375      44012.949    
      4000   240.43984     -5339.54        44.350145     -5295.1898      43491.312    
      5000   235.4566      -5338.0563      43.430965     -5294.6253      44563.174    
      6000   247.23819     -5339.7071      45.60413      -5294.103       44563.174    
      7000   244.40945     -5338.7211      45.082356     -5293.6387      44687.873    
      8000   236.32701     -5336.7667      43.591516     -5293.1751      44687.873    
      9000   249.26568     -5338.6709      45.978108     -5292.6928      44687.873    
     10000   240.60483     -5336.5519      44.380579     -5292.1714      44687.873    
     11000   251.22553     -5337.9411      46.33961      -5291.6015      44687.873    
     12000   252.48515     -5337.5831      46.571952     -5291.0111      44687.873    
     13000   249.8244      -5336.4734      46.081167     -5290.3922      44687.873    
     14000   259.15733     -5337.5679      47.802664     -5289.7653      44687.873    
     15000   247.237       -5334.7374      45.603909     -5289.1335      44687.873    
     16000   264.597       -5337.2943      48.806034     -5288.4882      44687.873    
     17000   272.49685     -5338.1139      50.263195     -5287.8507      44687.873    
     18000   256.04514     -5334.4346      47.228609     -5287.2059      44687.873    
     19000   268.08876     -5336.0069      49.450105     -5286.5568      44687.873    
     20000   257.80517     -5333.4652      47.553253     -5285.9119      44687.873    
     21000   263.34613     -5333.8338      48.575307     -5285.2584      44687.873    
     22000   272.11551     -5334.8035      50.192855     -5284.6106      44177.535    
     23000   268.22336     -5333.4383      49.474933     -5283.9633      44177.535    
     24000   260.59506     -5331.3827      48.067861     -5283.3149      44597.91     
     25000   271.63054     -5332.7811      50.103401     -5282.6777      44597.91     
     26000   273.85107     -5332.5475      50.512987     -5282.0345      44597.91     
     27000   275.22681     -5332.1709      50.766749     -5281.4042      44597.91     
     28000   284.16894     -5333.1931      52.416163     -5280.7769      44597.91     
     29000   275.40836     -5330.9563      50.800235     -5280.1561      44597.91     
     30000   279.60537     -5331.1196      51.574392     -5279.5452      44368.321    
     31000   283.62976     -5331.2551      52.316708     -5278.9383      44368.321    
     32000   283.58622     -5330.6508      52.308676     -5278.3421      44368.321    
     33000   281.34575     -5329.6565      51.895413     -5277.7611      44368.321    
     34000   292.04554     -5331.0554      53.869035     -5277.1864      44368.321    
     35000   294.71792     -5330.9897      54.361965     -5276.6277      44460.984    
     36000   286.14532     -5328.8591      52.780713     -5276.0784      44244.144    
     37000   295.06461     -5329.97        54.425914     -5275.5441      44244.144    
     38000   297.13889     -5329.8336      54.808525     -5275.0251      44244.144    
     39000   290.56424     -5328.1141      53.595802     -5274.5183      43949.629    
     40000   307.52833     -5330.7544      56.724901     -5274.0295      43949.629    
     41000   292.11601     -5327.4386      53.882034     -5273.5566      43949.629    
     42000   297.77908     -5328.0282      54.92661      -5273.1016      43949.629    
     43000   290.21559     -5326.2011      53.531493     -5272.6696      44498.08     
     44000   304.47785     -5328.4129      56.162226     -5272.2507      44683.98     
     45000   300.58523     -5327.3005      55.444216     -5271.8562      44683.98     
     46000   303.4482      -5327.4573      55.972303     -5271.485       44683.98     
     47000   301.42456     -5326.7336      55.599034     -5271.1346      44683.98     
     48000   299.48551     -5326.0504      55.241369     -5270.809       44683.98     
     49000   310.1468      -5327.7151      57.207889     -5270.5072      44683.98     
     50000   303.32964     -5326.1794      55.950434     -5270.229       44683.98     
Loop time of 137.788 on 1 procs for 50000 steps with 1428 atoms

Performance: 31.353 ns/day, 0.765 hours/ns, 362.878 timesteps/s
99.6% CPU use with 1 MPI tasks x 1 OpenMP threads

MPI task timing breakdown:
Section |  min time  |  avg time  |  max time  |%varavg| %total
---------------------------------------------------------------
Pair    | 134.98     | 134.98     | 134.98     |   0.0 | 97.96
Neigh   | 0.038141   | 0.038141   | 0.038141   |   0.0 |  0.03
Comm    | 0.016488   | 0.016488   | 0.016488   |   0.0 |  0.01
Output  | 0.37057    | 0.37057    | 0.37057    |   0.0 |  0.27
Modify  | 2.0071     | 2.0071     | 2.0071     |   0.0 |  1.46
Other   |            | 0.38       |            |       |  0.28

Nlocal:           1428 ave        1428 max        1428 min
Histogram: 1 0 0 0 0 0 0 0 0 0
Nghost:              0 ave           0 max           0 min
Histogram: 1 0 0 0 0 0 0 0 0 0
Neighs:          56947 ave       56947 max       56947 min
Histogram: 1 0 0 0 0 0 0 0 0 0

Total # of neighbors = 56947
Ave neighs/atom = 39.878852
Neighbor list builds = 14
Dangerous builds = 0
Total wall time: 0:02:17
