LAMMPS (15 Sep 2022)
OMP_NUM_THREADS environment is not set. Defaulting to 1 thread. (src/comm.cpp:98)
  using 1 OpenMP thread(s) per MPI task
Loaded 1 plugins from C:\Users\becat\AppData\Local\LAMMPS 64-bit 15Sep2022\plugins
Lattice spacing in x,y,z = 4.079 4.079 4.079
Created orthogonal box = (0 0 0) to (40.79 40.79 40.79)
  1 by 1 by 1 MPI processor grid
Read molecule template np:
  1 molecules
  0 fragments
  147 atoms with max type 1
  0 bonds with max type 0
  0 angles with max type 0
  0 dihedrals with max type 0
  0 impropers with max type 0
Created 147 atoms
  using lattice units in orthogonal box = (13.572347 12.407614 12.296974) to (27.217653 28.382386 28.493026)
  create_atoms CPU = 0.000 seconds
Neighbor list info ...
  update: every = 1 steps, delay = 10 steps, check = yes
  max neighbors/atom: 2000, page size: 100000
  master list distance cutoff = 7.55
  ghost atom cutoff = 7.55
  binsize = 3.775, bins = 4 5 5
  1 neighbor lists, perpetual/occasional/extra = 1 0 0
  (1) pair eam, perpetual
      attributes: half, newton on
      pair build: half/bin/atomonly/newton
      stencil: half/bin/3d
      bin: standard
Setting up Verlet run ...
  Unit style    : metal
  Current step  : 0
  Time step     : 0.001
Per MPI rank memory allocation (min/avg/max) = 4.544 | 4.544 | 4.544 Mbytes
   Step          Temp          PotEng         KinEng         TotEng         Volume    
         0   300           -514.17058      5.6615944     -508.50898      3530.426     
      1000   363.46625     -515.39052      6.8593283     -508.53119      3234.9549    
      2000   531.60524     -518.6431       10.032444     -508.61066      3195.6012    
      3000   446.86649     -517.21867      8.4332559     -508.78542      3304.4185    
      4000   447.76952     -517.48076      8.450298      -509.03046      3484.1546    
      5000   476.58296     -518.32082      8.9940647     -509.32675      3156.972     
      6000   427.07506     -517.68692      8.0597526     -509.62716      3213.4932    
      7000   440.17054     -518.19855      8.3068902     -509.89166      3308.6501    
      8000   410.71508     -517.86994      7.7510072     -510.11894      3237.2398    
      9000   402.19414     -517.92028      7.5902003     -510.33008      3237.2398    
     10000   416.16799     -518.39298      7.8539145     -510.53907      3309.0075    
     11000   420.62674     -518.69173      7.9380599     -510.75367      3230.8265    
     12000   414.30232     -518.79999      7.8187055     -510.98128      3186.7673    
     13000   377.19985     -518.33461      7.1185085     -511.2161       3256.6172    
     14000   393.69373     -518.88639      7.4297807     -511.4566       3266.4753    
     15000   380.05216     -518.86641      7.1723372     -511.69407      3219.7515    
     16000   382.16605     -519.14342      7.2122305     -511.93119      3249.9317    
     17000   368.25943     -519.11236      6.9497851     -512.16258      3195.6946    
     18000   359.90808     -519.18062      6.7921785     -512.38845      3195.6946    
     19000   360.62999     -519.41268      6.8058024     -512.60688      3195.6946    
     20000   392.70138     -520.22934      7.411053      -512.81829      3195.6946    
     21000   354.68576     -519.7163       6.693623      -513.02267      3195.6946    
     22000   347.44133     -519.77626      6.5569063     -513.21935      3225.6396    
     23000   358.09069     -520.16932      6.7578808     -513.41143      3225.6396    
     24000   337.1306      -519.95743      6.3623224     -513.59511      3225.6396    
     25000   327.91627     -519.96065      6.1884296     -513.77222      3225.6396    
     26000   324.9204      -520.07465      6.1318916     -513.94276      3194.4867    
     27000   350.18345     -520.71343      6.6086555     -514.10478      3194.4867    
     28000   322.65085     -520.35077      6.0890608     -514.26171      3194.4867    
     29000   330.88639     -520.65506      6.2444817     -514.41058      3194.4867    
     30000   352.84168     -521.21298      6.6588215     -514.55416      3194.4867    
     31000   321.02354     -520.74884      6.0583502     -514.69049      3194.4867    
     32000   323.91259     -520.9324       6.1128723     -514.81953      3194.4867    
     33000   307.26447     -520.74033      5.7986892     -514.94164      3194.4867    
     34000   298.65156     -520.69401      5.6361466     -515.05787      3194.4867    
     35000   299.78921     -520.82408      5.6576164     -515.16646      3194.4867    
     36000   273.68802     -520.43444      5.1650351     -515.2694       3194.4867    
     37000   306.25775     -521.14476      5.7796904     -515.36507      3194.4867    
     38000   288.67749     -520.90226      5.4479161     -515.45434      3194.4867    
     39000   298.456       -521.17008      5.632456      -515.53762      3194.4867    
     40000   285.60395     -521.00348      5.3899124     -515.61357      3194.4867    
     41000   274.52238     -520.8643       5.1807812     -515.68351      3194.4867    
     42000   273.52479     -520.90805      5.1619547     -515.7461       3194.4867    
     43000   263.52213     -520.77554      4.9731847     -515.80236      3194.4867    
     44000   272.25854     -520.98943      5.138058      -515.85137      3194.4867    
     45000   275.0853      -521.08459      5.1914046     -515.89318      3194.4867    
     46000   261.1394      -520.8566       4.9282179     -515.92838      3194.4867    
     47000   272.91372     -521.10664      5.1504225     -515.95621      3194.4867    
     48000   295.78946     -521.55857      5.5821331     -515.97644      3194.4867    
     49000   273.94216     -521.15883      5.1698313     -515.98899      3194.4867    
     50000   269.79181     -521.08536      5.091506      -515.99385      3194.4867    
Loop time of 10.5261 on 1 procs for 50000 steps with 147 atoms

Performance: 410.406 ns/day, 0.058 hours/ns, 4750.075 timesteps/s
99.8% CPU use with 1 MPI tasks x 1 OpenMP threads

MPI task timing breakdown:
Section |  min time  |  avg time  |  max time  |%varavg| %total
---------------------------------------------------------------
Pair    | 10.149     | 10.149     | 10.149     |   0.0 | 96.41
Neigh   | 0.005127   | 0.005127   | 0.005127   |   0.0 |  0.05
Comm    | 0.00996    | 0.00996    | 0.00996    |   0.0 |  0.09
Output  | 0.042887   | 0.042887   | 0.042887   |   0.0 |  0.41
Modify  | 0.26665    | 0.26665    | 0.26665    |   0.0 |  2.53
Other   |            | 0.05283    |            |       |  0.50

Nlocal:            147 ave         147 max         147 min
Histogram: 1 0 0 0 0 0 0 0 0 0
Nghost:              0 ave           0 max           0 min
Histogram: 1 0 0 0 0 0 0 0 0 0
Neighs:           4316 ave        4316 max        4316 min
Histogram: 1 0 0 0 0 0 0 0 0 0

Total # of neighbors = 4316
Ave neighs/atom = 29.360544
Neighbor list builds = 35
Dangerous builds = 0
Total wall time: 0:00:10
