LAMMPS (15 Sep 2022)
OMP_NUM_THREADS environment is not set. Defaulting to 1 thread. (src/comm.cpp:98)
  using 1 OpenMP thread(s) per MPI task
Loaded 1 plugins from C:\Users\becat\AppData\Local\LAMMPS 64-bit 15Sep2022\plugins
Lattice spacing in x,y,z = 4.079 4.079 4.079
Created orthogonal box = (0 0 0) to (40.79 40.79 40.79)
  1 by 1 by 1 MPI processor grid
Read molecule template np:
  1 molecules
  0 fragments
  32 atoms with max type 1
  0 bonds with max type 0
  0 angles with max type 0
  0 dihedrals with max type 0
  0 impropers with max type 0
Created 32 atoms
  using lattice units in orthogonal box = (16.172616 16.375474 16.191224) to (24.617737 24.415052 24.598813)
  create_atoms CPU = 0.000 seconds
Neighbor list info ...
  update: every = 1 steps, delay = 10 steps, check = yes
  max neighbors/atom: 2000, page size: 100000
  master list distance cutoff = 7.55
  ghost atom cutoff = 7.55
  binsize = 3.775, bins = 3 3 3
  1 neighbor lists, perpetual/occasional/extra = 1 0 0
  (1) pair eam, perpetual
      attributes: half, newton on
      pair build: half/bin/atomonly/newton
      stencil: half/bin/3d
      bin: standard
Setting up Verlet run ...
  Unit style    : metal
  Current step  : 0
  Time step     : 0.001
Per MPI rank memory allocation (min/avg/max) = 4.536 | 4.536 | 4.536 Mbytes
   Step          Temp          PotEng         KinEng         TotEng         Volume    
         0   300           -96.497669      1.2021193     -95.29555       570.83506    
      1000   1116.0052     -99.839208      4.4719047     -95.367303      494.06584    
      2000   1020.1228     -99.73621       4.0876978     -95.648512      514.90611    
      3000   1123.3244     -100.6147       4.5012335     -96.11347       492.35457    
      4000   917.92024     -100.227        3.6781656     -96.548836      535.00086    
      5000   1084.6217     -101.34294      4.3461493     -96.99679       550.75815    
      6000   876.63947     -100.89509      3.5127509     -97.382341      520.19129    
      7000   865.76699     -101.26415      3.4691842     -97.794966      492.47817    
      8000   725.94487     -101.15365      2.9089079     -98.244738      507.80799    
      9000   1029.3321     -102.80741      4.1246001     -98.682811      544.83132    
     10000   850.5711      -102.51241      3.4082932     -99.104121      522.49345    
     11000   944.36063     -103.30019      3.7841139     -99.516077      502.76688    
     12000   977.99025     -103.82073      3.91887       -99.901861      529.55595    
     13000   724.26395     -103.19713      2.9021724     -100.29496      526.37269    
     14000   662.16304     -103.33354      2.65333       -100.68021      499.45846    
     15000   568.0876      -103.29436      2.2763636     -101.018        530.02883    
     16000   677.81355     -104.05242      2.7160426     -101.33638      472.49755    
     17000   728.84716     -104.56143      2.9205376     -101.6409       525.92759    
     18000   638.40838     -104.48586      2.5581436     -101.92772      492.71776    
     19000   489.90844     -104.1511       1.9630947     -102.18801      510.79444    
     20000   526.56579     -104.54319      2.1099831     -102.43321      565.28223    
     21000   461.33462     -104.51282      1.8485976     -102.66423      492.5988     
     22000   452.20957     -104.69511      1.8120329     -102.88308      480.94       
     23000   474.24982     -104.99024      1.9003496     -103.08989      480.94       
     24000   406.00694     -104.90299      1.626896      -103.2761       506.395      
     25000   379.99788     -104.97139      1.522676      -103.44872      506.395      
     26000   446.55765     -105.40135      1.7893853     -103.61196      506.395      
     27000   438.94626     -105.51702      1.758886      -103.75813      510.91867    
     28000   380.07812     -105.41737      1.5229976     -103.89437      515.31593    
     29000   431.94598     -105.75452      1.7308354     -104.02368      538.9198     
     30000   387.78302     -105.69654      1.5538716     -104.14267      538.9198     
     31000   345.33693     -105.63138      1.3837873     -104.2476       538.9198     
     32000   305.69422     -105.57231      1.2249365     -104.34737      538.9198     
     33000   334.50234     -105.78137      1.3403724     -104.441        481.78276    
     34000   330.29885     -105.85107      1.3235288     -104.52754      508.90075    
     35000   293.70048     -105.78377      1.1768768     -104.60689      508.90075    
     36000   306.50873     -105.91165      1.2282003     -104.68345      451.58757    
     37000   291.35894     -105.92171      1.1674941     -104.75422      451.58757    
     38000   262.5864      -105.8699       1.0522006     -104.8177       487.16571    
     39000   208.56338     -105.71199      0.83572692    -104.87626      487.16571    
     40000   281.6045      -106.05772      1.1284074     -104.92931      487.16571    
     41000   264.49002     -106.03796      1.0598286     -104.97813      487.16571    
     42000   275.07502     -106.12489      1.1022433     -105.02264      487.16571    
     43000   300.00114     -106.26488      1.2021239     -105.06275      487.16571    
     44000   278.58527     -106.21482      1.1163092     -105.09852      487.16571    
     45000   252.06376     -106.13999      1.0100358     -105.12995      487.16571    
     46000   225.2518      -106.05978      0.90259848    -105.15718      487.16571    
     47000   250.14455     -106.18249      1.0023453     -105.18014      487.16571    
     48000   249.22847     -106.19811      0.99867457    -105.19944      487.16571    
     49000   177.07623     -105.92399      0.70955588    -105.21443      487.16571    
     50000   225.31608     -106.12795      0.90285608    -105.2251       487.16571    
Loop time of 1.60209 on 1 procs for 50000 steps with 32 atoms

Performance: 2696.484 ns/day, 0.009 hours/ns, 31209.311 timesteps/s
87.8% CPU use with 1 MPI tasks x 1 OpenMP threads

MPI task timing breakdown:
Section |  min time  |  avg time  |  max time  |%varavg| %total
---------------------------------------------------------------
Pair    | 1.4145     | 1.4145     | 1.4145     |   0.0 | 88.29
Neigh   | 0.001091   | 0.001091   | 0.001091   |   0.0 |  0.07
Comm    | 0.009621   | 0.009621   | 0.009621   |   0.0 |  0.60
Output  | 0.018212   | 0.018212   | 0.018212   |   0.0 |  1.14
Modify  | 0.1281     | 0.1281     | 0.1281     |   0.0 |  8.00
Other   |            | 0.03055    |            |       |  1.91

Nlocal:             32 ave          32 max          32 min
Histogram: 1 0 0 0 0 0 0 0 0 0
Nghost:              0 ave           0 max           0 min
Histogram: 1 0 0 0 0 0 0 0 0 0
Neighs:            468 ave         468 max         468 min
Histogram: 1 0 0 0 0 0 0 0 0 0

Total # of neighbors = 468
Ave neighs/atom = 14.625
Neighbor list builds = 89
Dangerous builds = 0
Total wall time: 0:00:01
