LAMMPS (15 Sep 2022)
OMP_NUM_THREADS environment is not set. Defaulting to 1 thread. (src/comm.cpp:98)
  using 1 OpenMP thread(s) per MPI task
Loaded 1 plugins from C:\Users\becat\AppData\Local\LAMMPS 64-bit 15Sep2022\plugins
Lattice spacing in x,y,z = 4.079 4.079 4.079
Created orthogonal box = (0 0 0) to (40.79 40.79 40.79)
  1 by 1 by 1 MPI processor grid
Read molecule template np:
  1 molecules
  0 fragments
  891 atoms with max type 1
  0 bonds with max type 0
  0 angles with max type 0
  0 dihedrals with max type 0
  0 impropers with max type 0
Created 891 atoms
  using lattice units in orthogonal box = (0.28735044 2.0597819 1.8844933) to (40.50265 38.730218 38.905507)
  create_atoms CPU = 0.000 seconds
Neighbor list info ...
  update: every = 1 steps, delay = 10 steps, check = yes
  max neighbors/atom: 2000, page size: 100000
  master list distance cutoff = 7.55
  ghost atom cutoff = 7.55
  binsize = 3.775, bins = 11 10 10
  1 neighbor lists, perpetual/occasional/extra = 1 0 0
  (1) pair eam, perpetual
      attributes: half, newton on
      pair build: half/bin/atomonly/newton
      stencil: half/bin/3d
      bin: standard
Setting up Verlet run ...
  Unit style    : metal
  Current step  : 0
  Time step     : 0.001
Per MPI rank memory allocation (min/avg/max) = 4.594 | 4.594 | 4.594 Mbytes
   Step          Temp          PotEng         KinEng         TotEng         Volume    
         0   300           -3308.5107      34.512459     -3273.9983      54595.354    
      1000   218.52739     -3299.0905      25.139726     -3273.9508      41799.729    
      2000   237.07211     -3301.0771      27.273138     -3273.8039      50476.013    
      3000   231.41801     -3300.183       26.622682     -3273.5603      41256.556    
      4000   236.03679     -3300.3872      27.154033     -3273.2332      45897.633    
      5000   238.54216     -3300.2961      27.442255     -3272.8539      43076.699    
      6000   257.17393     -3302.0544      29.585683     -3272.4687      49378.158    
      7000   260.93068     -3302.1308      30.017864     -3272.113       40831.625    
      8000   263.93478     -3302.1569      30.363461     -3271.7934      48329.01     
      9000   258.38405     -3301.2213      29.724897     -3271.4964      42337.066    
     10000   272.31443     -3302.5301      31.327468     -3271.2026      48052.805    
     11000   263.59912     -3301.2242      30.324846     -3270.8994      44794.859    
     12000   278.48507     -3302.6143      32.037349     -3270.5769      44217.827    
     13000   272.1056      -3301.5393      31.303444     -3270.2358      44617.521    
     14000   275.36289     -3301.5509      31.678168     -3269.8727      44617.521    
     15000   270.68152     -3300.6367      31.139617     -3269.4971      42479.092    
     16000   275.31377     -3300.786       31.672517     -3269.1135      43630.124    
     17000   272.80056     -3300.1079      31.383394     -3268.7245      46256.807    
     18000   279.7362      -3300.5171      32.181281     -3268.3358      46256.807    
     19000   273.49041     -3299.4093      31.462755     -3267.9466      43997.863    
     20000   270.30265     -3298.655       31.09603      -3267.559       43997.863    
     21000   280.41179     -3299.4344      32.259002     -3267.1754      45285.665    
     22000   277.22029     -3298.6858      31.891846     -3266.794       45921.771    
     23000   277.02648     -3298.2839      31.869549     -3266.4144      44686.721    
     24000   285.09745     -3298.8359      32.798047     -3266.0379      46538.195    
     25000   283.10265     -3298.2376      32.568562     -3265.6691      46538.195    
     26000   281.11398     -3297.6415      32.339783     -3265.3018      46538.195    
     27000   293.27346     -3298.6812      33.738628     -3264.9426      46538.195    
     28000   283.49383     -3297.2041      32.613563     -3264.5906      46538.195    
     29000   284.31813     -3296.9519      32.708392     -3264.2435      46538.195    
     30000   286.54015     -3296.8672      32.964017     -3263.9032      46538.195    
     31000   297.77813     -3297.8277      34.256851     -3263.5709      46538.195    
     32000   295.10789     -3297.1969      33.949663     -3263.2472      46538.195    
     33000   292.79703     -3296.6163      33.683817     -3262.9325      46538.195    
     34000   291.3574      -3296.1454      33.518201     -3262.6272      46538.195    
     35000   298.66558     -3296.6923      34.358945     -3262.3334      46538.195    
     36000   296.59391     -3296.17        34.120616     -3262.0493      44392.645    
     37000   290.39362     -3295.1832      33.407326     -3261.7759      44442.775    
     38000   305.73957     -3296.689       35.172747     -3261.5163      43047.668    
     39000   302.20438     -3296.0332      34.766054     -3261.2672      43047.668    
     40000   306.56686     -3296.3008      35.26792      -3261.0329      44583.706    
     41000   310.86317     -3296.5731      35.762175     -3260.8109      44583.706    
     42000   305.65977     -3295.7675      35.163567     -3260.604       45365.426    
     43000   297.67565     -3294.6558      34.245062     -3260.4107      44695.769    
     44000   306.34698     -3295.476       35.242625     -3260.2333      43640.672    
     45000   303.62903     -3295.0018      34.929947     -3260.0718      45746.606    
     46000   316.11047     -3296.2939      36.365832     -3259.9281      43773.407    
     47000   310.1831      -3295.4841      35.683939     -3259.8001      43773.407    
     48000   306.72828     -3294.9775      35.286491     -3259.691       44475.101    
     49000   314.22456     -3295.7483      36.148874     -3259.5994      44475.101    
     50000   307.71786     -3294.9282      35.400333     -3259.5278      45703.587    
Loop time of 45.4841 on 1 procs for 50000 steps with 891 atoms

Performance: 94.978 ns/day, 0.253 hours/ns, 1099.286 timesteps/s
100.0% CPU use with 1 MPI tasks x 1 OpenMP threads

MPI task timing breakdown:
Section |  min time  |  avg time  |  max time  |%varavg| %total
---------------------------------------------------------------
Pair    | 44.472     | 44.472     | 44.472     |   0.0 | 97.78
Neigh   | 0.037254   | 0.037254   | 0.037254   |   0.0 |  0.08
Comm    | 0.007051   | 0.007051   | 0.007051   |   0.0 |  0.02
Output  | 0.13606    | 0.13606    | 0.13606    |   0.0 |  0.30
Modify  | 0.7003     | 0.7003     | 0.7003     |   0.0 |  1.54
Other   |            | 0.1312     |            |       |  0.29

Nlocal:            891 ave         891 max         891 min
Histogram: 1 0 0 0 0 0 0 0 0 0
Nghost:              0 ave           0 max           0 min
Histogram: 1 0 0 0 0 0 0 0 0 0
Neighs:          32651 ave       32651 max       32651 min
Histogram: 1 0 0 0 0 0 0 0 0 0

Total # of neighbors = 32651
Ave neighs/atom = 36.645342
Neighbor list builds = 44
Dangerous builds = 0
Total wall time: 0:00:45
