LAMMPS (15 Sep 2022)
OMP_NUM_THREADS environment is not set. Defaulting to 1 thread. (src/comm.cpp:98)
  using 1 OpenMP thread(s) per MPI task
Loaded 1 plugins from C:\Users\becat\AppData\Local\LAMMPS 64-bit 15Sep2022\plugins
Lattice spacing in x,y,z = 4.079 4.079 4.079
Created orthogonal box = (0 0 0) to (40.79 40.79 40.79)
  1 by 1 by 1 MPI processor grid
Read molecule template np:
  1 molecules
  0 fragments
  490 atoms with max type 1
  0 bonds with max type 0
  0 angles with max type 0
  0 dihedrals with max type 0
  0 impropers with max type 0
Created 490 atoms
  using lattice units in orthogonal box = (9.2891318 7.913397 7.7483435) to (31.500868 32.876603 33.041656)
  create_atoms CPU = 0.000 seconds
Neighbor list info ...
  update: every = 1 steps, delay = 10 steps, check = yes
  max neighbors/atom: 2000, page size: 100000
  master list distance cutoff = 7.55
  ghost atom cutoff = 7.55
  binsize = 3.775, bins = 6 7 7
  1 neighbor lists, perpetual/occasional/extra = 1 0 0
  (1) pair eam, perpetual
      attributes: half, newton on
      pair build: half/bin/atomonly/newton
      stencil: half/bin/3d
      bin: standard
Setting up Verlet run ...
  Unit style    : metal
  Current step  : 0
  Time step     : 0.001
Per MPI rank memory allocation (min/avg/max) = 4.565 | 4.565 | 4.565 Mbytes
   Step          Temp          PotEng         KinEng         TotEng         Volume    
         0   300           -1795.4428      18.962463     -1776.4804      14024.539    
      1000   270.12422     -1793.5366      17.074069     -1776.4625      14024.539    
      2000   283.0273      -1794.2942      17.889649     -1776.4045      14024.539    
      3000   255.38823     -1792.4493      16.142633     -1776.3067      14024.539    
      4000   276.00876     -1793.6149      17.44602      -1776.1689      14024.539    
      5000   262.64149     -1792.5952      16.601098     -1775.9941      14024.539    
      6000   282.1767      -1793.6236      17.835885     -1775.7878      14024.539    
      7000   270.8308      -1792.6819      17.11873      -1775.5632      14024.539    
      8000   269.77399     -1792.3874      17.051932     -1775.3355      14024.539    
      9000   282.64263     -1792.9853      17.865335     -1775.12        14024.539    
     10000   258.72134     -1791.2778      16.353313     -1774.9245      14024.539    
     11000   278.86759     -1792.3773      17.626721     -1774.7506      14024.539    
     12000   288.77742     -1792.8471      18.253104     -1774.594       14024.539    
     13000   281.55033     -1792.245       17.796292     -1774.4487      14024.539    
     14000   282.3997      -1792.1601      17.84998      -1774.3101      14024.539    
     15000   285.25052     -1792.2024      18.030175     -1774.1722      14024.539    
     16000   282.46028     -1791.8847      17.853809     -1774.0309      14024.539    
     17000   283.1617      -1791.7836      17.898144     -1773.8854      14024.539    
     18000   290.02713     -1792.0675      18.332096     -1773.7354      14024.539    
     19000   287.4086      -1791.7464      18.166583     -1773.5798      14024.539    
     20000   274.33613     -1790.7593      17.340296     -1773.419       14024.539    
     21000   279.0815      -1790.8959      17.640243     -1773.2557      14024.539    
     22000   280.7226      -1790.8333      17.743974     -1773.0893      14024.539    
     23000   300.5739      -1791.9224      18.998739     -1772.9236      14024.539    
     24000   302.0492      -1791.8481      19.091989     -1772.7561      14024.539    
     25000   286.88713     -1790.7249      18.133622     -1772.5912      13022.859    
     26000   287.74478     -1790.6172      18.187833     -1772.4293      13286.389    
     27000   298.27979     -1791.1239      18.853732     -1772.2702      12759.49     
     28000   296.17919     -1790.8373      18.720957     -1772.1164      12759.49     
     29000   296.2147      -1790.6918      18.723201     -1771.9686      12759.49     
     30000   291.24658     -1790.2364      18.409175     -1771.8272      12759.49     
     31000   288.13706     -1789.9057      18.212628     -1771.6931      12759.49     
     32000   301.88556     -1790.6451      19.081646     -1771.5635      12759.49     
     33000   289.29202     -1789.7283      18.285631     -1771.4426      13075.727    
     34000   307.05569     -1790.7363      19.408441     -1771.3279      13075.727    
     35000   293.92505     -1789.7979      18.578477     -1771.2194      12927.766    
     36000   303.98515     -1790.3343      19.214358     -1771.12        12927.766    
     37000   295.41238     -1789.7003      18.672488     -1771.0279      13359.722    
     38000   297.18048     -1789.7279      18.784247     -1770.9436      13047.304    
     39000   302.65763     -1789.9987      19.130447     -1770.8683      13047.304    
     40000   309.5018      -1790.3635      19.563055     -1770.8005      12960.048    
     41000   309.37252     -1790.2969      19.554884     -1770.742       12994.889    
     42000   309.78065     -1790.2725      19.580681     -1770.6918      13070.725    
     43000   299.01726     -1789.5514      18.900346     -1770.651       13072.519    
     44000   316.43074     -1790.6204      20.001021     -1770.6194      13055.082    
     45000   314.04414     -1790.4474      19.850168     -1770.5972      12965.348    
     46000   312.70042     -1790.3502      19.765234     -1770.585       13083.517    
     47000   293.01605     -1789.1038      18.52102      -1770.5827      12876.815    
     48000   296.70084     -1789.3448      18.753929     -1770.5909      13212.027    
     49000   310.91331     -1790.263       19.652274     -1770.6107      13212.027    
     50000   315.54905     -1790.5882      19.945291     -1770.6429      13212.027    
Loop time of 32.8038 on 1 procs for 50000 steps with 490 atoms

Performance: 131.692 ns/day, 0.182 hours/ns, 1524.215 timesteps/s
98.8% CPU use with 1 MPI tasks x 1 OpenMP threads

MPI task timing breakdown:
Section |  min time  |  avg time  |  max time  |%varavg| %total
---------------------------------------------------------------
Pair    | 31.963     | 31.963     | 31.963     |   0.0 | 97.44
Neigh   | 0.013968   | 0.013968   | 0.013968   |   0.0 |  0.04
Comm    | 0.013618   | 0.013618   | 0.013618   |   0.0 |  0.04
Output  | 0.10461    | 0.10461    | 0.10461    |   0.0 |  0.32
Modify  | 0.56986    | 0.56986    | 0.56986    |   0.0 |  1.74
Other   |            | 0.1389     |            |       |  0.42

Nlocal:            490 ave         490 max         490 min
Histogram: 1 0 0 0 0 0 0 0 0 0
Nghost:              0 ave           0 max           0 min
Histogram: 1 0 0 0 0 0 0 0 0 0
Neighs:          17300 ave       17300 max       17300 min
Histogram: 1 0 0 0 0 0 0 0 0 0

Total # of neighbors = 17300
Ave neighs/atom = 35.306122
Neighbor list builds = 23
Dangerous builds = 0
Total wall time: 0:00:32
