LAMMPS (15 Sep 2022)
OMP_NUM_THREADS environment is not set. Defaulting to 1 thread. (src/comm.cpp:98)
  using 1 OpenMP thread(s) per MPI task
Loaded 1 plugins from C:\Users\becat\AppData\Local\LAMMPS 64-bit 15Sep2022\plugins
Lattice spacing in x,y,z = 4.079 4.079 4.079
Created orthogonal box = (0 0 0) to (40.79 40.79 40.79)
  1 by 1 by 1 MPI processor grid
Read molecule template np:
  1 molecules
  0 fragments
  711 atoms with max type 1
  0 bonds with max type 0
  0 angles with max type 0
  0 dihedrals with max type 0
  0 impropers with max type 0
Created 711 atoms
  using lattice units in orthogonal box = (7.2787748 6.0802831 5.8976989) to (33.511225 34.709717 34.892301)
  create_atoms CPU = 0.000 seconds
Neighbor list info ...
  update: every = 1 steps, delay = 10 steps, check = yes
  max neighbors/atom: 2000, page size: 100000
  master list distance cutoff = 7.55
  ghost atom cutoff = 7.55
  binsize = 3.775, bins = 7 8 8
  1 neighbor lists, perpetual/occasional/extra = 1 0 0
  (1) pair eam, perpetual
      attributes: half, newton on
      pair build: half/bin/atomonly/newton
      stencil: half/bin/3d
      bin: standard
Setting up Verlet run ...
  Unit style    : metal
  Current step  : 0
  Time step     : 0.001
Per MPI rank memory allocation (min/avg/max) = 4.578 | 4.578 | 4.578 Mbytes
   Step          Temp          PotEng         KinEng         TotEng         Volume    
         0   300           -2631.795       27.532411     -2604.2626      21775.532    
      1000   253.83226     -2627.5181      23.29538      -2604.2227      21775.532    
      2000   248.7512      -2626.9268      22.829067     -2604.0977      21775.532    
      3000   240.5306      -2625.9651      22.074624     -2603.8904      21775.532    
      4000   249.57531     -2626.5138      22.9047       -2603.6091      21775.532    
      5000   250.33002     -2626.2545      22.973963     -2603.2805      21775.532    
      6000   245.18259     -2625.4468      22.501559     -2602.9452      21775.532    
      7000   247.08537     -2625.3088      22.676187     -2602.6326      21775.532    
      8000   252.86134     -2625.5593      23.206274     -2602.353       21775.532    
      9000   249.00401     -2624.9454      22.852269     -2602.0932      21775.532    
     10000   256.07071     -2625.3406      23.500813     -2601.8398      21775.532    
     11000   250.9519      -2624.6089      23.031036     -2601.5779      21775.532    
     12000   258.76392     -2625.0486      23.747981     -2601.3006      21775.532    
     13000   260.48477     -2624.9114      23.905912     -2601.0055      21775.532    
     14000   260.6915      -2624.6171      23.924885     -2600.6922      21775.532    
     15000   261.81492     -2624.3957      24.027987     -2600.3677      21775.532    
     16000   260.83927     -2623.9727      23.938447     -2600.0342      21775.532    
     17000   267.73054     -2624.2657      24.57089      -2599.6948      21775.532    
     18000   270.11059     -2624.1444      24.789319     -2599.3551      21775.532    
     19000   271.68854     -2623.9484      24.934135     -2599.0142      21775.532    
     20000   274.02045     -2623.8242      25.148145     -2598.6761      21775.532    
     21000   266.22827     -2622.7721      24.433021     -2598.3391      21775.532    
     22000   276.90883     -2623.4195      25.413226     -2598.0062      21775.532    
     23000   275.74088     -2622.9813      25.306037     -2597.6753      21775.532    
     24000   284.05686     -2623.4174      26.069234     -2597.3482      21775.532    
     25000   282.09498     -2622.9144      25.889183     -2597.0252      21775.532    
     26000   285.05214     -2622.8644      26.160576     -2596.7038      21775.532    
     27000   273.93025     -2621.5289      25.139868     -2596.389       21775.532    
     28000   285.29567     -2622.2613      26.182926     -2596.0784      21775.532    
     29000   295.49314     -2622.8909      27.118796     -2595.7721      21775.532    
     30000   286.42089     -2621.7581      26.286192     -2595.4719      21775.532    
     31000   302.57151     -2622.9477      27.768411     -2595.1793      21775.532    
     32000   295.22023     -2621.9878      27.093749     -2594.894       21775.532    
     33000   298.45536     -2622.0068      27.390652     -2594.6162      21775.532    
     34000   291.67887     -2621.1157      26.768742     -2594.347       21775.532    
     35000   297.08282     -2621.352       27.264687     -2594.0874      21775.532    
     36000   306.04575     -2621.9238      28.087258     -2593.8366      21775.532    
     37000   287.34761     -2619.9657      26.371241     -2593.5944      21775.532    
     38000   296.36708     -2620.5635      27.199        -2593.3645      21775.532    
     39000   296.27116     -2620.3348      27.190198     -2593.1446      19988.644    
     40000   296.67688     -2620.1633      27.227433     -2592.9358      20476.027    
     41000   306.04023     -2620.8245      28.086751     -2592.7378      20476.027    
     42000   306.17471     -2620.6522      28.099093     -2592.5531      20496.033    
     43000   312.80665     -2621.0895      28.707737     -2592.3817      20275.165    
     44000   304.33576     -2620.1546      27.930324     -2592.2242      20275.165    
     45000   301.92018     -2619.7887      27.708635     -2592.0801      20301.069    
     46000   307.50172     -2620.1699      28.220879     -2591.949       20301.069    
     47000   296.88225     -2619.0796      27.24628      -2591.8333      20308.616    
     48000   306.69787     -2619.8796      28.147106     -2591.7325      20372.32     
     49000   304.7402      -2619.6155      27.967441     -2591.648       20597.689    
     50000   301.37408     -2619.24        27.658516     -2591.5815      20597.689    
Loop time of 35.7768 on 1 procs for 50000 steps with 711 atoms

Performance: 120.749 ns/day, 0.199 hours/ns, 1397.552 timesteps/s
100.0% CPU use with 1 MPI tasks x 1 OpenMP threads

MPI task timing breakdown:
Section |  min time  |  avg time  |  max time  |%varavg| %total
---------------------------------------------------------------
Pair    | 34.989     | 34.989     | 34.989     |   0.0 | 97.80
Neigh   | 0.005583   | 0.005583   | 0.005583   |   0.0 |  0.02
Comm    | 0.005723   | 0.005723   | 0.005723   |   0.0 |  0.02
Output  | 0.10537    | 0.10537    | 0.10537    |   0.0 |  0.29
Modify  | 0.56573    | 0.56573    | 0.56573    |   0.0 |  1.58
Other   |            | 0.1059     |            |       |  0.30

Nlocal:            711 ave         711 max         711 min
Histogram: 1 0 0 0 0 0 0 0 0 0
Nghost:              0 ave           0 max           0 min
Histogram: 1 0 0 0 0 0 0 0 0 0
Neighs:          26149 ave       26149 max       26149 min
Histogram: 1 0 0 0 0 0 0 0 0 0

Total # of neighbors = 26149
Ave neighs/atom = 36.777778
Neighbor list builds = 8
Dangerous builds = 0
Total wall time: 0:00:35
