LAMMPS (15 Sep 2022)
OMP_NUM_THREADS environment is not set. Defaulting to 1 thread. (src/comm.cpp:98)
  using 1 OpenMP thread(s) per MPI task
Loaded 1 plugins from C:\Users\becat\AppData\Local\LAMMPS 64-bit 15Sep2022\plugins
Lattice spacing in x,y,z = 4.079 4.079 4.079
Created orthogonal box = (0 0 0) to (40.79 40.79 40.79)
  1 by 1 by 1 MPI processor grid
Read molecule template np:
  1 molecules
  0 fragments
  38 atoms with max type 1
  0 bonds with max type 0
  0 angles with max type 0
  0 dihedrals with max type 0
  0 impropers with max type 0
Created 38 atoms
  using lattice units in orthogonal box = (15.558575 16.104089 16.260684) to (24.922516 23.77995 24.386593)
  create_atoms CPU = 0.000 seconds
Neighbor list info ...
  update: every = 1 steps, delay = 10 steps, check = yes
  max neighbors/atom: 2000, page size: 100000
  master list distance cutoff = 7.55
  ghost atom cutoff = 7.55
  binsize = 3.775, bins = 3 3 3
  1 neighbor lists, perpetual/occasional/extra = 1 0 0
  (1) pair eam, perpetual
      attributes: half, newton on
      pair build: half/bin/atomonly/newton
      stencil: half/bin/3d
      bin: standard
Setting up Verlet run ...
  Unit style    : metal
  Current step  : 0
  Time step     : 0.001
Per MPI rank memory allocation (min/avg/max) = 4.537 | 4.537 | 4.537 Mbytes
   Step          Temp          PotEng         KinEng         TotEng         Volume    
         0   300           -127.94067      1.4347876     -126.50588      584.06031    
      1000   172.34069     -127.32705      0.82424094    -126.50281      584.06031    
      2000   233.40845     -127.60943      1.1163052     -126.49313      584.06031    
      3000   185.92452     -127.36585      0.88920733    -126.47664      584.06031    
      4000   214.9961      -127.48133      1.0282458     -126.45308      584.06031    
      5000   203.57472     -127.39626      0.97362161    -126.42264      584.06031    
      6000   221.02896     -127.44336      1.0570987     -126.38626      584.06031    
      7000   244.48891     -127.5125       1.1692989     -126.3432       584.06031    
      8000   218.42269     -127.34249      1.0446339     -126.29786      584.06031    
      9000   197.86661     -127.19725      0.94632185    -126.25092      584.06031    
     10000   231.11719     -127.31136      1.1053469     -126.20601      584.06031    
     11000   222.16373     -127.22784      1.0625259     -126.16531      584.06031    
     12000   259.25268     -127.36837      1.2399084     -126.12846      584.06031    
     13000   217.13666     -127.13344      1.0384833     -126.09496      584.06031    
     14000   232.83658     -127.1774       1.1135701     -126.06383      584.06031    
     15000   232.72661     -127.14828      1.1130442     -126.03524      584.06031    
     16000   241.22142     -127.15994      1.1536717     -126.00627      584.06031    
     17000   242.65161     -127.13791      1.1605118     -125.9774       584.06031    
     18000   218.94947     -126.99576      1.0471533     -125.94861      584.06031    
     19000   288.48122     -127.29763      1.3796976     -125.91794      584.06031    
     20000   233.05891     -127.00107      1.1146335     -125.88644      584.06031    
     21000   285.51775     -127.21947      1.3655244     -125.85395      584.06031    
     22000   246.96917     -127.00011      1.181161      -125.81895      584.06031    
     23000   280.57944     -127.12574      1.3419064     -125.78383      584.06031    
     24000   273.8366      -127.05686      1.3096579     -125.7472       584.06031    
     25000   329.34306     -127.28518      1.5751245     -125.71006      584.06031    
     26000   242.99802     -126.83526      1.1621685     -125.6731       584.06031    
     27000   271.51482     -126.93441      1.2985537     -125.63586      584.06031    
     28000   343.9253      -127.24352      1.6448659     -125.59865      584.06031    
     29000   292.72091     -126.96286      1.3999744     -125.56288      584.06031    
     30000   291.89299     -126.92305      1.3960148     -125.52703      584.06031    
     31000   351.41251     -127.17288      1.6806744     -125.4922       584.06031    
     32000   291.565       -126.85298      1.3944462     -125.45854      584.06031    
     33000   307.69307     -126.89855      1.4715807     -125.42697      584.06031    
     34000   294.3083      -126.80286      1.4075664     -125.39529      584.06031    
     35000   287.24184     -126.74046      1.3737701     -125.36669      584.06031    
     36000   334.75402     -126.94073      1.6010031     -125.33973      584.06031    
     37000   343.11746     -126.95544      1.6410022     -125.31443      584.06031    
     38000   399.96183     -127.2046       1.9128676     -125.29173      584.06031    
     39000   332.12707     -126.85818      1.5884394     -125.26974      584.06031    
     40000   319.33617     -126.77728      1.5272653     -125.25002      584.06031    
     41000   303.80225     -126.68545      1.4529723     -125.23247      584.06031    
     42000   325.77936     -126.77562      1.5580806     -125.21754      584.06031    
     43000   306.32812     -126.67018      1.4650526     -125.20512      584.06031    
     44000   329.19693     -126.77005      1.5744256     -125.19563      584.06031    
     45000   305.55072     -126.65008      1.4613346     -125.18874      584.06031    
     46000   330.6084      -126.76558      1.5811761     -125.18441      584.06031    
     47000   313.39337     -126.68188      1.4988431     -125.18304      584.06031    
     48000   279.99055     -126.52284      1.3390899     -125.18375      584.06031    
     49000   356.24918     -126.89077      1.7038064     -125.18696      584.06031    
     50000   312.47116     -126.687        1.4944325     -125.19257      584.06031    
Loop time of 1.73235 on 1 procs for 50000 steps with 38 atoms

Performance: 2493.724 ns/day, 0.010 hours/ns, 28862.544 timesteps/s
98.3% CPU use with 1 MPI tasks x 1 OpenMP threads

MPI task timing breakdown:
Section |  min time  |  avg time  |  max time  |%varavg| %total
---------------------------------------------------------------
Pair    | 1.5691     | 1.5691     | 1.5691     |   0.0 | 90.57
Neigh   | 0          | 0          | 0          |   0.0 |  0.00
Comm    | 0.009122   | 0.009122   | 0.009122   |   0.0 |  0.53
Output  | 0.015042   | 0.015042   | 0.015042   |   0.0 |  0.87
Modify  | 0.11519    | 0.11519    | 0.11519    |   0.0 |  6.65
Other   |            | 0.02392    |            |       |  1.38

Nlocal:             38 ave          38 max          38 min
Histogram: 1 0 0 0 0 0 0 0 0 0
Nghost:              0 ave           0 max           0 min
Histogram: 1 0 0 0 0 0 0 0 0 0
Neighs:            604 ave         604 max         604 min
Histogram: 1 0 0 0 0 0 0 0 0 0

Total # of neighbors = 604
Ave neighs/atom = 15.894737
Neighbor list builds = 0
Dangerous builds = 0
Total wall time: 0:00:01
