LAMMPS (15 Sep 2022)
OMP_NUM_THREADS environment is not set. Defaulting to 1 thread. (src/comm.cpp:98)
  using 1 OpenMP thread(s) per MPI task
Loaded 1 plugins from C:\Users\becat\AppData\Local\LAMMPS 64-bit 15Sep2022\plugins
Lattice spacing in x,y,z = 4.079 4.079 4.079
Created orthogonal box = (0 0 0) to (40.79 40.79 40.79)
  1 by 1 by 1 MPI processor grid
Read molecule template np:
  1 molecules
  0 fragments
  249 atoms with max type 1
  0 bonds with max type 0
  0 angles with max type 0
  0 dihedrals with max type 0
  0 impropers with max type 0
Created 249 atoms
  using lattice units in orthogonal box = (11.113709 10.514648 10.598771) to (29.676291 30.275352 30.191229)
  create_atoms CPU = 0.000 seconds
Neighbor list info ...
  update: every = 1 steps, delay = 10 steps, check = yes
  max neighbors/atom: 2000, page size: 100000
  master list distance cutoff = 7.55
  ghost atom cutoff = 7.55
  binsize = 3.775, bins = 5 6 6
  1 neighbor lists, perpetual/occasional/extra = 1 0 0
  (1) pair eam, perpetual
      attributes: half, newton on
      pair build: half/bin/atomonly/newton
      stencil: half/bin/3d
      bin: standard
Setting up Verlet run ...
  Unit style    : metal
  Current step  : 0
  Time step     : 0.001
Per MPI rank memory allocation (min/avg/max) = 4.551 | 4.551 | 4.551 Mbytes
   Step          Temp          PotEng         KinEng         TotEng         Volume    
         0   300           -883.30024      9.6169548     -873.68329      7186.7035    
      1000   372.49161     -885.6464       11.940783     -873.70562      7186.7035    
      2000   344.85099     -884.82288      11.054721     -873.76816      7186.7035    
      3000   369.36909     -885.7106       11.840686     -873.86992      6417.1219    
      4000   325.92798     -884.45852      10.448115     -874.0104       6191.6857    
      5000   354.38546     -885.54522      11.360363     -874.18486      6178.4151    
      6000   344.3801      -885.42451      11.039626     -874.38489      6678.4213    
      7000   349.28907     -885.79695      11.196991     -874.59996      6288.7399    
      8000   331.91034     -885.44801      10.639889     -874.80812      6428.0327    
      9000   325.78127     -885.44199      10.443412     -874.99858      6351.1928    
     10000   335.08484     -885.90941      10.741652     -875.16776      6299.9488    
     11000   331.52003     -885.94674      10.627377     -875.31936      6030.8041    
     12000   309.83785     -885.38603      9.9323221     -875.45371      6121.5251    
     13000   338.81756     -886.44216      10.86131      -875.58085      6000.7606    
     14000   320.16774     -885.96998      10.263462     -875.70652      6138.5498    
     15000   324.4995      -886.23613      10.402323     -875.83381      6177.1015    
     16000   334.62738     -886.69015      10.726988     -875.96316      5966.0352    
     17000   321.52423     -886.40636      10.306947     -876.09942      6051.5585    
     18000   317.65797     -886.42777      10.183008     -876.24476      6023.4998    
     19000   319.10088     -886.6277       10.229263     -876.39843      6241.3729    
     20000   320.71833     -886.836        10.281112     -876.55488      6048.6227    
     21000   325.57934     -887.15303      10.436939     -876.7161       6228.1339    
     22000   325.78934     -887.31739      10.443671     -876.87372      5779.3494    
     23000   322.27704     -887.36044      10.331079     -877.02936      5990.7362    
     24000   323.12135     -887.53701      10.358145     -877.17887      6172.4265    
     25000   300.20277     -886.94749      9.623455      -877.32403      6106.0849    
     26000   342.45019     -888.44208      10.97776      -877.46432      5965.6709    
     27000   305.56575     -887.39193      9.7953732     -877.59655      5807.1737    
     28000   320.23026     -887.9899       10.265467     -877.72444      6010.6313    
     29000   311.2507      -887.82695      9.977613      -877.84934      5939.1718    
     30000   296.24651     -887.46637      9.4966311     -877.96974      5783.3103    
     31000   297.77837     -887.62808      9.545737      -878.08235      5763.1264    
     32000   304.22621     -887.94191      9.7524324     -878.18947      5934.6763    
     33000   304.38598     -888.04733      9.757554      -878.28977      5979.6694    
     34000   319.33217     -888.62258      10.236677     -878.3859       6068.5455    
     35000   285.57267     -887.63052      9.154465      -878.47606      6040.7926    
     36000   276.55341     -887.42685      8.8653389     -878.56151      5987.8642    
     37000   288.15562     -887.87909      9.2372652     -878.64183      6144.2608    
     38000   281.82953     -887.75088      9.0344728     -878.71641      6160.8492    
     39000   274.34232     -887.58125      8.7944588     -878.78679      6076.0588    
     40000   314.84058     -888.94465      10.092692     -878.85196      6114.827     
     41000   275.21254     -887.73658      8.822355      -878.91423      5911.4484    
     42000   306.99085     -888.81414      9.841057      -878.97308      6044.9226    
     43000   319.6685      -889.28042      10.247459     -879.03296      6053.7266    
     44000   276.49667     -887.95531      8.8635199     -879.09179      6364.7659    
     45000   287.18489     -888.35782      9.2061472     -879.15168      6070.1007    
     46000   287.56761     -888.4285       9.2184156     -879.21008      6420.1316    
     47000   307.17725     -889.11618      9.8470325     -879.26915      6196.6533    
     48000   310.05206     -889.26808      9.9391888     -879.32889      6212.8886    
     49000   281.67448     -888.41702      9.0295026     -879.38752      6117.0772    
     50000   272.35887     -888.17517      8.7308766     -879.44429      6255.2935    
Loop time of 15.7336 on 1 procs for 50000 steps with 249 atoms

Performance: 274.571 ns/day, 0.087 hours/ns, 3177.908 timesteps/s
99.5% CPU use with 1 MPI tasks x 1 OpenMP threads

MPI task timing breakdown:
Section |  min time  |  avg time  |  max time  |%varavg| %total
---------------------------------------------------------------
Pair    | 15.264     | 15.264     | 15.264     |   0.0 | 97.02
Neigh   | 0.021693   | 0.021693   | 0.021693   |   0.0 |  0.14
Comm    | 0.009893   | 0.009893   | 0.009893   |   0.0 |  0.06
Output  | 0.055347   | 0.055347   | 0.055347   |   0.0 |  0.35
Modify  | 0.31612    | 0.31612    | 0.31612    |   0.0 |  2.01
Other   |            | 0.06641    |            |       |  0.42

Nlocal:            249 ave         249 max         249 min
Histogram: 1 0 0 0 0 0 0 0 0 0
Nghost:              0 ave           0 max           0 min
Histogram: 1 0 0 0 0 0 0 0 0 0
Neighs:           7913 ave        7913 max        7913 min
Histogram: 1 0 0 0 0 0 0 0 0 0

Total # of neighbors = 7913
Ave neighs/atom = 31.779116
Neighbor list builds = 87
Dangerous builds = 0
Total wall time: 0:00:15
