LAMMPS (15 Sep 2022)
OMP_NUM_THREADS environment is not set. Defaulting to 1 thread. (src/comm.cpp:98)
  using 1 OpenMP thread(s) per MPI task
Loaded 1 plugins from C:\Users\becat\AppData\Local\LAMMPS 64-bit 15Sep2022\plugins
Lattice spacing in x,y,z = 4.079 4.079 4.079
Created orthogonal box = (0 0 0) to (40.79 40.79 40.79)
  1 by 1 by 1 MPI processor grid
Read molecule template np:
  1 molecules
  0 fragments
  1289 atoms with max type 1
  0 bonds with max type 0
  0 angles with max type 0
  0 dihedrals with max type 0
  0 impropers with max type 0
Created 1289 atoms
  using lattice units in orthogonal box = (3.2580607 2.4140552 2.1964188) to (37.531939 38.375945 38.593581)
  create_atoms CPU = 0.000 seconds
Neighbor list info ...
  update: every = 1 steps, delay = 10 steps, check = yes
  max neighbors/atom: 2000, page size: 100000
  master list distance cutoff = 7.55
  ghost atom cutoff = 7.55
  binsize = 3.775, bins = 10 10 10
  1 neighbor lists, perpetual/occasional/extra = 1 0 0
  (1) pair eam, perpetual
      attributes: half, newton on
      pair build: half/bin/atomonly/newton
      stencil: half/bin/3d
      bin: standard
Setting up Verlet run ...
  Unit style    : metal
  Current step  : 0
  Time step     : 0.001
Per MPI rank memory allocation (min/avg/max) = 4.614 | 4.614 | 4.614 Mbytes
   Step          Temp          PotEng         KinEng         TotEng         Volume    
         0   300           -4830.1689      49.94612      -4780.2228      44861.448    
      1000   223.9401      -4817.4084      37.283131     -4780.1253      44861.448    
      2000   226.95317     -4817.6176      37.784768     -4779.8328      44861.448    
      3000   215.58437     -4815.262       35.89201      -4779.3699      44861.448    
      4000   213.18542     -4814.3122      35.492615     -4778.8196      44861.448    
      5000   220.93991     -4815.0715      36.783637     -4778.2879      44861.448    
      6000   229.28872     -4815.9851      38.173607     -4777.8115      44861.448    
      7000   224.56632     -4814.7448      37.387387     -4777.3574      40664.993    
      8000   223.00861     -4814.0035      37.128049     -4776.8754      40664.993    
      9000   228.09306     -4814.3273      37.974545     -4776.3527      41447.151    
     10000   237.26724     -4815.2852      39.501927     -4775.7833      41447.151    
     11000   234.78647     -4814.2678      39.088911     -4775.1789      41668.079    
     12000   239.97407     -4814.5086      39.952579     -4774.556       41668.079    
     13000   242.34778     -4814.2635      40.347772     -4773.9157      41668.079    
     14000   236.35665     -4812.6166      39.350325     -4773.2663      41668.079    
     15000   236.148       -4811.923       39.315587     -4772.6074      41668.079    
     16000   240.16033     -4811.9255      39.983588     -4771.9419      41668.079    
     17000   237.25796     -4810.7712      39.500383     -4771.2708      41668.079    
     18000   249.16192     -4812.0751      41.482237     -4770.5929      41668.079    
     19000   254.52656     -4812.2821      42.375381     -4769.9067      41668.079    
     20000   242.61714     -4809.6129      40.392617     -4769.2202      41668.079    
     21000   244.10811     -4809.1665      40.640843     -4768.5256      41668.079    
     22000   249.65229     -4809.3918      41.563878     -4767.8279      41668.079    
     23000   253.16065     -4809.2807      42.147974     -4767.1327      41668.079    
     24000   257.14847     -4809.2452      42.811895     -4766.4333      41668.079    
     25000   264.47618     -4809.7719      44.031863     -4765.7401      41668.079    
     26000   264.59376     -4809.0958      44.051439     -4765.0444      41668.079    
     27000   265.20148     -4808.5037      44.152616     -4764.3511      41668.079    
     28000   262.59191     -4807.3786      43.718157     -4763.6604      41668.079    
     29000   270.7618      -4808.0502      45.078339     -4762.9718      41632.307    
     30000   279.32576     -4808.7939      46.504126     -4762.2898      41801.092    
     31000   272.51292     -4806.9846      45.369877     -4761.6147      41801.092    
     32000   283.73986     -4808.1826      47.239016     -4760.9436      41801.092    
     33000   283.78881     -4807.5303      47.247167     -4760.2831      41993.522    
     34000   287.07437     -4807.4214      47.794169     -4759.6272      41993.522    
     35000   280.18205     -4805.6255      46.646687     -4758.9788      42685.845    
     36000   279.40565     -4804.8588      46.517427     -4758.3413      42685.845    
     37000   280.97354     -4804.4937      46.778461     -4757.7152      43066.132    
     38000   283.97265     -4804.3773      47.277773     -4757.0996      43066.132    
     39000   289.28192     -4804.6594      48.161698     -4756.4977      42831.037    
     40000   292.12458     -4804.5445      48.634965     -4755.9096      41380.201    
     41000   296.41686     -4804.6828      49.349574     -4755.3332      42032.78     
     42000   283.59288     -4801.9877      47.214547     -4754.7732      41283.721    
     43000   291.09688     -4802.6925      48.463866     -4754.2286      41283.721    
     44000   297.28021     -4803.1976      49.49331      -4753.7043      41986.584    
     45000   291.41368     -4801.7118      48.516608     -4753.1952      41986.584    
     46000   293.48664     -4801.5681      48.86173      -4752.7064      41693.469    
     47000   295.77892     -4801.4817      49.243365     -4752.2384      41950.214    
     48000   305.15132     -4802.5932      50.803748     -4751.7895      41950.214    
     49000   297.44337     -4800.8846      49.520475     -4751.3641      41332.56     
     50000   306.02757     -4801.9111      50.949632     -4750.9614      41332.56     
Loop time of 101.766 on 1 procs for 50000 steps with 1289 atoms

Performance: 42.450 ns/day, 0.565 hours/ns, 491.321 timesteps/s
99.8% CPU use with 1 MPI tasks x 1 OpenMP threads

MPI task timing breakdown:
Section |  min time  |  avg time  |  max time  |%varavg| %total
---------------------------------------------------------------
Pair    | 99.646     | 99.646     | 99.646     |   0.0 | 97.92
Neigh   | 0.037408   | 0.037408   | 0.037408   |   0.0 |  0.04
Comm    | 0.011887   | 0.011887   | 0.011887   |   0.0 |  0.01
Output  | 0.28439    | 0.28439    | 0.28439    |   0.0 |  0.28
Modify  | 1.5087     | 1.5087     | 1.5087     |   0.0 |  1.48
Other   |            | 0.2784     |            |       |  0.27

Nlocal:           1289 ave        1289 max        1289 min
Histogram: 1 0 0 0 0 0 0 0 0 0
Nghost:              0 ave           0 max           0 min
Histogram: 1 0 0 0 0 0 0 0 0 0
Neighs:          49835 ave       49835 max       49835 min
Histogram: 1 0 0 0 0 0 0 0 0 0

Total # of neighbors = 49835
Ave neighs/atom = 38.661753
Neighbor list builds = 19
Dangerous builds = 0
Total wall time: 0:01:41
