LAMMPS (15 Sep 2022)
OMP_NUM_THREADS environment is not set. Defaulting to 1 thread. (src/comm.cpp:98)
  using 1 OpenMP thread(s) per MPI task
Loaded 1 plugins from C:\Users\becat\AppData\Local\LAMMPS 64-bit 15Sep2022\plugins
Lattice spacing in x,y,z = 4.079 4.079 4.079
Created orthogonal box = (0 0 0) to (40.79 40.79 40.79)
  1 by 1 by 1 MPI processor grid
Read molecule template np:
  1 molecules
  0 fragments
  1925 atoms with max type 1
  0 bonds with max type 0
  0 angles with max type 0
  0 dihedrals with max type 0
  0 impropers with max type 0
Created 1925 atoms
  using lattice units in orthogonal box = (0.98520264 -0.24704831 -0.50156668) to (39.804797 41.037048 41.291567)
  create_atoms CPU = 0.000 seconds
Neighbor list info ...
  update: every = 1 steps, delay = 10 steps, check = yes
  max neighbors/atom: 2000, page size: 100000
  master list distance cutoff = 7.55
  ghost atom cutoff = 7.55
  binsize = 3.775, bins = 11 11 12
  1 neighbor lists, perpetual/occasional/extra = 1 0 0
  (1) pair eam, perpetual
      attributes: half, newton on
      pair build: half/bin/atomonly/newton
      stencil: half/bin/3d
      bin: standard
Setting up Verlet run ...
  Unit style    : metal
  Current step  : 0
  Time step     : 0.001
Per MPI rank memory allocation (min/avg/max) = 4.652 | 4.652 | 4.652 Mbytes
   Step          Temp          PotEng         KinEng         TotEng         Volume    
         0   300           -7259.2618      74.608956     -7184.6528      66979.009    
      1000   210.52635     -7236.8491      52.35717      -7184.4919      66979.009    
      2000   205.1561      -7235.043       51.021607     -7184.0213      66979.009    
      3000   204.73578     -7234.2329      50.917077     -7183.3158      66979.009    
      4000   208.86617     -7234.5178      51.94429      -7182.5735      66979.009    
      5000   208.45002     -7233.7473      51.840793     -7181.9065      66979.009    
      6000   214.8357      -7234.7032      53.428891     -7181.2743      66979.009    
      7000   217.39522     -7234.6603      54.065434     -7180.5949      66979.009    
      8000   210.21309     -7232.1135      52.279263     -7179.8343      66979.009    
      9000   216.87696     -7232.9389      53.936545     -7179.0023      66979.009    
     10000   223.37757     -7233.6855      55.553225     -7178.1323      66979.009    
     11000   223.76681     -7232.8885      55.650027     -7177.2385      66979.009    
     12000   216.70823     -7230.2185      53.894582     -7176.3239      66979.009    
     13000   225.85928     -7231.5548      56.170417     -7175.3844      66979.009    
     14000   222.33195     -7229.7232      55.293181     -7174.43        66979.009    
     15000   229.23235     -7230.4713      57.009286     -7173.462       66979.009    
     16000   228.02265     -7229.1872      56.70844      -7172.4788      66979.009    
     17000   227.24861     -7227.9917      56.515938     -7171.4758      66979.009    
     18000   236.11528     -7229.1872      58.721048     -7170.4661      66979.009    
     19000   238.7708      -7228.8285      59.381466     -7169.4471      66979.009    
     20000   235.6677      -7227.026       58.609737     -7168.4162      66979.009    
     21000   239.56189     -7226.9536      59.578209     -7167.3754      66979.009    
     22000   245.36976     -7227.3515      61.022604     -7166.3289      66979.009    
     23000   248.84288     -7227.167       61.886359     -7165.2806      66979.009    
     24000   247.81974     -7225.8559      61.631907     -7164.224       66979.009    
     25000   251.07081     -7225.6014      62.440436     -7163.161       66979.009    
     26000   250.83879     -7224.479       62.382734     -7162.0962      66979.009    
     27000   257.62943     -7225.1067      64.071543     -7161.0352      66979.009    
     28000   254.71202     -7223.3167      63.345994     -7159.9707      66979.009    
     29000   245.19997     -7219.8834      60.98038      -7158.903       66979.009    
     30000   262.89964     -7223.2225      65.382227     -7157.8403      66979.009    
     31000   261.67023     -7221.8593      65.076476     -7156.7828      66979.009    
     32000   254.14246     -7218.9325      63.204345     -7155.7282      66979.009    
     33000   262.73486     -7220.016       65.341244     -7154.6748      66979.009    
     34000   269.66212     -7220.6943      67.064031     -7153.6302      66979.009    
     35000   271.12622     -7220.0218      67.428147     -7152.5936      66979.009    
     36000   263.44774     -7217.0816      65.518537     -7151.5631      66979.009    
     37000   276.30742     -7219.2599      68.716695     -7150.5432      66979.009    
     38000   278.92594     -7218.8985      69.367911     -7149.5305      66979.009    
     39000   269.7499      -7215.6178      67.085862     -7148.532       66979.009    
     40000   271.64104     -7215.1036      67.55618      -7147.5474      66979.009    
     41000   283.90997     -7217.1806      70.60742      -7146.5731      66979.009    
     42000   282.53107     -7215.8786      70.264493     -7145.6141      63070.231    
     43000   282.59336     -7214.9542      70.279984     -7144.6742      63070.231    
     44000   290.99977     -7216.1208      72.37063      -7143.7502      63070.231    
     45000   287.44835     -7214.3301      71.487403     -7142.8426      63070.231    
     46000   291.66922     -7214.4942      72.537119     -7141.9571      63070.231    
     47000   293.87418     -7214.1797      73.085485     -7141.0942      63070.231    
     48000   288.68731     -7212.0481      71.795529     -7140.2526      63070.231    
     49000   298.96404     -7213.7842      74.351317     -7139.4328      63070.231    
     50000   293.87531     -7211.726       73.085767     -7138.6402      63070.231    
Loop time of 243.827 on 1 procs for 50000 steps with 1925 atoms

Performance: 17.717 ns/day, 1.355 hours/ns, 205.063 timesteps/s
95.6% CPU use with 1 MPI tasks x 1 OpenMP threads

MPI task timing breakdown:
Section |  min time  |  avg time  |  max time  |%varavg| %total
---------------------------------------------------------------
Pair    | 238.42     | 238.42     | 238.42     |   0.0 | 97.78
Neigh   | 0.005077   | 0.005077   | 0.005077   |   0.0 |  0.00
Comm    | 0.047306   | 0.047306   | 0.047306   |   0.0 |  0.02
Output  | 0.73702    | 0.73702    | 0.73702    |   0.0 |  0.30
Modify  | 3.8301     | 3.8301     | 3.8301     |   0.0 |  1.57
Other   |            | 0.7843     |            |       |  0.32

Nlocal:           1925 ave        1925 max        1925 min
Histogram: 1 0 0 0 0 0 0 0 0 0
Nghost:              0 ave           0 max           0 min
Histogram: 1 0 0 0 0 0 0 0 0 0
Neighs:          77119 ave       77119 max       77119 min
Histogram: 1 0 0 0 0 0 0 0 0 0

Total # of neighbors = 77119
Ave neighs/atom = 40.061818
Neighbor list builds = 1
Dangerous builds = 0
Total wall time: 0:04:03
