LAMMPS (15 Sep 2022)
OMP_NUM_THREADS environment is not set. Defaulting to 1 thread. (src/comm.cpp:98)
  using 1 OpenMP thread(s) per MPI task
Loaded 1 plugins from C:\Users\becat\AppData\Local\LAMMPS 64-bit 15Sep2022\plugins
Lattice spacing in x,y,z = 4.079 4.079 4.079
Created orthogonal box = (0 0 0) to (40.79 40.79 40.79)
  1 by 1 by 1 MPI processor grid
Read molecule template np:
  1 molecules
  0 fragments
  600 atoms with max type 1
  0 bonds with max type 0
  0 angles with max type 0
  0 dihedrals with max type 0
  0 impropers with max type 0
Created 600 atoms
  using lattice units in orthogonal box = (7.7168056 6.790576 5.6906714) to (33.040808 34.118308 35.688568)
  create_atoms CPU = 0.000 seconds
Neighbor list info ...
  update: every = 1 steps, delay = 10 steps, check = yes
  max neighbors/atom: 2000, page size: 100000
  master list distance cutoff = 7.55
  ghost atom cutoff = 7.55
  binsize = 3.775, bins = 7 8 8
  1 neighbor lists, perpetual/occasional/extra = 1 0 0
  (1) pair eam, perpetual
      attributes: half, newton on
      pair build: half/bin/atomonly/newton
      stencil: half/bin/3d
      bin: standard
Setting up Verlet run ...
  Unit style    : metal
  Current step  : 0
  Time step     : 0.001
Per MPI rank memory allocation (min/avg/max) = 4.573 | 4.573 | 4.573 Mbytes
   Step          Temp          PotEng         KinEng         TotEng         Volume    
         0   300           -2212.5474      23.228048     -2189.3193      20759.971    
      1000   266.39489     -2209.918       20.626111     -2189.2919      20759.971    
      2000   264.75167     -2209.704       20.498882     -2189.2051      20759.971    
      3000   246.58676     -2208.1527      19.092431     -2189.0603      20759.971    
      4000   260.60183     -2209.0371      20.177573     -2188.8595      20759.971    
      5000   259.80921     -2208.7269      20.116203     -2188.6107      20759.971    
      6000   255.38333     -2208.1083      19.773521     -2188.3348      20759.971    
      7000   250.6195      -2207.462       19.404673     -2188.0573      18431.538    
      8000   279.41742     -2209.4315      21.634404     -2187.7971      18431.538    
      9000   250.10288     -2206.9279      19.364672     -2187.5632      18431.538    
     10000   260.49158     -2207.5211      20.169036     -2187.352       18970.635    
     11000   261.78274     -2207.4221      20.269007     -2187.1531      18970.635    
     12000   276.57998     -2208.374       21.414711     -2186.9593      18970.635    
     13000   265.09583     -2207.2868      20.525529     -2186.7613      18970.635    
     14000   279.08752     -2208.1649      21.608861     -2186.5561      18970.635    
     15000   281.97798     -2208.1727      21.83266      -2186.3401      18970.635    
     16000   270.71693     -2207.0743      20.960753     -2186.1136      18970.635    
     17000   276.2597      -2207.2685      21.389912     -2185.8786      18970.635    
     18000   277.54382     -2207.1243      21.489337     -2185.635       18970.635    
     19000   282.91137     -2207.2934      21.90493      -2185.3884      18970.635    
     20000   273.12209     -2206.2882      21.146977     -2185.1412      18970.635    
     21000   279.19673     -2206.5108      21.617317     -2184.8934      18970.635    
     22000   278.25437     -2206.1928      21.544353     -2184.6484      18970.635    
     23000   288.21603     -2206.7212      22.315652     -2184.4055      19119.046    
     24000   277.32628     -2205.6401      21.472494     -2184.1676      19119.046    
     25000   289.65546     -2206.3632      22.427103     -2183.9361      19119.046    
     26000   279.66182     -2205.3628      21.653327     -2183.7095      19119.046    
     27000   302.85486     -2206.9372      23.44909      -2183.4882      19119.046    
     28000   303.50653     -2206.7721      23.499548     -2183.2726      18905.659    
     29000   299.33679     -2206.239       23.176698     -2183.0623      18855.349    
     30000   298.69028     -2205.9857      23.126641     -2182.8591      18855.349    
     31000   288.92946     -2205.033       22.370891     -2182.6622      18884.561    
     32000   310.85836     -2206.5415      24.068777     -2182.4727      19361.792    
     33000   303.72463     -2205.8062      23.516435     -2182.2897      18864.491    
     34000   304.39062     -2205.6828      23.568        -2182.1148      18864.491    
     35000   292.4797      -2204.5952      22.645775     -2181.9494      19508.599    
     36000   302.26243     -2205.1953      23.403221     -2181.7921      19508.599    
     37000   306.90944     -2205.4062      23.763024     -2181.6432      19508.599    
     38000   303.40863     -2204.9956      23.491967     -2181.5036      19508.599    
     39000   302.05892     -2204.7616      23.387464     -2181.3742      18909.21     
     40000   301.50292     -2204.5996      23.344414     -2181.2552      18955.249    
     41000   299.00654     -2204.2973      23.151127     -2181.1462      18955.249    
     42000   289.14432     -2203.4353      22.387527     -2181.0478      18955.249    
     43000   300.46584     -2204.2243      23.264117     -2180.9602      18955.249    
     44000   311.20855     -2204.9806      24.095891     -2180.8847      19541.037    
     45000   304.38486     -2204.3882      23.567554     -2180.8207      18848.247    
     46000   302.14919     -2204.1636      23.394453     -2180.7692      18848.247    
     47000   302.92361     -2204.1848      23.454414     -2180.7304      19312.623    
     48000   309.2306      -2204.6479      23.942744     -2180.7051      18893.617    
     49000   304.90176     -2204.3007      23.607576     -2180.6932      19026.576    
     50000   304.29641     -2204.2556      23.560705     -2180.6949      19026.576    
Loop time of 30.1055 on 1 procs for 50000 steps with 600 atoms

Performance: 143.495 ns/day, 0.167 hours/ns, 1660.828 timesteps/s
99.9% CPU use with 1 MPI tasks x 1 OpenMP threads

MPI task timing breakdown:
Section |  min time  |  avg time  |  max time  |%varavg| %total
---------------------------------------------------------------
Pair    | 29.416     | 29.416     | 29.416     |   0.0 | 97.71
Neigh   | 0.009512   | 0.009512   | 0.009512   |   0.0 |  0.03
Comm    | 0.006524   | 0.006524   | 0.006524   |   0.0 |  0.02
Output  | 0.091089   | 0.091089   | 0.091089   |   0.0 |  0.30
Modify  | 0.48993    | 0.48993    | 0.48993    |   0.0 |  1.63
Other   |            | 0.09262    |            |       |  0.31

Nlocal:            600 ave         600 max         600 min
Histogram: 1 0 0 0 0 0 0 0 0 0
Nghost:              0 ave           0 max           0 min
Histogram: 1 0 0 0 0 0 0 0 0 0
Neighs:          21408 ave       21408 max       21408 min
Histogram: 1 0 0 0 0 0 0 0 0 0

Total # of neighbors = 21408
Ave neighs/atom = 35.68
Neighbor list builds = 17
Dangerous builds = 0
Total wall time: 0:00:30
