LAMMPS (15 Sep 2022)
OMP_NUM_THREADS environment is not set. Defaulting to 1 thread. (src/comm.cpp:98)
  using 1 OpenMP thread(s) per MPI task
Loaded 1 plugins from C:\Users\becat\AppData\Local\LAMMPS 64-bit 15Sep2022\plugins
Lattice spacing in x,y,z = 4.079 4.079 4.079
Created orthogonal box = (0 0 0) to (40.79 40.79 40.79)
  1 by 1 by 1 MPI processor grid
Read molecule template np:
  1 molecules
  0 fragments
  309 atoms with max type 1
  0 bonds with max type 0
  0 angles with max type 0
  0 dihedrals with max type 0
  0 impropers with max type 0
Created 309 atoms
  using lattice units in orthogonal box = (9.9088485 9.3296426 9.922107) to (29.141992 31.376564 30.867893)
  create_atoms CPU = 0.000 seconds
Neighbor list info ...
  update: every = 1 steps, delay = 10 steps, check = yes
  max neighbors/atom: 2000, page size: 100000
  master list distance cutoff = 7.55
  ghost atom cutoff = 7.55
  binsize = 3.775, bins = 6 6 6
  1 neighbor lists, perpetual/occasional/extra = 1 0 0
  (1) pair eam, perpetual
      attributes: half, newton on
      pair build: half/bin/atomonly/newton
      stencil: half/bin/3d
      bin: standard
Setting up Verlet run ...
  Unit style    : metal
  Current step  : 0
  Time step     : 0.001
Per MPI rank memory allocation (min/avg/max) = 4.554 | 4.554 | 4.554 Mbytes
   Step          Temp          PotEng         KinEng         TotEng         Volume    
         0   300           -1110.8372      11.943637     -1098.8936      8881.6751    
      1000   372.09384     -1113.7275      14.813846     -1098.9137      7666.701     
      2000   335.24862     -1112.3192      13.34696      -1098.9722      7666.701     
      3000   320.44191     -1111.8249      12.757473     -1099.0675      8157.192     
      4000   319.15074     -1111.9028      12.706069     -1099.1967      7695.7891    
      5000   330.6294      -1112.5189      13.163059     -1099.3558      7695.7891    
      6000   299.00262     -1111.4442      11.90393      -1099.5403      8131.0572    
      7000   333.9824      -1113.0334      13.296549     -1099.7369      7884.3411    
      8000   332.0222      -1113.1569      13.218509     -1099.9384      8042.7332    
      9000   324.50885     -1113.0486      12.919387     -1100.1292      7724.0727    
     10000   328.5902      -1113.3876      13.081874     -1100.3057      7990.4769    
     11000   311.80074     -1112.8724      12.41345      -1100.4589      7938.9264    
     12000   309.72188     -1112.9243      12.330686     -1100.5937      7837.5682    
     13000   309.52117     -1113.0342      12.322696     -1100.7115      7748.9765    
     14000   327.57792     -1113.8599      13.041573     -1100.8183      8091.949     
     15000   299.67776     -1112.8481      11.930808     -1100.9173      8060.3246    
     16000   302.85396     -1113.0704      12.05726      -1101.0131      8025.6153    
     17000   296.09517     -1112.8949      11.788178     -1101.1068      7981.3941    
     18000   322.99419     -1114.0599      12.859085     -1101.2008      8122.4031    
     19000   317.54294     -1113.935       12.642059     -1101.293       8012.2782    
     20000   289.48953     -1112.9128      11.525193     -1101.3876      7949.762     
     21000   307.02185     -1113.7056      12.223192     -1101.4824      7994.5134    
     22000   305.57135     -1113.7427      12.165445     -1101.5772      8016.1523    
     23000   322.02369     -1114.4934      12.820447     -1101.673       7991.4676    
     24000   301.59746     -1113.7768      12.007236     -1101.7696      7858.7392    
     25000   324.55065     -1114.7883      12.921051     -1101.8673      7954.3807    
     26000   306.3186      -1114.1585      12.195194     -1101.9633      8015.9179    
     27000   306.10316     -1114.245       12.186617     -1102.0584      8068.9714    
     28000   285.29754     -1113.5096      11.358301     -1102.1513      8066.513     
     29000   288.57007     -1113.7298      11.488588     -1102.2412      8005.3981    
     30000   301.12928     -1114.3156      11.988596     -1102.327       7875.703     
     31000   299.7334      -1114.3431      11.933023     -1102.4101      7934.0082    
     32000   303.57816     -1114.5741      12.086091     -1102.488       7884.6424    
     33000   284.89255     -1113.9048      11.342178     -1102.5626      7905.7961    
     34000   289.60496     -1114.1608      11.529789     -1102.6311      7797.0703    
     35000   314.53337     -1115.218       12.522242     -1102.6958      8033.2688    
     36000   296.84051     -1114.5725      11.817851     -1102.7546      8041.9841    
     37000   312.07746     -1115.2321      12.424467     -1102.8076      8051.7644    
     38000   296.52369     -1114.6601      11.805238     -1102.8548      7923.1684    
     39000   284.03        -1114.2045      11.307838     -1102.8967      8028.4916    
     40000   307.69805     -1115.1829      12.250113     -1102.9328      7811.0944    
     41000   282.91678     -1114.2262      11.263518     -1102.9627      7769.2102    
     42000   306.05433     -1115.1707      12.184673     -1102.986       8058.7332    
     43000   300.18725     -1114.954       11.951092     -1103.0029      8021.4585    
     44000   296.47095     -1114.8167      11.803138     -1103.0136      8011.5478    
     45000   272.08323     -1113.8498      10.832211     -1103.0176      7982.5994    
     46000   294.82198     -1114.7515      11.73749      -1103.014       8027.2518    
     47000   296.80813     -1114.8187      11.816562     -1103.0021      7887.4357    
     48000   305.85749     -1115.1588      12.176837     -1102.982       7949.4027    
     49000   276.56088     -1113.9634      11.010476     -1102.9529      8041.6694    
     50000   289.64675     -1114.4453      11.531453     -1102.9139      7754.8176    
Loop time of 20.8627 on 1 procs for 50000 steps with 309 atoms

Performance: 207.068 ns/day, 0.116 hours/ns, 2396.616 timesteps/s
99.0% CPU use with 1 MPI tasks x 1 OpenMP threads

MPI task timing breakdown:
Section |  min time  |  avg time  |  max time  |%varavg| %total
---------------------------------------------------------------
Pair    | 20.269     | 20.269     | 20.269     |   0.0 | 97.15
Neigh   | 0.032476   | 0.032476   | 0.032476   |   0.0 |  0.16
Comm    | 0.011486   | 0.011486   | 0.011486   |   0.0 |  0.06
Output  | 0.07048    | 0.07048    | 0.07048    |   0.0 |  0.34
Modify  | 0.39633    | 0.39633    | 0.39633    |   0.0 |  1.90
Other   |            | 0.08302    |            |       |  0.40

Nlocal:            309 ave         309 max         309 min
Histogram: 1 0 0 0 0 0 0 0 0 0
Nghost:              0 ave           0 max           0 min
Histogram: 1 0 0 0 0 0 0 0 0 0
Neighs:          10319 ave       10319 max       10319 min
Histogram: 1 0 0 0 0 0 0 0 0 0

Total # of neighbors = 10319
Ave neighs/atom = 33.394822
Neighbor list builds = 80
Dangerous builds = 0
Total wall time: 0:00:20
