LAMMPS (15 Sep 2022)
OMP_NUM_THREADS environment is not set. Defaulting to 1 thread. (src/comm.cpp:98)
  using 1 OpenMP thread(s) per MPI task
Loaded 1 plugins from C:\Users\becat\AppData\Local\LAMMPS 64-bit 15Sep2022\plugins
Lattice spacing in x,y,z = 4.079 4.079 4.079
Created orthogonal box = (0 0 0) to (40.79 40.79 40.79)
  1 by 1 by 1 MPI processor grid
Read molecule template np:
  1 molecules
  0 fragments
  7 atoms with max type 1
  0 bonds with max type 0
  0 angles with max type 0
  0 dihedrals with max type 0
  0 impropers with max type 0
Created 7 atoms
  using lattice units in orthogonal box = (17.905972 18.211077 19.082319) to (22.449236 22.557975 21.707681)
  create_atoms CPU = 0.000 seconds
Neighbor list info ...
  update: every = 1 steps, delay = 10 steps, check = yes
  max neighbors/atom: 2000, page size: 100000
  master list distance cutoff = 7.55
  ghost atom cutoff = 7.55
  binsize = 3.775, bins = 2 2 1
  1 neighbor lists, perpetual/occasional/extra = 1 0 0
  (1) pair eam, perpetual
      attributes: half, newton on
      pair build: half/bin/atomonly/newton
      stencil: half/bin/3d
      bin: standard
Setting up Verlet run ...
  Unit style    : metal
  Current step  : 0
  Time step     : 0.001
Per MPI rank memory allocation (min/avg/max) = 4.411 | 4.411 | 4.411 Mbytes
   Step          Temp          PotEng         KinEng         TotEng         Volume    
         0   300           -17.537876      0.23266826    -17.305207      51.848543    
      1000   877.28621     -18.047062      0.68038885    -17.366673      48.192266    
      2000   1075.894      -18.330881      0.8344213     -17.496459      42.238361    
      3000   1430.1881     -18.798277      1.109198      -17.689079      46.191152    
      4000   803.8406      -18.538867      0.62342732    -17.91544       49.105164    
      5000   1183.9514     -19.021238      0.91822635    -18.103012      37.982702    
      6000   1061.7929     -19.044897      0.823485      -18.221412      31.50492     
      7000   733.89928     -18.895741      0.56918356    -18.326558      41.428962    
      8000   839.96308     -19.076269      0.6514425     -18.424826      33.925616    
      9000   1151.3945     -19.444974      0.89297651    -18.551998      37.846538    
     10000   1009.9244     -19.453479      0.78325782    -18.670221      39.670654    
     11000   652.30374     -19.280876      0.50590125    -18.774974      31.557423    
     12000   872.76444     -19.545106      0.67688195    -18.868224      34.351955    
     13000   460.06054     -19.322925      0.35680496    -18.96612       34.351955    
     14000   843.28957     -19.71417       0.6540224     -19.060147      34.351955    
     15000   561.24298     -19.584917      0.43527809    -19.149639      34.351955    
     16000   479.82518     -19.601339      0.37213363    -19.229206      37.188865    
     17000   397.54591     -19.609402      0.30832105    -19.301081      37.188865    
     18000   531.35031     -19.780682      0.41209451    -19.368588      37.188865    
     19000   318.51442     -19.675609      0.24702732    -19.428582      37.188865    
     20000   292.92021     -19.710599      0.22717745    -19.483422      37.188865    
     21000   302.07786     -19.76505       0.23427977    -19.530771      37.188865    
     22000   243.95452     -19.760943      0.18920158    -19.571742      37.188865    
     23000   174.24937     -19.747642      0.135141      -19.612501      37.188865    
     24000   458.16041     -20.004019      0.35533128    -19.648688      37.188865    
     25000   414.18802     -20.002473      0.32122802    -19.681245      37.188865    
     26000   194.4813      -19.861419      0.15083209    -19.710587      37.188865    
     27000   229.28073     -19.914979      0.17782116    -19.737157      37.188865    
     28000   358.14802     -20.039271      0.27776559    -19.761505      37.188865    
     29000   317.99628     -20.028959      0.24662547    -19.782333      37.188865    
     30000   237.66609     -19.986509      0.18432452    -19.802184      37.188865    
     31000   223.20559     -19.992488      0.17310952    -19.819379      37.188865    
     32000   309.07038     -20.074839      0.23970289    -19.835137      37.188865    
     33000   295.23144     -20.078407      0.22896995    -19.849437      37.188865    
     34000   170.28733     -19.994188      0.13206819    -19.862119      37.188865    
     35000   180.15646     -20.013251      0.1397223     -19.873529      37.188865    
     36000   229.22038     -20.061088      0.17777436    -19.883314      37.188865    
     37000   249.33959     -20.08532       0.19337803    -19.891942      37.188865    
     38000   223.39784     -20.072485      0.17325863    -19.899226      37.188865    
     39000   81.482222     -19.968696      0.063194423   -19.905502      37.188865    
     40000   173.82886     -20.045476      0.13481486    -19.910661      37.188865    
     41000   226.66057     -20.090592      0.17578907    -19.914803      37.188865    
     42000   201.18396     -20.073779      0.15603041    -19.917749      37.188865    
     43000   69.029271     -19.973238      0.053536401   -19.919702      35.716331    
     44000   166.51363     -20.049715      0.12914145    -19.920574      35.716331    
     45000   226.93724     -20.096404      0.17600364    -19.920401      35.716331    
     46000   217.24624     -20.087674      0.16848768    -19.919186      35.716331    
     47000   145.64797     -20.029833      0.11295887    -19.916874      35.716331    
     48000   246.72283     -20.104751      0.19134857    -19.913403      35.716331    
     49000   242.00172     -20.096442      0.18768707    -19.908754      35.716331    
     50000   199.28311     -20.05751       0.15455618    -19.902954      35.716331    
Loop time of 0.114561 on 1 procs for 50000 steps with 7 atoms

Performance: 37709.168 ns/day, 0.001 hours/ns, 436448.704 timesteps/s
95.5% CPU use with 1 MPI tasks x 1 OpenMP threads

MPI task timing breakdown:
Section |  min time  |  avg time  |  max time  |%varavg| %total
---------------------------------------------------------------
Pair    | 0.058107   | 0.058107   | 0.058107   |   0.0 | 50.72
Neigh   | 7.9e-05    | 7.9e-05    | 7.9e-05    |   0.0 |  0.07
Comm    | 0.004458   | 0.004458   | 0.004458   |   0.0 |  3.89
Output  | 0.003591   | 0.003591   | 0.003591   |   0.0 |  3.13
Modify  | 0.039591   | 0.039591   | 0.039591   |   0.0 | 34.56
Other   |            | 0.008735   |            |       |  7.62

Nlocal:              7 ave           7 max           7 min
Histogram: 1 0 0 0 0 0 0 0 0 0
Nghost:              0 ave           0 max           0 min
Histogram: 1 0 0 0 0 0 0 0 0 0
Neighs:             21 ave          21 max          21 min
Histogram: 1 0 0 0 0 0 0 0 0 0

Total # of neighbors = 21
Ave neighs/atom = 3
Neighbor list builds = 33
Dangerous builds = 0
Total wall time: 0:00:00
