LAMMPS (15 Sep 2022)
OMP_NUM_THREADS environment is not set. Defaulting to 1 thread. (src/comm.cpp:98)
  using 1 OpenMP thread(s) per MPI task
Loaded 1 plugins from C:\Users\becat\AppData\Local\LAMMPS 64-bit 15Sep2022\plugins
Lattice spacing in x,y,z = 4.079 4.079 4.079
Created orthogonal box = (0 0 0) to (40.79 40.79 40.79)
  1 by 1 by 1 MPI processor grid
Read molecule template np:
  1 molecules
  0 fragments
  33 atoms with max type 1
  0 bonds with max type 0
  0 angles with max type 0
  0 dihedrals with max type 0
  0 impropers with max type 0
Created 33 atoms
  using lattice units in orthogonal box = (16.17255 16.111145 15.909151) to (24.262564 23.871189 23.971472)
  create_atoms CPU = 0.000 seconds
Neighbor list info ...
  update: every = 1 steps, delay = 10 steps, check = yes
  max neighbors/atom: 2000, page size: 100000
  master list distance cutoff = 7.55
  ghost atom cutoff = 7.55
  binsize = 3.775, bins = 3 3 3
  1 neighbor lists, perpetual/occasional/extra = 1 0 0
  (1) pair eam, perpetual
      attributes: half, newton on
      pair build: half/bin/atomonly/newton
      stencil: half/bin/3d
      bin: standard
Setting up Verlet run ...
  Unit style    : metal
  Current step  : 0
  Time step     : 0.001
Per MPI rank memory allocation (min/avg/max) = 4.536 | 4.536 | 4.536 Mbytes
   Step          Temp          PotEng         KinEng         TotEng         Volume    
         0   300           -110.07116      1.2408974     -108.83026      506.14336    
      1000   204.13316     -109.67183      0.84436103    -108.82747      506.14336    
      2000   234.81501     -109.78998      0.9712711     -108.81871      469.01833    
      3000   239.14792     -109.79411      0.98919343    -108.80491      469.01833    
      4000   194.6909      -109.59085      0.80530478    -108.78555      469.01833    
      5000   240.8488      -109.75629      0.99622882    -108.76006      478.8003     
      6000   255.9489      -109.78833      1.0586877     -108.72964      478.8003     
      7000   258.66623     -109.76365      1.0699275     -108.69372      478.8003     
      8000   262.03279     -109.7375       1.0838527     -108.65365      478.8003     
      9000   227.43873     -109.55271      0.94076044    -108.61194      478.8003     
     10000   269.15881     -109.68188      1.1133282     -108.56855      478.8003     
     11000   245.64965     -109.54345      1.0160867     -108.52737      478.8003     
     12000   264.95877     -109.58609      1.0959555     -108.49014      478.8003     
     13000   211.5159      -109.33151      0.87489843    -108.45661      478.8003     
     14000   282.16633     -109.59319      1.1671316     -108.42605      478.8003     
     15000   289.37327     -109.59602      1.1969418     -108.39908      478.8003     
     16000   259.52792     -109.44822      1.0734917     -108.37473      478.8003     
     17000   308.56921     -109.6283       1.2763424     -108.35195      478.8003     
     18000   258.6206      -109.39972      1.0697388     -108.32998      478.8003     
     19000   242.90482     -109.31324      1.0047332     -108.30851      478.8003     
     20000   228.52977     -109.23218      0.94527331    -108.28691      478.8003     
     21000   291.56888     -109.47177      1.2060236     -108.26575      478.8003     
     22000   339.59181     -109.64835      1.404662      -108.24369      478.8003     
     23000   312.07372     -109.51274      1.2908382     -108.2219       478.8003     
     24000   307.22008     -109.47034      1.270762      -108.19958      478.8003     
     25000   297.60102     -109.40737      1.2309744     -108.17639      478.8003     
     26000   272.08675     -109.27823      1.1254391     -108.15279      478.8003     
     27000   302.64445     -109.38067      1.2518357     -108.12883      478.8003     
     28000   324.47052     -109.44597      1.3421154     -108.10385      508.10982    
     29000   314.09977     -109.37885      1.2992186     -108.07963      481.11537    
     30000   340.12894     -109.4627       1.4068837     -108.05581      481.11537    
     31000   317.46359     -109.34468      1.3131325     -108.03155      481.11537    
     32000   339.8572      -109.41401      1.4057597     -108.00825      518.62943    
     33000   276.05315     -109.12728      1.1418454     -107.98544      518.62943    
     34000   311.33792     -109.25093      1.2877947     -107.96313      493.9832     
     35000   297.93301     -109.17436      1.2323476     -107.94202      493.9832     
     36000   268.30688     -109.03169      1.1098044     -107.92188      493.9832     
     37000   319.11155     -109.22234      1.319949      -107.90239      493.9832     
     38000   353.1662      -109.34452      1.46081       -107.88371      493.9832     
     39000   287.16095     -109.05487      1.1877909     -107.86708      493.9832     
     40000   279.64        -109.00842      1.1566818     -107.85174      506.83651    
     41000   305.9158      -109.10271      1.2653671     -107.83735      506.83651    
     42000   297.90077     -109.05677      1.2322143     -107.82455      506.83651    
     43000   311.68143     -109.10289      1.2892156     -107.81367      506.83651    
     44000   357.4917      -109.28338      1.4787017     -107.80468      506.83651    
     45000   305.73024     -109.06258      1.2645995     -107.79798      490.60959    
     46000   330.84456     -109.16165      1.3684805     -107.79317      490.60959    
     47000   289.87787     -108.98948      1.199029      -107.79045      490.60959    
     48000   276.90409     -108.93576      1.1453652     -107.79039      490.60959    
     49000   376.0803      -109.3487       1.5555902     -107.79311      523.38099    
     50000   299.91711     -109.04009      1.2405545     -107.79953      482.32167    
Loop time of 1.19625 on 1 procs for 50000 steps with 33 atoms

Performance: 3611.285 ns/day, 0.007 hours/ns, 41797.283 timesteps/s
99.3% CPU use with 1 MPI tasks x 1 OpenMP threads

MPI task timing breakdown:
Section |  min time  |  avg time  |  max time  |%varavg| %total
---------------------------------------------------------------
Pair    | 1.0759     | 1.0759     | 1.0759     |   0.0 | 89.94
Neigh   | 0.000123   | 0.000123   | 0.000123   |   0.0 |  0.01
Comm    | 0.006639   | 0.006639   | 0.006639   |   0.0 |  0.55
Output  | 0.011892   | 0.011892   | 0.011892   |   0.0 |  0.99
Modify  | 0.083574   | 0.083574   | 0.083574   |   0.0 |  6.99
Other   |            | 0.01808    |            |       |  1.51

Nlocal:             33 ave          33 max          33 min
Histogram: 1 0 0 0 0 0 0 0 0 0
Nghost:              0 ave           0 max           0 min
Histogram: 1 0 0 0 0 0 0 0 0 0
Neighs:            489 ave         489 max         489 min
Histogram: 1 0 0 0 0 0 0 0 0 0

Total # of neighbors = 489
Ave neighs/atom = 14.818182
Neighbor list builds = 10
Dangerous builds = 0
Total wall time: 0:00:01
