LAMMPS (15 Sep 2022)
OMP_NUM_THREADS environment is not set. Defaulting to 1 thread. (src/comm.cpp:98)
  using 1 OpenMP thread(s) per MPI task
Loaded 1 plugins from C:\Users\becat\AppData\Local\LAMMPS 64-bit 15Sep2022\plugins
Lattice spacing in x,y,z = 4.079 4.079 4.079
Created orthogonal box = (0 0 0) to (40.79 40.79 40.79)
  1 by 1 by 1 MPI processor grid
Read molecule template np:
  1 molecules
  0 fragments
  2057 atoms with max type 1
  0 bonds with max type 0
  0 angles with max type 0
  0 dihedrals with max type 0
  0 impropers with max type 0
Created 2057 atoms
  using lattice units in orthogonal box = (-0.5732163 -1.7316295 -0.54670659) to (37.884899 42.354044 41.336707)
  create_atoms CPU = 0.000 seconds
Neighbor list info ...
  update: every = 1 steps, delay = 10 steps, check = yes
  max neighbors/atom: 2000, page size: 100000
  master list distance cutoff = 7.55
  ghost atom cutoff = 7.55
  binsize = 3.775, bins = 11 12 12
  1 neighbor lists, perpetual/occasional/extra = 1 0 0
  (1) pair eam, perpetual
      attributes: half, newton on
      pair build: half/bin/atomonly/newton
      stencil: half/bin/3d
      bin: standard
Setting up Verlet run ...
  Unit style    : metal
  Current step  : 0
  Time step     : 0.001
Per MPI rank memory allocation (min/avg/max) = 4.66 | 4.66 | 4.66 Mbytes
   Step          Temp          PotEng         KinEng         TotEng         Volume    
         0   300           -7732.6932      79.727657     -7652.9655      71011.315    
      1000   239.28264     -7716.4143      63.591482     -7652.8229      66008.809    
      2000   228.9126      -7713.2412      60.835551     -7652.4057      66008.809    
      3000   231.15851     -7713.1777      61.432421     -7651.7452      66008.809    
      4000   218.05329     -7708.9334      57.949593     -7650.9838      66008.809    
      5000   235.60635     -7712.8789      62.614474     -7650.2645      66008.809    
      6000   239.07686     -7713.156       63.536793     -7649.6193      66346.036    
      7000   238.1883      -7712.2898      63.300649     -7648.9892      66940.426    
      8000   225.86384     -7708.3375      60.025316     -7648.3121      65197.757    
      9000   242.54457     -7712.0225      64.458369     -7647.5642      65230.698    
     10000   243.71306     -7711.531       64.768905     -7646.7621      67235.065    
     11000   240.64286     -7709.8687      63.952972     -7645.9157      65770.185    
     12000   245.07721     -7710.1779      65.131439     -7645.0465      65641.387    
     13000   240.55189     -7708.0942      63.928795     -7644.1654      65641.387    
     14000   246.74013     -7708.8393      65.573375     -7643.266       66999.904    
     15000   247.78782     -7708.2141      65.851808     -7642.3623      65553.472    
     16000   248.42396     -7707.4672      66.020869     -7641.4464      67042.587    
     17000   251.27144     -7707.2964      66.77761      -7640.5188      66570.912    
     18000   252.11058     -7706.5849      67.000619     -7639.5843      65960.803    
     19000   252.91946     -7705.861       67.215586     -7638.6454      65896.417    
     20000   259.11845     -7706.5644      68.863024     -7637.7014      65658.6      
     21000   257.81862     -7705.2736      68.517582     -7636.7561      66976.11     
     22000   259.54226     -7704.7775      68.975655     -7635.8019      66040.349    
     23000   264.5504      -7705.1607      70.306612     -7634.8541      67341.023    
     24000   262.12316     -7703.569       69.661552     -7633.9075      66285.526    
     25000   267.75402     -7704.1097      71.158004     -7632.9517      66023.99     
     26000   271.64451     -7704.1985      72.191933     -7632.0065      66455.243    
     27000   268.45371     -7702.4102      71.343951     -7631.0663      66378.52     
     28000   271.48892     -7702.2809      72.150587     -7630.1304      66315.315    
     29000   265.48409     -7699.7523      70.554748     -7629.1975      66302.253    
     30000   279.34356     -7702.5114      74.238025     -7628.2734      65963.198    
     31000   273.18559     -7699.9594      72.601491     -7627.3579      65963.198    
     32000   276.45846     -7699.9277      73.471286     -7626.4565      66618.77     
     33000   274.48728     -7698.5039      72.947427     -7625.5565      66184.549    
     34000   282.70268     -7699.8051      75.13074      -7624.6744      66304.618    
     35000   286.03018     -7699.8176      76.015055     -7623.8025      65841.7      
     36000   286.53915     -7699.0962      76.150317     -7622.9459      65297.415    
     37000   282.90374     -7697.285       75.184174     -7622.1008      67563.483    
     38000   285.92346     -7697.2611      75.986691     -7621.2744      66427.708    
     39000   292.9344      -7698.3153      77.849911     -7620.4654      66135.242    
     40000   291.2612      -7697.0801      77.405244     -7619.6749      66135.242    
     41000   292.65978     -7696.6772      77.776929     -7618.9003      66063.059    
     42000   296.47249     -7696.9382      78.790191     -7618.148       65972.923    
     43000   283.94055     -7692.8767      75.459717     -7617.417       66517.274    
     44000   297.4932      -7695.767       79.061454     -7616.7056      66467.888    
     45000   293.49497     -7694.0198      77.998888     -7616.0209      65868.78     
     46000   293.22281     -7693.2842      77.926559     -7615.3576      66162.428    
     47000   302.75592     -7695.1867      80.460068     -7614.7266      65913.29     
     48000   300.85359     -7694.0768      79.954506     -7614.1223      66038.968    
     49000   303.27671     -7694.1449      80.598473     -7613.5465      65849.276    
     50000   307.20788     -7694.6422      81.643214     -7612.999       67315.709    
Loop time of 157.327 on 1 procs for 50000 steps with 2057 atoms

Performance: 27.459 ns/day, 0.874 hours/ns, 317.809 timesteps/s
99.4% CPU use with 1 MPI tasks x 1 OpenMP threads

MPI task timing breakdown:
Section |  min time  |  avg time  |  max time  |%varavg| %total
---------------------------------------------------------------
Pair    | 153.9      | 153.9      | 153.9      |   0.0 | 97.82
Neigh   | 0.21833    | 0.21833    | 0.21833    |   0.0 |  0.14
Comm    | 0.024113   | 0.024113   | 0.024113   |   0.0 |  0.02
Output  | 0.40681    | 0.40681    | 0.40681    |   0.0 |  0.26
Modify  | 2.321      | 2.321      | 2.321      |   0.0 |  1.48
Other   |            | 0.4598     |            |       |  0.29

Nlocal:           2057 ave        2057 max        2057 min
Histogram: 1 0 0 0 0 0 0 0 0 0
Nghost:              0 ave           0 max           0 min
Histogram: 1 0 0 0 0 0 0 0 0 0
Neighs:          83934 ave       83934 max       83934 min
Histogram: 1 0 0 0 0 0 0 0 0 0

Total # of neighbors = 83934
Ave neighs/atom = 40.804084
Neighbor list builds = 69
Dangerous builds = 0
Total wall time: 0:02:37
