LAMMPS (15 Sep 2022)
OMP_NUM_THREADS environment is not set. Defaulting to 1 thread. (src/comm.cpp:98)
  using 1 OpenMP thread(s) per MPI task
Loaded 1 plugins from C:\Users\becat\AppData\Local\LAMMPS 64-bit 15Sep2022\plugins
Lattice spacing in x,y,z = 4.079 4.079 4.079
Created orthogonal box = (0 0 0) to (40.79 40.79 40.79)
  1 by 1 by 1 MPI processor grid
Read molecule template np:
  1 molecules
  0 fragments
  656 atoms with max type 1
  0 bonds with max type 0
  0 angles with max type 0
  0 dihedrals with max type 0
  0 impropers with max type 0
Created 656 atoms
  using lattice units in orthogonal box = (5.5845263 6.1980273 5.8749074) to (34.404241 34.67207 35.872804)
  create_atoms CPU = 0.000 seconds
Neighbor list info ...
  update: every = 1 steps, delay = 10 steps, check = yes
  max neighbors/atom: 2000, page size: 100000
  master list distance cutoff = 7.55
  ghost atom cutoff = 7.55
  binsize = 3.775, bins = 8 8 8
  1 neighbor lists, perpetual/occasional/extra = 1 0 0
  (1) pair eam, perpetual
      attributes: half, newton on
      pair build: half/bin/atomonly/newton
      stencil: half/bin/3d
      bin: standard
Setting up Verlet run ...
  Unit style    : metal
  Current step  : 0
  Time step     : 0.001
Per MPI rank memory allocation (min/avg/max) = 4.576 | 4.576 | 4.576 Mbytes
   Step          Temp          PotEng         KinEng         TotEng         Volume    
         0   300           -2423.9558      25.399618     -2398.5562      24616.687    
      1000   259.89202     -2420.5268      22.003861     -2398.5229      22108.26     
      2000   247.19407     -2419.3485      20.928784     -2398.4198      22108.26     
      3000   264.12449     -2420.609       22.362205     -2398.2468      22812.557    
      4000   256.23759     -2419.7066      21.694457     -2398.0122      22377.367    
      5000   269.26003     -2420.5248      22.797006     -2397.7278      22377.367    
      6000   254.25011     -2418.9475      21.526186     -2397.4213      22377.367    
      7000   263.81699     -2419.4608      22.33617      -2397.1247      22377.367    
      8000   262.41952     -2419.0714      22.217852     -2396.8535      22377.367    
      9000   264.00666     -2418.9621      22.352228     -2396.6099      22377.367    
     10000   257.22281     -2418.1618      21.777871     -2396.384       22377.367    
     11000   263.94746     -2418.5111      22.347216     -2396.1639      22377.367    
     12000   272.26655     -2418.9915      23.051555     -2395.9399      22377.367    
     13000   259.28339     -2417.657       21.952331     -2395.7047      22377.367    
     14000   270.44729     -2418.354       22.897526     -2395.4565      22377.367    
     15000   267.57567     -2417.8492      22.6544       -2395.1948      22377.367    
     16000   268.64272     -2417.6681      22.744742     -2394.9233      22377.367    
     17000   270.65986     -2417.5592      22.915524     -2394.6437      22377.367    
     18000   276.82339     -2417.7953      23.437362     -2394.358       22377.367    
     19000   266.88277     -2416.6669      22.595735     -2394.0711      22377.367    
     20000   282.99863     -2417.7458      23.960191     -2393.7857      22377.367    
     21000   283.46579     -2417.4998      23.999743     -2393.5001      22377.367    
     22000   268.50122     -2415.9522      22.732762     -2393.2194      22377.367    
     23000   299.34029     -2418.2847      25.343764     -2392.9409      22377.367    
     24000   291.41854     -2417.3422      24.673066     -2392.6691      22377.367    
     25000   289.70782     -2416.9295      24.528227     -2392.4013      22377.367    
     26000   281.92201     -2416.0075      23.869039     -2392.1385      22377.367    
     27000   291.69508     -2416.5773      24.696479     -2391.8808      22377.367    
     28000   284.34939     -2415.7025      24.074553     -2391.628       22377.367    
     29000   286.07001     -2415.6007      24.22023      -2391.3805      22377.367    
     30000   302.94217     -2416.7896      25.648719     -2391.1408      22377.367    
     31000   289.84118     -2415.4464      24.539518     -2390.9069      22377.367    
     32000   294.42678     -2415.6082      24.92776      -2390.6804      22377.367    
     33000   297.88744     -2415.683       25.220758     -2390.4622      22377.367    
     34000   299.85098     -2415.6388      25.387002     -2390.2518      22377.367    
     35000   306.57609     -2416.0069      25.956386     -2390.0505      22377.367    
     36000   315.13747     -2416.5379      26.681238     -2389.8566      22377.367    
     37000   294.72462     -2414.6264      24.952977     -2389.6734      22377.367    
     38000   302.58768     -2415.1179      25.618706     -2389.4992      22377.367    
     39000   304.4148      -2415.1101      25.773399     -2389.3367      22377.367    
     40000   286.84658     -2413.4696      24.285979     -2389.1836      22377.367    
     41000   310.45911     -2415.3254      26.285143     -2389.0403      22377.367    
     42000   292.10018     -2413.6393      24.730777     -2388.9086      22377.367    
     43000   311.3693      -2415.1518      26.362205     -2388.7896      22377.367    
     44000   304.2428      -2414.4407      25.758837     -2388.6819      22377.367    
     45000   299.41268     -2413.9384      25.349893     -2388.5885      22377.367    
     46000   310.92316     -2414.8322      26.324432     -2388.5078      22966.535    
     47000   307.08148     -2414.4403      25.999175     -2388.4411      22263.115    
     48000   311.85423     -2414.792       26.403261     -2388.3887      22263.115    
     49000   305.54078     -2414.2205      25.868731     -2388.3517      22863.18     
     50000   302.93343     -2413.9785      25.647978     -2388.3305      22863.18     
Loop time of 45.6347 on 1 procs for 50000 steps with 656 atoms

Performance: 94.665 ns/day, 0.254 hours/ns, 1095.658 timesteps/s
99.1% CPU use with 1 MPI tasks x 1 OpenMP threads

MPI task timing breakdown:
Section |  min time  |  avg time  |  max time  |%varavg| %total
---------------------------------------------------------------
Pair    | 44.588     | 44.588     | 44.588     |   0.0 | 97.71
Neigh   | 0.004362   | 0.004362   | 0.004362   |   0.0 |  0.01
Comm    | 0.011399   | 0.011399   | 0.011399   |   0.0 |  0.02
Output  | 0.13454    | 0.13454    | 0.13454    |   0.0 |  0.29
Modify  | 0.7499     | 0.7499     | 0.7499     |   0.0 |  1.64
Other   |            | 0.1467     |            |       |  0.32

Nlocal:            656 ave         656 max         656 min
Histogram: 1 0 0 0 0 0 0 0 0 0
Nghost:              0 ave           0 max           0 min
Histogram: 1 0 0 0 0 0 0 0 0 0
Neighs:          23739 ave       23739 max       23739 min
Histogram: 1 0 0 0 0 0 0 0 0 0

Total # of neighbors = 23739
Ave neighs/atom = 36.1875
Neighbor list builds = 6
Dangerous builds = 0
Total wall time: 0:00:45
