LAMMPS (15 Sep 2022)
OMP_NUM_THREADS environment is not set. Defaulting to 1 thread. (src/comm.cpp:98)
  using 1 OpenMP thread(s) per MPI task
Loaded 1 plugins from C:\Users\becat\AppData\Local\LAMMPS 64-bit 15Sep2022\plugins
Lattice spacing in x,y,z = 4.079 4.079 4.079
Created orthogonal box = (0 0 0) to (40.79 40.79 40.79)
  1 by 1 by 1 MPI processor grid
Read molecule template np:
  1 molecules
  0 fragments
  146 atoms with max type 1
  0 bonds with max type 0
  0 angles with max type 0
  0 dihedrals with max type 0
  0 impropers with max type 0
Created 146 atoms
  using lattice units in orthogonal box = (10.339136 11.225351 11.137707) to (30.450864 29.564649 29.652293)
  create_atoms CPU = 0.000 seconds
Neighbor list info ...
  update: every = 1 steps, delay = 10 steps, check = yes
  max neighbors/atom: 2000, page size: 100000
  master list distance cutoff = 7.55
  ghost atom cutoff = 7.55
  binsize = 3.775, bins = 6 5 5
  1 neighbor lists, perpetual/occasional/extra = 1 0 0
  (1) pair eam, perpetual
      attributes: half, newton on
      pair build: half/bin/atomonly/newton
      stencil: half/bin/3d
      bin: standard
Setting up Verlet run ...
  Unit style    : metal
  Current step  : 0
  Time step     : 0.001
Per MPI rank memory allocation (min/avg/max) = 4.545 | 4.545 | 4.545 Mbytes
   Step          Temp          PotEng         KinEng         TotEng         Volume    
         0   300           -512.20262      5.6228163     -506.5798       6828.8266    
      1000   444.97492     -514.94944      8.3400409     -506.60939      5434.6465    
      2000   438.37845     -514.90942      8.2164049     -506.69301      5434.6465    
      3000   410.29599     -514.52009      7.6900633     -506.83003      5434.6465    
      4000   391.37049     -514.34784      7.3353479     -507.01249      5434.6465    
      5000   393.26396     -514.59385      7.3708366     -507.22301      5434.6465    
      6000   368.18551     -514.33741      6.9007984     -507.43662      5434.6465    
      7000   378.33109     -514.73041      7.090954      -507.63945      5434.6465    
      8000   377.34767     -514.8908       7.0725221     -507.81828      5434.6465    
      9000   365.14361     -514.81985      6.8437849     -507.97606      5434.6465    
     10000   370.49291     -515.0635       6.9440453     -508.11945      5434.6465    
     11000   316.71524     -514.19128      5.9361053     -508.25517      5434.6465    
     12000   358.88892     -515.11752      6.7265548     -508.39096      5434.6465    
     13000   345.40808     -515.00357      6.4738873     -508.52968      5434.6465    
     14000   321.59982     -514.70028      6.0276558     -508.67263      5168.5087    
     15000   330.83597     -515.01989      6.2007664     -508.81913      5296.8392    
     16000   330.43514     -515.16092      6.1932537     -508.96766      5296.8392    
     17000   351.35681     -515.70261      6.5853827     -509.11723      5296.8392    
     18000   359.72366     -516.0091       6.7422002     -509.2669       5217.7492    
     19000   357.551       -516.11643      6.7014787     -509.41495      5307.2225    
     20000   312.69125     -515.42037      5.8606848     -509.55968      5058.434     
     21000   319.34618     -515.68517      5.9854164     -509.69975      5464.0073    
     22000   306.92738     -515.58727      5.7526543     -509.83462      5201.8385    
     23000   296.59867     -515.52375      5.5590662     -509.96468      5201.8385    
     24000   310.06216     -515.89988      5.8114086     -510.08847      5201.8385    
     25000   311.63193     -516.04824      5.8408302     -510.20741      5201.8385    
     26000   304.22248     -516.02269      5.701957      -510.32073      5201.8385    
     27000   307.67429     -516.19572      5.7666534     -510.42907      5201.8385    
     28000   322.38883     -516.57553      6.042444      -510.53308      5201.8385    
     29000   307.23624     -516.39082      5.7584432     -510.63238      5201.8385    
     30000   307.62044     -516.49256      5.7656441     -510.72692      5201.8385    
     31000   292.23249     -516.29354      5.477232      -510.8163       5201.8385    
     32000   284.35901     -516.22912      5.3296616     -510.89946      5201.8385    
     33000   306.57459     -516.72358      5.746042      -510.97754      5201.8385    
     34000   293.16287     -516.54587      5.4946699     -511.0512       5201.8385    
     35000   289.84009     -516.55156      5.4323919     -511.11917      5201.8385    
     36000   274.34508     -516.32338      5.1419733     -511.1814       5201.8385    
     37000   281.95298     -516.52378      5.2845661     -511.23921      5201.8385    
     38000   273.43847     -516.41662      5.1249809     -511.29164      5201.8385    
     39000   279.84586     -516.58339      5.245073      -511.33831      5201.8385    
     40000   267.3756      -516.39103      5.0113464     -511.37969      5201.8385    
     41000   311.9578      -517.26286      5.846938      -511.41592      5201.8385    
     42000   277.77952     -516.65294      5.206344      -511.44659      5201.8385    
     43000   265.77325     -516.45313      4.9813138     -511.47182      5201.8385    
     44000   276.34382     -516.67122      5.1794352     -511.49178      5201.8385    
     45000   267.47692     -516.51903      5.0132453     -511.50578      5201.8385    
     46000   274.33784     -516.65562      5.1418376     -511.51379      5201.8385    
     47000   300.76582     -517.15217      5.6371699     -511.515        5201.8385    
     48000   273.81252     -516.64149      5.1319916     -511.5095       5201.8385    
     49000   270.63881     -516.56988      5.0725076     -511.49737      5201.8385    
     50000   286.51701     -516.84852      5.3701085     -511.47841      5201.8385    
Loop time of 8.07108 on 1 procs for 50000 steps with 146 atoms

Performance: 535.244 ns/day, 0.045 hours/ns, 6194.955 timesteps/s
99.9% CPU use with 1 MPI tasks x 1 OpenMP threads

MPI task timing breakdown:
Section |  min time  |  avg time  |  max time  |%varavg| %total
---------------------------------------------------------------
Pair    | 7.7609     | 7.7609     | 7.7609     |   0.0 | 96.16
Neigh   | 0.001336   | 0.001336   | 0.001336   |   0.0 |  0.02
Comm    | 0.007862   | 0.007862   | 0.007862   |   0.0 |  0.10
Output  | 0.037363   | 0.037363   | 0.037363   |   0.0 |  0.46
Modify  | 0.22069    | 0.22069    | 0.22069    |   0.0 |  2.73
Other   |            | 0.04292    |            |       |  0.53

Nlocal:            146 ave         146 max         146 min
Histogram: 1 0 0 0 0 0 0 0 0 0
Nghost:              0 ave           0 max           0 min
Histogram: 1 0 0 0 0 0 0 0 0 0
Neighs:           3983 ave        3983 max        3983 min
Histogram: 1 0 0 0 0 0 0 0 0 0

Total # of neighbors = 3983
Ave neighs/atom = 27.280822
Neighbor list builds = 10
Dangerous builds = 0
Total wall time: 0:00:08
