LAMMPS (15 Sep 2022)
OMP_NUM_THREADS environment is not set. Defaulting to 1 thread. (src/comm.cpp:98)
  using 1 OpenMP thread(s) per MPI task
Loaded 1 plugins from C:\Users\becat\AppData\Local\LAMMPS 64-bit 15Sep2022\plugins
Lattice spacing in x,y,z = 4.079 4.079 4.079
Created orthogonal box = (0 0 0) to (40.79 40.79 40.79)
  1 by 1 by 1 MPI processor grid
Read molecule template np:
  1 molecules
  0 fragments
  561 atoms with max type 1
  0 bonds with max type 0
  0 angles with max type 0
  0 dihedrals with max type 0
  0 impropers with max type 0
Created 561 atoms
  using lattice units in orthogonal box = (7.6901286 7.0649345 8.5836922) to (31.470574 33.795931 33.176052)
  create_atoms CPU = 0.000 seconds
Neighbor list info ...
  update: every = 1 steps, delay = 10 steps, check = yes
  max neighbors/atom: 2000, page size: 100000
  master list distance cutoff = 7.55
  ghost atom cutoff = 7.55
  binsize = 3.775, bins = 7 8 7
  1 neighbor lists, perpetual/occasional/extra = 1 0 0
  (1) pair eam, perpetual
      attributes: half, newton on
      pair build: half/bin/atomonly/newton
      stencil: half/bin/3d
      bin: standard
Setting up Verlet run ...
  Unit style    : metal
  Current step  : 0
  Time step     : 0.001
Per MPI rank memory allocation (min/avg/max) = 4.57 | 4.57 | 4.57 Mbytes
   Step          Temp          PotEng         KinEng         TotEng         Volume    
         0   300           -2073.8357      21.715704     -2052.12        15632.748    
      1000   155.89374     -2063.3502      11.284475     -2052.0658      15632.748    
      2000   162.16986     -2063.6421      11.738776     -2051.9033      15632.748    
      3000   163.52358     -2063.4893      11.836766     -2051.6525      15632.748    
      4000   161.80507     -2063.0805      11.71237      -2051.3681      15632.748    
      5000   170.08256     -2063.4146      12.311542     -2051.1031      15632.748    
      6000   166.94689     -2062.9465      12.084564     -2050.862       15632.748    
      7000   169.90657     -2062.915       12.298803     -2050.6162      15632.748    
      8000   176.29602     -2063.1071      12.761307     -2050.3458      15632.748    
      9000   168.79845     -2062.2627      12.218591     -2050.0442      15632.748    
     10000   176.65813     -2062.5064      12.787519     -2049.7189      15632.748    
     11000   164.55959     -2061.2904      11.911758     -2049.3786      15632.748    
     12000   182.68457     -2062.2483      13.223747     -2049.0245      15632.748    
     13000   177.12048     -2061.484       12.820987     -2048.663       15632.748    
     14000   183.44284     -2061.5711      13.278635     -2048.2925      15632.748    
     15000   189.78081     -2061.6486      13.737413     -2047.9112      15632.748    
     16000   191.37821     -2061.3772      13.853042     -2047.5241      15632.748    
     17000   188.49522     -2060.7697      13.644355     -2047.1253      15632.748    
     18000   189.83056     -2060.4614      13.741014     -2046.7204      15632.748    
     19000   195.84233     -2060.4831      14.176181     -2046.3069      15632.748    
     20000   205.14581     -2060.737       14.849619     -2045.8874      15632.748    
     21000   194.52676     -2059.541       14.080952     -2045.46        15632.748    
     22000   202.40948     -2059.6788      14.651548     -2045.0272      15632.748    
     23000   213.81534     -2060.0668      15.477169     -2044.5897      15632.748    
     24000   216.03723     -2059.781       15.638002     -2044.143       15632.748    
     25000   215.4399      -2059.2889      15.594764     -2043.6941      15632.748    
     26000   215.38857     -2058.8305      15.591048     -2043.2395      15632.748    
     27000   220.18232     -2058.7191      15.938047     -2042.7811      15632.748    
     28000   215.6444      -2057.9295      15.609567     -2042.3199      15632.748    
     29000   224.54835     -2058.1074      16.254085     -2041.8533      15314.98     
     30000   226.29042     -2057.7658      16.380186     -2041.3857      15367.129    
     31000   229.35601     -2057.5175      16.602091     -2040.9154      15358.339    
     32000   234.00194     -2057.3778      16.93839      -2040.4395      15256.435    
     33000   243.26737     -2057.5737      17.609074     -2039.9646      15222.094    
     34000   237.26711     -2056.6637      17.174741     -2039.4889      15209.471    
     35000   240.59552     -2056.429       17.415671     -2039.0133      15350.596    
     36000   250.7224      -2056.6843      18.148712     -2038.5356      15209.874    
     37000   243.90318     -2055.715       17.655098     -2038.0599      15473.216    
     38000   247.81903     -2055.5236      17.93855      -2037.5851      15307.905    
     39000   245.06143     -2054.8505      17.738938     -2037.1115      15212.087    
     40000   262.44635     -2055.6376      18.997358     -2036.6403      15395.396    
     41000   259.76618     -2054.9754      18.803352     -2036.172       15269.789    
     42000   275.69694     -2055.6635      19.956511     -2035.707       15269.789    
     43000   267.46974     -2054.6074      19.36098      -2035.2464      15269.789    
     44000   273.02259     -2054.5539      19.762926     -2034.791       15269.789    
     45000   274.06506     -2054.1809      19.838386     -2034.3425      15269.789    
     46000   269.25334     -2053.389       19.490086     -2033.8989      15269.789    
     47000   280.08053     -2053.7367      20.27382      -2033.4629      15205.688    
     48000   288.75059     -2053.9373      20.901408     -2033.0359      15226.543    
     49000   297.19817     -2054.129       21.512892     -2032.6161      15169.167    
     50000   293.3101      -2053.4384      21.231451     -2032.2069      15274.677    
Loop time of 40.4705 on 1 procs for 50000 steps with 561 atoms

Performance: 106.744 ns/day, 0.225 hours/ns, 1235.466 timesteps/s
99.2% CPU use with 1 MPI tasks x 1 OpenMP threads

MPI task timing breakdown:
Section |  min time  |  avg time  |  max time  |%varavg| %total
---------------------------------------------------------------
Pair    | 39.501     | 39.501     | 39.501     |   0.0 | 97.60
Neigh   | 0.016029   | 0.016029   | 0.016029   |   0.0 |  0.04
Comm    | 0.012236   | 0.012236   | 0.012236   |   0.0 |  0.03
Output  | 0.12428    | 0.12428    | 0.12428    |   0.0 |  0.31
Modify  | 0.67767    | 0.67767    | 0.67767    |   0.0 |  1.67
Other   |            | 0.1395     |            |       |  0.34

Nlocal:            561 ave         561 max         561 min
Histogram: 1 0 0 0 0 0 0 0 0 0
Nghost:              0 ave           0 max           0 min
Histogram: 1 0 0 0 0 0 0 0 0 0
Neighs:          20440 ave       20440 max       20440 min
Histogram: 1 0 0 0 0 0 0 0 0 0

Total # of neighbors = 20440
Ave neighs/atom = 36.434938
Neighbor list builds = 20
Dangerous builds = 0
Total wall time: 0:00:40
