LAMMPS (15 Sep 2022)
OMP_NUM_THREADS environment is not set. Defaulting to 1 thread. (src/comm.cpp:98)
  using 1 OpenMP thread(s) per MPI task
Loaded 1 plugins from C:\Users\becat\AppData\Local\LAMMPS 64-bit 15Sep2022\plugins
Lattice spacing in x,y,z = 4.079 4.079 4.079
Created orthogonal box = (0 0 0) to (40.79 40.79 40.79)
  1 by 1 by 1 MPI processor grid
Read molecule template np:
  1 molecules
  0 fragments
  147 atoms with max type 1
  0 bonds with max type 0
  0 angles with max type 0
  0 dihedrals with max type 0
  0 impropers with max type 0
Created 147 atoms
  using lattice units in orthogonal box = (12.529367 12.094963 12.539311) to (26.956259 28.632194 28.25069)
  create_atoms CPU = 0.000 seconds
Neighbor list info ...
  update: every = 1 steps, delay = 10 steps, check = yes
  max neighbors/atom: 2000, page size: 100000
  master list distance cutoff = 7.55
  ghost atom cutoff = 7.55
  binsize = 3.775, bins = 4 5 5
  1 neighbor lists, perpetual/occasional/extra = 1 0 0
  (1) pair eam, perpetual
      attributes: half, newton on
      pair build: half/bin/atomonly/newton
      stencil: half/bin/3d
      bin: standard
Setting up Verlet run ...
  Unit style    : metal
  Current step  : 0
  Time step     : 0.001
Per MPI rank memory allocation (min/avg/max) = 4.544 | 4.544 | 4.544 Mbytes
   Step          Temp          PotEng         KinEng         TotEng         Volume    
         0   300           -513.0364       5.6615944     -507.3748       3748.434     
      1000   408.05904     -515.11238      7.7008825     -507.4115       3748.434     
      2000   433.36862     -515.68874      8.1785244     -507.51022      3270.355     
      3000   392.13525     -515.07228      7.4003691     -507.67191      3263.7582    
      4000   414.4593      -515.71507      7.8216681     -507.8934       3276.9816    
      5000   441.42274     -516.48507      8.3305217     -508.15455      3282.6365    
      6000   447.76553     -516.86364      8.4502226     -508.41342      3266.0766    
      7000   397.55755     -516.14792      7.5026987     -508.64522      3299.4882    
      8000   390.13572     -516.21716      7.3626339     -508.85452      3228.662     
      9000   402.58338     -516.64151      7.5975459     -509.04396      3228.5561    
     10000   409.1897      -516.94777      7.7222202     -509.22555      3290.3247    
     11000   401.91782     -516.99461      7.5849855     -509.40962      3246.1205    
     12000   399.70626     -517.1429       7.543249      -509.59965      3476.8633    
     13000   421.25622     -517.74921      7.9499394     -509.79927      3386.3088    
     14000   388.31028     -517.3303       7.3281843     -510.00212      3339.5547    
     15000   387.29057     -517.5206       7.3089403     -510.21166      3488.435     
     16000   372.89163     -517.45648      7.0372039     -510.41927      3381.1518    
     17000   362.63403     -517.46683      6.8436226     -510.6232       3233.3673    
     18000   348.51163     -517.40019      6.5771049     -510.82308      3399.1534    
     19000   350.96053     -517.64391      6.6233205     -511.02059      3399.1534    
     20000   345.44868     -517.72834      6.5193009     -511.20903      3308.1171    
     21000   337.17893     -517.75586      6.3632344     -511.39262      3308.1171    
     22000   341.82535     -518.01925      6.4509216     -511.56833      3240.7937    
     23000   312.41997     -517.63335      5.8959838     -511.73736      3339.0428    
     24000   330.67132     -518.1415       6.2404229     -511.90107      3240.1174    
     25000   344.05005     -518.55031      6.4929061     -512.0574       3240.1174    
     26000   307.01677     -518.00257      5.7940147     -512.20856      3240.1174    
     27000   336.50494     -518.70218      6.3505149     -512.35167      3240.1174    
     28000   292.84229     -518.01612      5.5265142     -512.48961      3240.1174    
     29000   318.05075     -518.62388      6.0022478     -512.62164      3240.1174    
     30000   312.23458     -518.6404       5.8924852     -512.74791      3240.1174    
     31000   302.0277      -518.56727      5.6998611     -512.8674       3240.1174    
     32000   314.83603     -518.92394      5.9415797     -512.98236      3240.1174    
     33000   316.75141     -519.06939      5.9777266     -513.09167      3240.1174    
     34000   311.6381      -519.07588      5.8812284     -513.19465      3240.1174    
     35000   295.2035      -518.86231      5.5710749     -513.29123      3240.1174    
     36000   295.3109      -518.95267      5.5731017     -513.37957      3240.1174    
     37000   308.13902     -519.27817      5.8151937     -513.46298      3240.1174    
     38000   290.60466     -519.02501      5.4842857     -513.54072      3240.1174    
     39000   294.25588     -519.16447      5.5531914     -513.61127      3240.1174    
     40000   284.17834     -519.03919      5.3630082     -513.67618      3240.1174    
     41000   291.9782      -519.24616      5.510207      -513.73595      3240.1174    
     42000   265.25714     -518.79501      5.0059277     -513.78909      3240.1174    
     43000   295.96079     -519.42183      5.5853664     -513.83646      3240.1174    
     44000   276.80943     -519.10127      5.2239423     -513.87732      3301.0964    
     45000   293.38813     -519.44844      5.5368154     -513.91162      3301.0964    
     46000   302.54437     -519.64836      5.7096117     -513.93875      3301.0964    
     47000   284.54737     -519.32916      5.3699726     -513.95918      3301.0964    
     48000   264.95411     -518.97308      5.000209      -513.97287      3301.0964    
     49000   275.47202     -519.17804      5.1987027     -513.97934      3301.0964    
     50000   299.78465     -519.63589      5.6575303     -513.97836      3301.0964    
Loop time of 11.0492 on 1 procs for 50000 steps with 147 atoms

Performance: 390.980 ns/day, 0.061 hours/ns, 4525.228 timesteps/s
99.0% CPU use with 1 MPI tasks x 1 OpenMP threads

MPI task timing breakdown:
Section |  min time  |  avg time  |  max time  |%varavg| %total
---------------------------------------------------------------
Pair    | 10.65      | 10.65      | 10.65      |   0.0 | 96.39
Neigh   | 0.004863   | 0.004863   | 0.004863   |   0.0 |  0.04
Comm    | 0.011182   | 0.011182   | 0.011182   |   0.0 |  0.10
Output  | 0.045603   | 0.045603   | 0.045603   |   0.0 |  0.41
Modify  | 0.279      | 0.279      | 0.279      |   0.0 |  2.53
Other   |            | 0.0584     |            |       |  0.53

Nlocal:            147 ave         147 max         147 min
Histogram: 1 0 0 0 0 0 0 0 0 0
Nghost:              0 ave           0 max           0 min
Histogram: 1 0 0 0 0 0 0 0 0 0
Neighs:           4298 ave        4298 max        4298 min
Histogram: 1 0 0 0 0 0 0 0 0 0

Total # of neighbors = 4298
Ave neighs/atom = 29.238095
Neighbor list builds = 32
Dangerous builds = 0
Total wall time: 0:00:11
