LAMMPS (15 Sep 2022)
OMP_NUM_THREADS environment is not set. Defaulting to 1 thread. (src/comm.cpp:98)
  using 1 OpenMP thread(s) per MPI task
Loaded 1 plugins from C:\Users\becat\AppData\Local\LAMMPS 64-bit 15Sep2022\plugins
Lattice spacing in x,y,z = 4.079 4.079 4.079
Created orthogonal box = (0 0 0) to (40.79 40.79 40.79)
  1 by 1 by 1 MPI processor grid
Read molecule template np:
  1 molecules
  0 fragments
  14 atoms with max type 1
  0 bonds with max type 0
  0 angles with max type 0
  0 dihedrals with max type 0
  0 impropers with max type 0
Created 14 atoms
  using lattice units in orthogonal box = (18.118063 17.729817 16.689632) to (22.671937 23.060183 24.100368)
  create_atoms CPU = 0.000 seconds
Neighbor list info ...
  update: every = 1 steps, delay = 10 steps, check = yes
  max neighbors/atom: 2000, page size: 100000
  master list distance cutoff = 7.55
  ghost atom cutoff = 7.55
  binsize = 3.775, bins = 2 2 2
  1 neighbor lists, perpetual/occasional/extra = 1 0 0
  (1) pair eam, perpetual
      attributes: half, newton on
      pair build: half/bin/atomonly/newton
      stencil: half/bin/3d
      bin: standard
Setting up Verlet run ...
  Unit style    : metal
  Current step  : 0
  Time step     : 0.001
Per MPI rank memory allocation (min/avg/max) = 4.41 | 4.41 | 4.41 Mbytes
   Step          Temp          PotEng         KinEng         TotEng         Volume    
         0   300           -36.458076      0.50411457    -35.953961      179.88682    
      1000   2443.6778     -40.236274      4.1063118     -36.129962      174.40202    
      2000   1856.9658     -39.757554      3.1204117     -36.637142      155.09304    
      3000   1203.2608     -39.155197      2.0219376     -37.133259      162.88053    
      4000   1391.1628     -39.905515      2.3376847     -37.56783       177.35019    
      5000   1038.8118     -39.656183      1.7456005     -37.910583      206.42666    
      6000   1578.4429     -40.931474      2.6523869     -38.279087      135.86687    
      7000   1461.0554     -41.11963       2.455131      -38.664499      205.07834    
      8000   957.40943     -40.597458      1.6088135     -38.988644      201.70036    
      9000   1134.5431     -41.228269      1.9064657     -39.321803      182.90543    
     10000   1159.561      -41.595475      1.9485052     -39.646969      161.28205    
     11000   959.04053     -41.552558      1.6115543     -39.941003      155.38573    
     12000   635.02676     -41.284607      1.0670875     -40.21752       169.62992    
     13000   611.45471     -41.488528      1.0274774     -40.46105       173.07183    
     14000   923.72446     -42.21107       1.5522099     -40.65886       180.30105    
     15000   577.58118     -41.820596      0.97055696    -40.850039      137.23953    
     16000   767.02616     -42.336033      1.2888969     -41.047136      130.34617    
     17000   681.57219     -42.361823      1.1453016     -41.216521      130.54469    
     18000   623.76993     -42.463933      1.0481717     -41.415762      141.57683    
     19000   610.40729     -42.602391      1.0257174     -41.576673      171.87869    
     20000   732.30866     -42.966441      1.2305582     -41.735883      157.80999    
     21000   629.321       -42.941308      1.0574996     -41.883808      157.80999    
     22000   630.14843     -43.073082      1.05889       -42.014192      157.80999    
     23000   622.22857     -43.181309      1.0455816     -42.135727      157.80999    
     24000   433.3897      -42.975966      0.72826021    -42.247706      157.80999    
     25000   306.74262     -42.863434      0.51544475    -42.347989      157.80999    
     26000   244.54505     -42.843899      0.41092907    -42.43297       157.80999    
     27000   421.0424      -43.219154      0.70751202    -42.511642      157.80999    
     28000   398.10724     -43.252777      0.66897219    -42.583805      135.86335    
     29000   268.36743     -43.101725      0.45095977    -42.650765      135.86335    
     30000   419.03672     -43.415308      0.70414172    -42.711166      135.86335    
     31000   379.12029     -43.402964      0.63706686    -42.765897      135.86335    
     32000   252.47747     -43.240155      0.42425857    -42.815896      135.86335    
     33000   286.60528     -43.342269      0.48160632    -42.860662      135.86335    
     34000   262.59566     -43.343651      0.44126099    -42.90239       135.86335    
     35000   327.36254     -43.490108      0.55009408    -42.940014      135.86335    
     36000   209.57095     -43.325926      0.35215923    -42.973766      135.86335    
     37000   263.19814     -43.445758      0.44227338    -43.003484      135.86335    
     38000   242.41603     -43.43727       0.4073515     -43.029918      135.86335    
     39000   282.20409     -43.527773      0.47421064    -43.053563      135.86335    
     40000   212.96415     -43.432568      0.35786109    -43.074707      135.86335    
     41000   250.33031     -43.51408       0.42065053    -43.09343       135.86335    
     42000   219.2416      -43.477926      0.36840961    -43.109516      135.86335    
     43000   204.58533     -43.466977      0.34378148    -43.123195      135.86335    
     44000   271.02045     -43.589892      0.45541786    -43.134474      135.86335    
     45000   209.20135     -43.494889      0.35153816    -43.143351      135.86335    
     46000   232.71233     -43.541156      0.39104558    -43.15011       135.86335    
     47000   173.43569     -43.44614       0.29143819    -43.154702      135.86335    
     48000   248.16305     -43.574084      0.4170087     -43.157076      135.86335    
     49000   192.97983     -43.481544      0.32427982    -43.157264      135.86335    
     50000   141.45066     -43.392969      0.23769112    -43.155278      135.86335    
Loop time of 0.609119 on 1 procs for 50000 steps with 14 atoms

Performance: 7092.210 ns/day, 0.003 hours/ns, 82085.766 timesteps/s
100.0% CPU use with 1 MPI tasks x 1 OpenMP threads

MPI task timing breakdown:
Section |  min time  |  avg time  |  max time  |%varavg| %total
---------------------------------------------------------------
Pair    | 0.45918    | 0.45918    | 0.45918    |   0.0 | 75.38
Neigh   | 0.000433   | 0.000433   | 0.000433   |   0.0 |  0.07
Comm    | 0.010648   | 0.010648   | 0.010648   |   0.0 |  1.75
Output  | 0.010872   | 0.010872   | 0.010872   |   0.0 |  1.78
Modify  | 0.10219    | 0.10219    | 0.10219    |   0.0 | 16.78
Other   |            | 0.0258     |            |       |  4.24

Nlocal:             14 ave          14 max          14 min
Histogram: 1 0 0 0 0 0 0 0 0 0
Nghost:              0 ave           0 max           0 min
Histogram: 1 0 0 0 0 0 0 0 0 0
Neighs:             91 ave          91 max          91 min
Histogram: 1 0 0 0 0 0 0 0 0 0

Total # of neighbors = 91
Ave neighs/atom = 6.5
Neighbor list builds = 80
Dangerous builds = 0
Total wall time: 0:00:00
