LAMMPS (15 Sep 2022)
OMP_NUM_THREADS environment is not set. Defaulting to 1 thread. (src/comm.cpp:98)
  using 1 OpenMP thread(s) per MPI task
Loaded 1 plugins from C:\Users\becat\AppData\Local\LAMMPS 64-bit 15Sep2022\plugins
Lattice spacing in x,y,z = 4.079 4.079 4.079
Created orthogonal box = (0 0 0) to (40.79 40.79 40.79)
  1 by 1 by 1 MPI processor grid
Read molecule template np:
  1 molecules
  0 fragments
  967 atoms with max type 1
  0 bonds with max type 0
  0 angles with max type 0
  0 dihedrals with max type 0
  0 impropers with max type 0
Created 967 atoms
  using lattice units in orthogonal box = (4.1066735 3.6566377 5.9963021) to (35.212881 37.06251 34.793699)
  create_atoms CPU = 0.000 seconds
Neighbor list info ...
  update: every = 1 steps, delay = 10 steps, check = yes
  max neighbors/atom: 2000, page size: 100000
  master list distance cutoff = 7.55
  ghost atom cutoff = 7.55
  binsize = 3.775, bins = 9 9 8
  1 neighbor lists, perpetual/occasional/extra = 1 0 0
  (1) pair eam, perpetual
      attributes: half, newton on
      pair build: half/bin/atomonly/newton
      stencil: half/bin/3d
      bin: standard
Setting up Verlet run ...
  Unit style    : metal
  Current step  : 0
  Time step     : 0.001
Per MPI rank memory allocation (min/avg/max) = 4.594 | 4.594 | 4.594 Mbytes
   Step          Temp          PotEng         KinEng         TotEng         Volume    
         0   300           -3596.8109      37.45959      -3559.3513      29924.239    
      1000   241.52902     -3589.4607      30.158594     -3559.3021      27475.386    
      2000   235.90204     -3588.6114      29.455979     -3559.1554      27475.386    
      3000   249.53777     -3590.0693      31.158609     -3558.9107      28297.427    
      4000   253.09085     -3590.1824      31.602265     -3558.5802      28297.427    
      5000   254.14094     -3589.9274      31.733384     -3558.194       28297.427    
      6000   269.32621     -3591.4256      33.629498     -3557.7961      28297.427    
      7000   261.61984     -3590.0883      32.66724      -3557.4211      28297.427    
      8000   270.87081     -3590.9071      33.822365     -3557.0847      28297.427    
      9000   264.51315     -3589.8072      33.028513     -3556.7787      28297.427    
     10000   259.1864      -3588.8438      32.363387     -3556.4804      28297.427    
     11000   266.57432     -3589.4611      33.285883     -3556.1752      28297.427    
     12000   268.56823     -3589.3919      33.534852     -3555.8571      27874.323    
     13000   267.1925      -3588.881       33.363071     -3555.5179      27874.323    
     14000   279.46988     -3590.0537      34.89609      -3555.1576      27874.323    
     15000   272.68934     -3588.8328      34.049436     -3554.7833      27874.323    
     16000   274.18115     -3588.6349      34.235711     -3554.3992      27874.323    
     17000   270.35731     -3587.7656      33.758246     -3554.0073      27874.323    
     18000   272.80217     -3587.6792      34.063525     -3553.6156      27874.323    
     19000   279.65322     -3588.1428      34.918983     -3553.2238      27874.323    
     20000   279.71077     -3587.7594      34.92617      -3552.8332      27874.323    
     21000   275.23739     -3586.8143      34.367599     -3552.4467      27874.323    
     22000   287.67155     -3587.9846      35.920194     -3552.0644      27874.323    
     23000   281.8843      -3586.8826      35.197568     -3551.6851      27874.323    
     24000   280.74257     -3586.3673      35.055005     -3551.3123      27874.323    
     25000   284.17101     -3586.4272      35.483098     -3550.9441      27874.323    
     26000   295.96862     -3587.537       36.956211     -3550.5807      27874.323    
     27000   291.71965     -3586.6492      36.425661     -3550.2235      27874.323    
     28000   294.04827     -3586.5898      36.716426     -3549.8734      27874.323    
     29000   292.80396     -3586.0923      36.561054     -3549.5313      27874.323    
     30000   288.01418     -3585.1609      35.962977     -3549.1979      27874.323    
     31000   299.86378     -3586.3133      37.442581     -3548.8707      27874.323    
     32000   288.09331     -3584.5269      35.972857     -3548.5541      27874.323    
     33000   295.82095     -3585.1824      36.937772     -3548.2446      27874.323    
     34000   303.41077     -3585.8321      37.885477     -3547.9466      27874.323    
     35000   297.46698     -3584.8044      37.143303     -3547.6611      27874.323    
     36000   299.35167     -3584.7634      37.378636     -3547.3847      27874.323    
     37000   299.34241     -3584.4984      37.37748      -3547.1209      27874.323    
     38000   297.35477     -3583.9984      37.129292     -3546.8691      27874.323    
     39000   300.5826      -3584.1618      37.532337     -3546.6295      27874.323    
     40000   310.3377      -3585.1531      38.75041      -3546.4027      27874.323    
     41000   305.44697     -3584.3308      38.139728     -3546.1911      27840.924    
     42000   302.54418     -3583.7706      37.77727      -3545.9933      27840.924    
     43000   298.85944     -3583.1292      37.317174     -3545.8121      27840.924    
     44000   301.27091     -3583.2647      37.618283     -3545.6464      27840.924    
     45000   308.18576     -3583.9794      38.481708     -3545.4977      27840.924    
     46000   294.81985     -3582.1792      36.812769     -3545.3664      27840.924    
     47000   313.40096     -3584.385       39.132905     -3545.2521      27840.924    
     48000   312.44101     -3584.169       39.013041     -3545.1559      27840.924    
     49000   314.77233     -3584.3835      39.304142     -3545.0793      28244.499    
     50000   310.90309     -3583.8434      38.821007     -3545.0224      28072.296    
Loop time of 51.8651 on 1 procs for 50000 steps with 967 atoms

Performance: 83.293 ns/day, 0.288 hours/ns, 964.039 timesteps/s
100.0% CPU use with 1 MPI tasks x 1 OpenMP threads

MPI task timing breakdown:
Section |  min time  |  avg time  |  max time  |%varavg| %total
---------------------------------------------------------------
Pair    | 50.805     | 50.805     | 50.805     |   0.0 | 97.96
Neigh   | 0.005741   | 0.005741   | 0.005741   |   0.0 |  0.01
Comm    | 0.008057   | 0.008057   | 0.008057   |   0.0 |  0.02
Output  | 0.1419     | 0.1419     | 0.1419     |   0.0 |  0.27
Modify  | 0.76421    | 0.76421    | 0.76421    |   0.0 |  1.47
Other   |            | 0.1399     |            |       |  0.27

Nlocal:            967 ave         967 max         967 min
Histogram: 1 0 0 0 0 0 0 0 0 0
Nghost:              0 ave           0 max           0 min
Histogram: 1 0 0 0 0 0 0 0 0 0
Neighs:          37220 ave       37220 max       37220 min
Histogram: 1 0 0 0 0 0 0 0 0 0

Total # of neighbors = 37220
Ave neighs/atom = 38.490176
Neighbor list builds = 6
Dangerous builds = 0
Total wall time: 0:00:51
