LAMMPS (15 Sep 2022)
OMP_NUM_THREADS environment is not set. Defaulting to 1 thread. (src/comm.cpp:98)
  using 1 OpenMP thread(s) per MPI task
Loaded 1 plugins from C:\Users\becat\AppData\Local\LAMMPS 64-bit 15Sep2022\plugins
Lattice spacing in x,y,z = 4.079 4.079 4.079
Created orthogonal box = (0 0 0) to (40.79 40.79 40.79)
  1 by 1 by 1 MPI processor grid
Read molecule template np:
  1 molecules
  0 fragments
  489 atoms with max type 1
  0 bonds with max type 0
  0 angles with max type 0
  0 dihedrals with max type 0
  0 impropers with max type 0
Created 489 atoms
  using lattice units in orthogonal box = (4.3080646 5.7260097 5.5857824) to (36.481935 35.06399 35.204218)
  create_atoms CPU = 0.000 seconds
Neighbor list info ...
  update: every = 1 steps, delay = 10 steps, check = yes
  max neighbors/atom: 2000, page size: 100000
  master list distance cutoff = 7.55
  ghost atom cutoff = 7.55
  binsize = 3.775, bins = 9 8 8
  1 neighbor lists, perpetual/occasional/extra = 1 0 0
  (1) pair eam, perpetual
      attributes: half, newton on
      pair build: half/bin/atomonly/newton
      stencil: half/bin/3d
      bin: standard
Setting up Verlet run ...
  Unit style    : metal
  Current step  : 0
  Time step     : 0.001
Per MPI rank memory allocation (min/avg/max) = 4.568 | 4.568 | 4.568 Mbytes
   Step          Temp          PotEng         KinEng         TotEng         Volume    
         0   300           -1790.0706      18.923685     -1771.1469      27957.327    
      1000   280.32424     -1788.8218      17.682559     -1771.1393      20479.832    
      2000   309.12695     -1790.6132      19.499404     -1771.1138      24740.206    
      3000   285.69199     -1789.0919      18.021151     -1771.0707      23789.135    
      4000   305.30648     -1790.2671      19.258412     -1771.0087      21222.96     
      5000   273.1132      -1788.1551      17.227694     -1770.9274      21222.96     
      6000   285.2793      -1788.8224      17.995119     -1770.8273      21222.96     
      7000   297.69238     -1789.4838      18.778123     -1770.7057      23459.235    
      8000   299.86929     -1789.4796      18.91544      -1770.5642      23302.044    
      9000   288.38233     -1788.597       18.190855     -1770.4061      23302.044    
     10000   278.73974     -1787.8178      17.58261      -1770.2352      23302.044    
     11000   286.88179     -1788.1529      18.096202     -1770.0567      23302.044    
     12000   303.72198     -1789.033       19.158464     -1769.8745      23302.044    
     13000   301.32956     -1788.7052      19.007553     -1769.6976      23302.044    
     14000   295.32054     -1788.1619      18.62851      -1769.5334      23302.044    
     15000   281.68794     -1787.155       17.76858      -1769.3865      23302.044    
     16000   291.53508     -1787.6479      18.389727     -1769.2582      23302.044    
     17000   305.79957     -1788.439       19.289516     -1769.1495      23302.044    
     18000   304.75174     -1788.2834      19.22342      -1769.06        23302.044    
     19000   284.07611     -1786.9063      17.919223     -1768.9871      22336.919    
     20000   296.51952     -1787.6332      18.70414      -1768.929       22745.986    
     21000   284.43851     -1786.8249      17.942083     -1768.8828      22745.986    
     22000   295.45684     -1787.4839      18.637108     -1768.8468      22745.986    
     23000   302.75802     -1787.9166      19.097658     -1768.8189      22745.986    
     24000   292.84067     -1787.2693      18.472082     -1768.7972      22745.986    
     25000   314.80935     -1788.6386      19.857844     -1768.7807      22461.038    
     26000   301.97807     -1787.8176      19.04846      -1768.7691      22840.664    
     27000   293.31418     -1787.264       18.501951     -1768.762       22618.214    
     28000   302.83385     -1787.8603      19.102441     -1768.7579      22618.214    
     29000   309.25138     -1788.2641      19.507253     -1768.7568      22618.214    
     30000   300.4263      -1787.7095      18.950576     -1768.759       22618.214    
     31000   311.96748     -1788.4434      19.678581     -1768.7648      22618.214    
     32000   311.07918     -1788.3971      19.622548     -1768.7746      22618.214    
     33000   305.21296     -1788.0405      19.252513     -1768.788       22618.214    
     34000   298.38997     -1787.6275      18.822126     -1768.8054      22618.214    
     35000   298.87397     -1787.6786      18.852656     -1768.8259      22618.214    
     36000   292.73313     -1787.3145      18.465299     -1768.8492      22618.214    
     37000   308.3243      -1788.3248      19.448774     -1768.876       22406.512    
     38000   312.58121     -1788.6247      19.717295     -1768.9074      22257.944    
     39000   307.2369      -1788.3231      19.380182     -1768.9429      22719.733    
     40000   306.18468     -1788.2968      19.313808     -1768.983       22719.733    
     41000   304.58564     -1788.241       19.212942     -1769.028       22719.733    
     42000   305.87634     -1788.3729      19.294359     -1769.0785      22719.733    
     43000   297.81355     -1787.9202      18.785766     -1769.1345      22719.733    
     44000   304.87668     -1788.4285      19.231301     -1769.1972      22719.733    
     45000   292.13601     -1787.6941      18.427633     -1769.2665      22719.733    
     46000   300.38154     -1788.2914      18.947753     -1769.3436      22719.733    
     47000   314.73026     -1789.2829      19.852854     -1769.4301      22719.733    
     48000   303.97789     -1788.7007      19.174606     -1769.5261      22719.733    
     49000   302.1848      -1788.6936      19.0615       -1769.6321      22719.733    
     50000   297.62799     -1788.5229      18.774061     -1769.7488      22719.733    
Loop time of 33.2589 on 1 procs for 50000 steps with 489 atoms

Performance: 129.890 ns/day, 0.185 hours/ns, 1503.355 timesteps/s
98.6% CPU use with 1 MPI tasks x 1 OpenMP threads

MPI task timing breakdown:
Section |  min time  |  avg time  |  max time  |%varavg| %total
---------------------------------------------------------------
Pair    | 32.426     | 32.426     | 32.426     |   0.0 | 97.50
Neigh   | 0.010736   | 0.010736   | 0.010736   |   0.0 |  0.03
Comm    | 0.01226    | 0.01226    | 0.01226    |   0.0 |  0.04
Output  | 0.10264    | 0.10264    | 0.10264    |   0.0 |  0.31
Modify  | 0.58756    | 0.58756    | 0.58756    |   0.0 |  1.77
Other   |            | 0.1196     |            |       |  0.36

Nlocal:            489 ave         489 max         489 min
Histogram: 1 0 0 0 0 0 0 0 0 0
Nghost:              0 ave           0 max           0 min
Histogram: 1 0 0 0 0 0 0 0 0 0
Neighs:          16707 ave       16707 max       16707 min
Histogram: 1 0 0 0 0 0 0 0 0 0

Total # of neighbors = 16707
Ave neighs/atom = 34.165644
Neighbor list builds = 18
Dangerous builds = 0
Total wall time: 0:00:33
