LAMMPS (15 Sep 2022)
OMP_NUM_THREADS environment is not set. Defaulting to 1 thread. (src/comm.cpp:98)
  using 1 OpenMP thread(s) per MPI task
Loaded 1 plugins from C:\Users\becat\AppData\Local\LAMMPS 64-bit 15Sep2022\plugins
Lattice spacing in x,y,z = 4.079 4.079 4.079
Created orthogonal box = (0 0 0) to (40.79 40.79 40.79)
  1 by 1 by 1 MPI processor grid
Read molecule template np:
  1 molecules
  0 fragments
  12 atoms with max type 1
  0 bonds with max type 0
  0 angles with max type 0
  0 dihedrals with max type 0
  0 impropers with max type 0
Created 12 atoms
  using lattice units in orthogonal box = (17.704546 17.759875 17.749171) to (23.085454 23.030125 23.040829)
  create_atoms CPU = 0.000 seconds
Neighbor list info ...
  update: every = 1 steps, delay = 10 steps, check = yes
  max neighbors/atom: 2000, page size: 100000
  master list distance cutoff = 7.55
  ghost atom cutoff = 7.55
  binsize = 3.775, bins = 2 2 2
  1 neighbor lists, perpetual/occasional/extra = 1 0 0
  (1) pair eam, perpetual
      attributes: half, newton on
      pair build: half/bin/atomonly/newton
      stencil: half/bin/3d
      bin: standard
Setting up Verlet run ...
  Unit style    : metal
  Current step  : 0
  Time step     : 0.001
Per MPI rank memory allocation (min/avg/max) = 4.41 | 4.41 | 4.41 Mbytes
   Step          Temp          PotEng         KinEng         TotEng         Volume    
         0   300           -28.516665      0.42655848    -28.090106      150.06472    
      1000   2398.0761     -31.791555      3.4097324     -28.381823      209.99165    
      2000   1741.819      -31.507479      2.4766255     -29.030854      186.756      
      3000   2158.3784     -32.772245      3.0689154     -29.70333       126.02006    
      4000   1683.5909     -32.624592      2.3938332     -30.230758      189.52755    
      5000   1582.8617     -32.996126      2.2506102     -30.745516      130.02802    
      6000   2035.2119     -34.132533      2.8937896     -31.238744      91.709515    
      7000   1794.4761     -34.27727       2.5514966     -31.725773      99.332634    
      8000   1174.6539     -33.871999      1.6701952     -32.201804      188.54835    
      9000   1038.5594     -34.084193      1.4766877     -32.607506      139.48736    
     10000   1229.7223     -34.694555      1.748495      -32.94606       124.53173    
     11000   1195.3354     -35.004334      1.6996016     -33.304733      102.00073    
     12000   1034.62       -35.062617      1.4710865     -33.59153       95.99753     
     13000   610.82997     -34.722388      0.86851568    -33.853873      133.83936    
     14000   946.25816     -35.422739      1.3454481     -34.077291      114.99885    
     15000   988.88698     -35.705003      1.4060604     -34.298942      127.25772    
     16000   899.43147     -35.769789      1.2788671     -34.490922      125.98204    
     17000   596.01372     -35.517468      0.84744901    -34.670019      137.54312    
     18000   594.5464      -35.68663       0.84536269    -34.841268      114.25717    
     19000   441.29153     -35.610254      0.62745548    -34.982799      114.25717    
     20000   436.48097     -35.744086      0.62061553    -35.12347       117.58746    
     21000   536.46481     -35.999505      0.76277871    -35.236726      122.93421    
     22000   310.67        -35.794572      0.44172973    -35.352842      115.59423    
     23000   516.21409     -36.186744      0.73398499    -35.452759      115.59423    
     24000   544.78812     -36.31699       0.7746133     -35.542377      115.2441     
     25000   405.64019     -36.200373      0.57676421    -35.623609      115.2441     
     26000   446.4522      -36.332811      0.63479324    -35.698017      115.2441     
     27000   223.12204     -36.079923      0.31724866    -35.762674      115.2441     
     28000   427.47882     -36.430194      0.60781572    -35.822379      115.2441     
     29000   305.30978     -36.309389      0.43410825    -35.875281      115.2441     
     30000   289.27496     -36.337561      0.41130895    -35.926252      119.37666    
     31000   308.16745     -36.40759       0.43817147    -35.969419      119.37666    
     32000   238.62798     -36.34813       0.33929597    -36.008834      119.37666    
     33000   219.06108     -36.35672       0.31147453    -36.045245      119.37666    
     34000   205.56657     -36.36834       0.29228721    -36.076053      119.37666    
     35000   211.10225     -36.40497       0.30015818    -36.104812      119.37666    
     36000   272.37469     -36.516969      0.38727911    -36.12969       119.37666    
     37000   176.20514     -36.402633      0.25053933    -36.152093      119.37666    
     38000   176.0807      -36.422138      0.25036239    -36.171776      119.37666    
     39000   178.10148     -36.44255       0.25323565    -36.189314      119.37666    
     40000   243.45989     -36.550529      0.34616626    -36.204363      119.37666    
     41000   236.17941     -36.552467      0.33581443    -36.216653      119.37666    
     42000   185.8191      -36.491392      0.26420905    -36.227183      119.37666    
     43000   207.52473     -36.530721      0.29507144    -36.23565       119.37666    
     44000   170.38745     -36.484051      0.24226737    -36.241783      119.37666    
     45000   195.1806      -36.523519      0.2775198     -36.245999      119.37666    
     46000   134.17568     -36.439054      0.19077925    -36.248275      119.37666    
     47000   164.40579     -36.482301      0.23376227    -36.248539      119.37666    
     48000   175.12122     -36.49585       0.24899814    -36.246852      119.37666    
     49000   161.08952     -36.472151      0.22904701    -36.243104      119.37666    
     50000   224.83613     -36.557014      0.31968586    -36.237328      119.37666    
Loop time of 0.317315 on 1 procs for 50000 steps with 12 atoms

Performance: 13614.232 ns/day, 0.002 hours/ns, 157572.129 timesteps/s
98.5% CPU use with 1 MPI tasks x 1 OpenMP threads

MPI task timing breakdown:
Section |  min time  |  avg time  |  max time  |%varavg| %total
---------------------------------------------------------------
Pair    | 0.22557    | 0.22557    | 0.22557    |   0.0 | 71.09
Neigh   | 0.00024    | 0.00024    | 0.00024    |   0.0 |  0.08
Comm    | 0.006497   | 0.006497   | 0.006497   |   0.0 |  2.05
Output  | 0.00402    | 0.00402    | 0.00402    |   0.0 |  1.27
Modify  | 0.065485   | 0.065485   | 0.065485   |   0.0 | 20.64
Other   |            | 0.0155     |            |       |  4.89

Nlocal:             12 ave          12 max          12 min
Histogram: 1 0 0 0 0 0 0 0 0 0
Nghost:              0 ave           0 max           0 min
Histogram: 1 0 0 0 0 0 0 0 0 0
Neighs:             66 ave          66 max          66 min
Histogram: 1 0 0 0 0 0 0 0 0 0

Total # of neighbors = 66
Ave neighs/atom = 5.5
Neighbor list builds = 84
Dangerous builds = 0
Total wall time: 0:00:00
