LAMMPS (15 Sep 2022)
OMP_NUM_THREADS environment is not set. Defaulting to 1 thread. (src/comm.cpp:98)
  using 1 OpenMP thread(s) per MPI task
Loaded 1 plugins from C:\Users\becat\AppData\Local\LAMMPS 64-bit 15Sep2022\plugins
Lattice spacing in x,y,z = 4.079 4.079 4.079
Created orthogonal box = (0 0 0) to (40.79 40.79 40.79)
  1 by 1 by 1 MPI processor grid
Read molecule template np:
  1 molecules
  0 fragments
  484 atoms with max type 1
  0 bonds with max type 0
  0 angles with max type 0
  0 dihedrals with max type 0
  0 impropers with max type 0
Created 484 atoms
  using lattice units in orthogonal box = (6.8627598 7.007434 9.9221073) to (32.89158 33.732669 30.867893)
  create_atoms CPU = 0.000 seconds
Neighbor list info ...
  update: every = 1 steps, delay = 10 steps, check = yes
  max neighbors/atom: 2000, page size: 100000
  master list distance cutoff = 7.55
  ghost atom cutoff = 7.55
  binsize = 3.775, bins = 7 8 6
  1 neighbor lists, perpetual/occasional/extra = 1 0 0
  (1) pair eam, perpetual
      attributes: half, newton on
      pair build: half/bin/atomonly/newton
      stencil: half/bin/3d
      bin: standard
Setting up Verlet run ...
  Unit style    : metal
  Current step  : 0
  Time step     : 0.001
Per MPI rank memory allocation (min/avg/max) = 4.565 | 4.565 | 4.565 Mbytes
   Step          Temp          PotEng         KinEng         TotEng         Volume    
         0   300           -1772.041       18.729795     -1753.3112      14570.44     
      1000   301.1167      -1772.1075      18.799514     -1753.308       14570.44     
      2000   283.22116     -1770.978       17.682248     -1753.2958      14570.44     
      3000   303.89836     -1772.2495      18.97318      -1753.2763      14570.44     
      4000   280.51361     -1770.7623      17.513208     -1753.2491      13281.481    
      5000   286.80173     -1771.1184      17.905792     -1753.2126      13685.978    
      6000   294.68795     -1771.564       18.39815      -1753.1659      13685.978    
      7000   291.72009     -1771.3218      18.212858     -1753.1089      13685.978    
      8000   303.02312     -1771.9597      18.918536     -1753.0411      13685.978    
      9000   294.25139     -1771.3328      18.370894     -1752.9619      13685.978    
     10000   313.07694     -1772.4169      19.546223     -1752.8707      13685.978    
     11000   285.65668     -1770.599       17.834303     -1752.7647      13685.978    
     12000   287.18204     -1770.5734      17.929536     -1752.6439      13685.978    
     13000   279.48349     -1769.9558      17.448895     -1752.5069      13685.978    
     14000   312.06211     -1771.8365      19.482864     -1752.3536      13685.978    
     15000   288.60412     -1770.2048      18.01832      -1752.1865      13685.978    
     16000   310.97985     -1771.4231      19.415296     -1752.0078      13685.978    
     17000   324.66442     -1772.0906      20.26966      -1751.821       13685.978    
     18000   298.99271     -1770.2981      18.666907     -1751.6312      13685.978    
     19000   313.47645     -1771.0162      19.571165     -1751.445       13685.978    
     20000   300.79888     -1770.048       18.779672     -1751.2683      13685.978    
     21000   295.41157     -1769.5516      18.443327     -1751.1083      13673.699    
     22000   300.82351     -1769.7493      18.781209     -1750.9681      13673.699    
     23000   325.45278     -1771.1686      20.31888      -1750.8497      13673.699    
     24000   310.5297      -1770.1417      19.387192     -1750.7545      13673.699    
     25000   295.13844     -1769.1092      18.426275     -1750.683       13673.699    
     26000   300.85349     -1769.418       18.78308      -1750.635       13673.699    
     27000   325.63736     -1770.9388      20.330403     -1750.6083      13673.699    
     28000   322.06186     -1770.7089      20.107175     -1750.6018      13673.699    
     29000   311.04185     -1770.0328      19.419167     -1750.6136      13673.699    
     30000   312.55465     -1770.1552      19.513615     -1750.6416      13673.699    
     31000   314.22171     -1770.3006      19.617694     -1750.6829      13673.699    
     32000   307.69945     -1769.9464      19.210492     -1750.7359      13673.699    
     33000   301.80594     -1769.6416      18.842544     -1750.7991      13673.699    
     34000   309.58155     -1770.1977      19.327997     -1750.8697      13673.699    
     35000   317.12331     -1770.7425      19.798849     -1750.9437      13673.699    
     36000   312.21331     -1770.5123      19.492304     -1751.02        13673.699    
     37000   321.54662     -1771.1716      20.075007     -1751.0966      13673.699    
     38000   313.27757     -1770.7315      19.558749     -1751.1727      13673.699    
     39000   316.99953     -1771.0389      19.791121     -1751.2477      13673.699    
     40000   303.03376     -1770.2401      18.919201     -1751.3209      13673.699    
     41000   304.09927     -1770.3782      18.985724     -1751.3925      13673.699    
     42000   319.12163     -1771.3856      19.923609     -1751.462       13442.714    
     43000   312.36433     -1771.032       19.501733     -1751.5303      13316.701    
     44000   307.5821      -1770.8005      19.203166     -1751.5974      13316.701    
     45000   304.33424     -1770.6646      19.000393     -1751.6643      13316.701    
     46000   311.78873     -1771.1968      19.465797     -1751.731       13316.701    
     47000   300.91631     -1770.5845      18.787003     -1751.7975      13316.701    
     48000   305.1416      -1770.9142      19.050799     -1751.8634      13313.397    
     49000   310.56649     -1771.3195      19.389489     -1751.93        13313.397    
     50000   303.6753      -1770.9562      18.959254     -1751.997       13313.397    
Loop time of 37.0532 on 1 procs for 50000 steps with 484 atoms

Performance: 116.589 ns/day, 0.206 hours/ns, 1349.411 timesteps/s
99.0% CPU use with 1 MPI tasks x 1 OpenMP threads

MPI task timing breakdown:
Section |  min time  |  avg time  |  max time  |%varavg| %total
---------------------------------------------------------------
Pair    | 36.163     | 36.163     | 36.163     |   0.0 | 97.60
Neigh   | 0.004736   | 0.004736   | 0.004736   |   0.0 |  0.01
Comm    | 0.013105   | 0.013105   | 0.013105   |   0.0 |  0.04
Output  | 0.11452    | 0.11452    | 0.11452    |   0.0 |  0.31
Modify  | 0.62993    | 0.62993    | 0.62993    |   0.0 |  1.70
Other   |            | 0.1275     |            |       |  0.34

Nlocal:            484 ave         484 max         484 min
Histogram: 1 0 0 0 0 0 0 0 0 0
Nghost:              0 ave           0 max           0 min
Histogram: 1 0 0 0 0 0 0 0 0 0
Neighs:          17221 ave       17221 max       17221 min
Histogram: 1 0 0 0 0 0 0 0 0 0

Total # of neighbors = 17221
Ave neighs/atom = 35.580579
Neighbor list builds = 7
Dangerous builds = 0
Total wall time: 0:00:37
