LAMMPS (15 Sep 2022)
OMP_NUM_THREADS environment is not set. Defaulting to 1 thread. (src/comm.cpp:98)
  using 1 OpenMP thread(s) per MPI task
Loaded 1 plugins from C:\Users\becat\AppData\Local\LAMMPS 64-bit 15Sep2022\plugins
Lattice spacing in x,y,z = 4.079 4.079 4.079
Created orthogonal box = (0 0 0) to (40.79 40.79 40.79)
  1 by 1 by 1 MPI processor grid
Read molecule template np:
  1 molecules
  0 fragments
  34 atoms with max type 1
  0 bonds with max type 0
  0 angles with max type 0
  0 dihedrals with max type 0
  0 impropers with max type 0
Created 34 atoms
  using lattice units in orthogonal box = (15.946984 16.912247 16.557895) to (24.649566 24.552232 24.65746)
  create_atoms CPU = 0.000 seconds
Neighbor list info ...
  update: every = 1 steps, delay = 10 steps, check = yes
  max neighbors/atom: 2000, page size: 100000
  master list distance cutoff = 7.55
  ghost atom cutoff = 7.55
  binsize = 3.775, bins = 3 3 3
  1 neighbor lists, perpetual/occasional/extra = 1 0 0
  (1) pair eam, perpetual
      attributes: half, newton on
      pair build: half/bin/atomonly/newton
      stencil: half/bin/3d
      bin: standard
Setting up Verlet run ...
  Unit style    : metal
  Current step  : 0
  Time step     : 0.001
Per MPI rank memory allocation (min/avg/max) = 4.537 | 4.537 | 4.537 Mbytes
   Step          Temp          PotEng         KinEng         TotEng         Volume    
         0   300           -113.68677      1.2796754     -112.4071       538.52059    
      1000   137.69555     -112.99163      0.58735204    -112.40428      538.52059    
      2000   212.17689     -113.30073      0.90505853    -112.39567      538.52059    
      3000   195.41465     -113.21484      0.83355777    -112.38129      515.10983    
      4000   212.14395     -113.26566      0.90491801    -112.36074      515.10983    
      5000   196.14863     -113.17107      0.83668861    -112.33438      520.51427    
      6000   196.11228     -113.13847      0.83653357    -112.30194      520.51427    
      7000   213.11036     -113.17188      0.9090403     -112.26284      520.51427    
      8000   247.93995     -113.27781      1.0576089     -112.2202       509.22693    
      9000   200.18214     -113.03204      0.85389391    -112.17814      509.22693    
     10000   233.57312     -113.13187      0.99632593    -112.13554      509.22693    
     11000   208.07        -112.98359      0.88754025    -112.09605      509.22693    
     12000   228.71115     -113.03537      0.9755868     -112.05978      511.62301    
     13000   213.54567     -112.93813      0.91089717    -112.02723      511.62301    
     14000   234.88771     -113.00018      1.0019334     -111.99824      511.62301    
     15000   220.81853     -112.91273      0.94192015    -111.97081      511.62301    
     16000   286.22961     -113.16665      1.2209367     -111.94571      511.62301    
     17000   313.04633     -113.25546      1.3353257     -111.92014      511.62301    
     18000   279.14198     -113.08492      1.1907038     -111.89421      511.62301    
     19000   219.18731     -112.80304      0.93496206    -111.86808      511.62301    
     20000   244.34355     -112.88407      1.0422681     -111.8418       527.06717    
     21000   242.31223     -112.84721      1.0336034     -111.81361      506.77474    
     22000   275.66999     -112.958        1.1758937     -111.7821       506.77474    
     23000   265.81833     -112.88471      1.1338706     -111.75084      506.77474    
     24000   304.20183     -113.01499      1.2975987     -111.71739      506.77474    
     25000   247.20028     -112.74022      1.0544537     -111.68577      506.77474    
     26000   237.59214     -112.66547      1.0134694     -111.652        506.77474    
     27000   312.63107     -112.95047      1.3335543     -111.61691      497.65108    
     28000   372.65525     -113.17342      1.5895926     -111.58383      497.65108    
     29000   263.99392     -112.67759      1.1260885     -111.5515       497.65108    
     30000   243.05667     -112.55771      1.0367788     -111.52093      497.65108    
     31000   327.62251     -112.88966      1.3975016     -111.49215      497.65108    
     32000   299.5375      -112.74327      1.2777026     -111.46557      497.65108    
     33000   302.46765     -112.7309       1.2902014     -111.4407       497.65108    
     34000   347.22655     -112.89861      1.4811243     -111.41749      479.49608    
     35000   300.91613     -112.67972      1.2835833     -111.39614      482.69603    
     36000   343.74622     -112.844        1.4662787     -111.37773      482.69603    
     37000   308.52999     -112.67747      1.3160608     -111.36141      482.69603    
     38000   307.54258     -112.65974      1.3118489     -111.34789      482.69603    
     39000   346.36366     -112.81418      1.4774436     -111.33674      482.69603    
     40000   358.75062     -112.85882      1.5302812     -111.32854      482.69603    
     41000   277.03202     -112.50451      1.1817036     -111.32281      482.69603    
     42000   273.5321      -112.48641      1.1667744     -111.31964      482.69603    
     43000   290.64152     -112.55867      1.2397561     -111.31891      482.69603    
     44000   323.20496     -112.69973      1.3786581     -111.32107      482.69603    
     45000   349.36484     -112.81655      1.4902453     -111.32631      461.77649    
     46000   331.33581     -112.74833      1.413341      -111.33499      469.50723    
     47000   248.7828      -112.40794      1.0612041     -111.34674      469.50723    
     48000   328.31211     -112.76303      1.4004431     -111.36259      469.50723    
     49000   339.97113     -112.83234      1.4501757     -111.38216      469.50723    
     50000   347.35055     -112.88667      1.4816532     -111.40502      469.50723    
Loop time of 1.17866 on 1 procs for 50000 steps with 34 atoms

Performance: 3665.192 ns/day, 0.007 hours/ns, 42421.198 timesteps/s
98.1% CPU use with 1 MPI tasks x 1 OpenMP threads

MPI task timing breakdown:
Section |  min time  |  avg time  |  max time  |%varavg| %total
---------------------------------------------------------------
Pair    | 1.064      | 1.064      | 1.064      |   0.0 | 90.27
Neigh   | 0.000138   | 0.000138   | 0.000138   |   0.0 |  0.01
Comm    | 0.006216   | 0.006216   | 0.006216   |   0.0 |  0.53
Output  | 0.01048    | 0.01048    | 0.01048    |   0.0 |  0.89
Modify  | 0.080587   | 0.080587   | 0.080587   |   0.0 |  6.84
Other   |            | 0.01721    |            |       |  1.46

Nlocal:             34 ave          34 max          34 min
Histogram: 1 0 0 0 0 0 0 0 0 0
Nghost:              0 ave           0 max           0 min
Histogram: 1 0 0 0 0 0 0 0 0 0
Neighs:            512 ave         512 max         512 min
Histogram: 1 0 0 0 0 0 0 0 0 0

Total # of neighbors = 512
Ave neighs/atom = 15.058824
Neighbor list builds = 11
Dangerous builds = 0
Total wall time: 0:00:01
