LAMMPS (15 Sep 2022)
OMP_NUM_THREADS environment is not set. Defaulting to 1 thread. (src/comm.cpp:98)
  using 1 OpenMP thread(s) per MPI task
Loaded 1 plugins from C:\Users\becat\AppData\Local\LAMMPS 64-bit 15Sep2022\plugins
Lattice spacing in x,y,z = 4.079 4.079 4.079
Created orthogonal box = (0 0 0) to (40.79 40.79 40.79)
  1 by 1 by 1 MPI processor grid
Read molecule template np:
  1 molecules
  0 fragments
  35 atoms with max type 1
  0 bonds with max type 0
  0 angles with max type 0
  0 dihedrals with max type 0
  0 impropers with max type 0
Created 35 atoms
  using lattice units in orthogonal box = (16.136138 17.363036 15.862199) to (24.119235 24.925151 24.991502)
  create_atoms CPU = 0.000 seconds
Neighbor list info ...
  update: every = 1 steps, delay = 10 steps, check = yes
  max neighbors/atom: 2000, page size: 100000
  master list distance cutoff = 7.55
  ghost atom cutoff = 7.55
  binsize = 3.775, bins = 3 3 3
  1 neighbor lists, perpetual/occasional/extra = 1 0 0
  (1) pair eam, perpetual
      attributes: half, newton on
      pair build: half/bin/atomonly/newton
      stencil: half/bin/3d
      bin: standard
Setting up Verlet run ...
  Unit style    : metal
  Current step  : 0
  Time step     : 0.001
Per MPI rank memory allocation (min/avg/max) = 4.537 | 4.537 | 4.537 Mbytes
   Step          Temp          PotEng         KinEng         TotEng         Volume    
         0   300           -117.16418      1.3184535     -115.84572      551.12779    
      1000   181.42373     -116.64027      0.79732918    -115.84294      551.12779    
      2000   203.64538     -116.72921      0.89498986    -115.83422      551.12779    
      3000   208.21956     -116.73454      0.91509268    -115.81944      551.12779    
      4000   191.68393     -116.64108      0.84242114    -115.79866      551.12779    
      5000   213.34873     -116.70888      0.93763457    -115.77124      551.12779    
      6000   237.79596     -116.78271      1.0450764     -115.73763      551.12779    
      7000   202.06968     -116.58712      0.8880649     -115.69906      551.12779    
      8000   230.76074     -116.66994      1.0141577     -115.65578      551.12779    
      9000   233.74177     -116.6391       1.0272588     -115.61184      551.12779    
     10000   217.26446     -116.52231      0.95484362    -115.56746      551.12779    
     11000   193.83192     -116.37889      0.85186125    -115.52703      551.12779    
     12000   198.0554      -116.36035      0.87042275    -115.48992      551.12779    
     13000   227.54776     -116.4571       1.0000371     -115.45706      520.61239    
     14000   231.28519     -116.4437       1.0164625     -115.42724      520.61239    
     15000   252.11758     -116.50909      1.1080177     -115.40107      520.61239    
     16000   283.07766     -116.61863      1.2440824     -115.37455      520.61239    
     17000   280.45301     -116.58127      1.2325475     -115.34872      520.61239    
     18000   273.32395     -116.52514      1.2012164     -115.32393      520.61239    
     19000   206.1754      -116.20356      0.9061089     -115.29745      521.70323    
     20000   189.93333     -116.10548      0.83472754    -115.27075      521.70323    
     21000   243.28443     -116.31176      1.0691973     -115.24256      521.70323    
     22000   291.36087     -116.49291      1.2804858     -115.21243      521.70323    
     23000   276.84651     -116.39672      1.2166975     -115.18002      556.5606     
     24000   284.6973      -116.39702      1.2512005     -115.14582      556.5606     
     25000   299.81493     -116.42914      1.3176401     -115.1115       556.5606     
     26000   264.33593     -116.23976      1.1617154     -115.07805      556.5606     
     27000   329.09923     -116.49021      1.4463401     -115.04387      556.5606     
     28000   291.5503      -116.29299      1.2813183     -115.01167      556.5606     
     29000   303.06617     -116.31026      1.3319288     -114.97833      556.5606     
     30000   317.2668      -116.33928      1.3943384     -114.94494      556.5606     
     31000   328.43322     -116.35584      1.4434131     -114.91242      556.5606     
     32000   327.58936     -116.32159      1.4397044     -114.88188      556.5606     
     33000   357.70097     -116.42388      1.5720403     -114.85184      556.5606     
     34000   248.83161     -115.91855      1.0935763     -114.82498      556.5606     
     35000   229.1239      -115.80537      1.006964      -114.79841      556.5606     
     36000   283.32876     -116.01786      1.245186      -114.77268      556.5606     
     37000   325.08732     -116.17811      1.4287084     -114.7494       556.5606     
     38000   279.08569     -115.95489      1.2265384     -114.72835      556.5606     
     39000   284.91565     -115.96166      1.2521601     -114.7095       533.65098    
     40000   332.3172      -116.15313      1.4604825     -114.69265      533.65098    
     41000   317.997       -116.07561      1.3975475     -114.67806      533.65098    
     42000   317.47589     -116.06104      1.3952573     -114.66579      533.65098    
     43000   332.15998     -116.11574      1.4597916     -114.65595      533.65098    
     44000   324.12012     -116.0735       1.4244577     -114.64904      533.65098    
     45000   335.4008      -116.11865      1.4740345     -114.64461      533.65098    
     46000   266.171       -115.81274      1.1697803     -114.64296      533.65098    
     47000   320.44041     -116.05114      1.4082859     -114.64286      533.65098    
     48000   305.0461      -115.98642      1.3406303     -114.64579      533.65098    
     49000   315.71079     -116.03944      1.3875        -114.65194      525.5686     
     50000   290.53848     -115.93813      1.2768715     -114.66126      525.5686     
Loop time of 1.10607 on 1 procs for 50000 steps with 35 atoms

Performance: 3905.717 ns/day, 0.006 hours/ns, 45205.055 timesteps/s
100.3% CPU use with 1 MPI tasks x 1 OpenMP threads

MPI task timing breakdown:
Section |  min time  |  avg time  |  max time  |%varavg| %total
---------------------------------------------------------------
Pair    | 0.99625    | 0.99625    | 0.99625    |   0.0 | 90.07
Neigh   | 6.1e-05    | 6.1e-05    | 6.1e-05    |   0.0 |  0.01
Comm    | 0.005573   | 0.005573   | 0.005573   |   0.0 |  0.50
Output  | 0.010021   | 0.010021   | 0.010021   |   0.0 |  0.91
Modify  | 0.078913   | 0.078913   | 0.078913   |   0.0 |  7.13
Other   |            | 0.01525    |            |       |  1.38

Nlocal:             35 ave          35 max          35 min
Histogram: 1 0 0 0 0 0 0 0 0 0
Nghost:              0 ave           0 max           0 min
Histogram: 1 0 0 0 0 0 0 0 0 0
Neighs:            533 ave         533 max         533 min
Histogram: 1 0 0 0 0 0 0 0 0 0

Total # of neighbors = 533
Ave neighs/atom = 15.228571
Neighbor list builds = 5
Dangerous builds = 0
Total wall time: 0:00:01
