LAMMPS (15 Sep 2022)
OMP_NUM_THREADS environment is not set. Defaulting to 1 thread. (src/comm.cpp:98)
  using 1 OpenMP thread(s) per MPI task
Loaded 1 plugins from C:\Users\becat\AppData\Local\LAMMPS 64-bit 15Sep2022\plugins
Lattice spacing in x,y,z = 4.079 4.079 4.079
Created orthogonal box = (0 0 0) to (40.79 40.79 40.79)
  1 by 1 by 1 MPI processor grid
Read molecule template np:
  1 molecules
  0 fragments
  1965 atoms with max type 1
  0 bonds with max type 0
  0 angles with max type 0
  0 dihedrals with max type 0
  0 impropers with max type 0
Created 1965 atoms
  using lattice units in orthogonal box = (-0.042824686 -1.1498418 2.0704971) to (41.20418 41.957735 38.719504)
  create_atoms CPU = 0.001 seconds
Neighbor list info ...
  update: every = 1 steps, delay = 10 steps, check = yes
  max neighbors/atom: 2000, page size: 100000
  master list distance cutoff = 7.55
  ghost atom cutoff = 7.55
  binsize = 3.775, bins = 11 12 10
  1 neighbor lists, perpetual/occasional/extra = 1 0 0
  (1) pair eam, perpetual
      attributes: half, newton on
      pair build: half/bin/atomonly/newton
      stencil: half/bin/3d
      bin: standard
Setting up Verlet run ...
  Unit style    : metal
  Current step  : 0
  Time step     : 0.001
Per MPI rank memory allocation (min/avg/max) = 4.653 | 4.653 | 4.653 Mbytes
   Step          Temp          PotEng         KinEng         TotEng         Volume    
         0   300           -7404.0921      76.160077     -7327.932       65164.076    
      1000   232.03455     -7386.6915      58.905897     -7327.7856      59893.66     
      2000   232.29439     -7386.3406      58.971862     -7327.3687      61338.216    
      3000   230.98884     -7385.3527      58.640427     -7326.7123      61338.216    
      4000   218.80725     -7381.5176      55.547923     -7325.9696      60818.211    
      5000   234.42393     -7384.7785      59.512482     -7325.266       60818.211    
      6000   237.12397     -7384.8451      60.197934     -7324.6471      60818.211    
      7000   240.59125     -7385.0978      61.07816      -7324.0196      60818.211    
      8000   233.14787     -7382.5375      59.188532     -7323.3489      60818.211    
      9000   235.79367     -7382.456       59.860213     -7322.5958      60818.211    
     10000   241.33886     -7383.0646      61.267953     -7321.7967      60818.211    
     11000   241.91409     -7382.374       61.413987     -7320.96        60818.211    
     12000   240.81875     -7381.2349      61.135915     -7320.099       60818.211    
     13000   237.57624     -7379.5386      60.312749     -7319.2258      60818.211    
     14000   245.45442     -7380.645       62.31276      -7318.3322      60818.211    
     15000   253.00932     -7381.6744      64.230699     -7317.4437      60818.211    
     16000   250.4326      -7380.1046      63.576554     -7316.528       60818.211    
     17000   248.91539     -7378.8034      63.191385     -7315.612       60818.211    
     18000   254.40701     -7379.2622      64.585525     -7314.6767      60818.211    
     19000   255.25679     -7378.5481      64.801256     -7313.7468      60818.211    
     20000   252.51632     -7376.9139      64.105543     -7312.8084      60818.211    
     21000   251.61032     -7375.734       63.875537     -7311.8585      60818.211    
     22000   252.79758     -7375.0939      64.176943     -7310.917       60818.211    
     23000   267.67952     -7377.919       67.954975     -7309.964       60818.211    
     24000   263.39967     -7375.8897      66.868464     -7309.0212      60818.211    
     25000   262.03253     -7374.5885      66.521393     -7308.0671      60818.211    
     26000   258.70271     -7372.8013      65.676061     -7307.1253      60818.211    
     27000   267.75954     -7374.1511      67.97529      -7306.1759      60818.211    
     28000   266.83805     -7372.9835      67.741356     -7305.2422      60818.211    
     29000   270.17329     -7372.8943      68.588062     -7304.3063      61617.757    
     30000   273.92504     -7372.9164      69.540507     -7303.3759      61617.757    
     31000   277.0329      -7372.7846      70.32949      -7302.4551      61617.757    
     32000   281.02439     -7372.8856      71.342798     -7301.5428      62147.887    
     33000   272.13263     -7369.7301      69.085475     -7300.6446      62147.887    
     34000   279.9541      -7370.8166      71.071085     -7299.7455      62147.887    
     35000   275.73874     -7368.8702      70.000946     -7298.8692      62147.887    
     36000   281.00497     -7369.3379      71.337867     -7298.0001      62147.887    
     37000   286.52033     -7369.8874      72.738035     -7297.1494      62147.887    
     38000   283.03501     -7368.1589      71.853228     -7296.3057      62147.887    
     39000   287.13556     -7368.3773      72.894223     -7295.4831      62411.756    
     40000   283.69609     -7366.6971      72.021054     -7294.6761      62411.756    
     41000   294.19466     -7368.574       74.686294     -7293.8878      61414.951    
     42000   287.87234     -7366.1994      73.081266     -7293.1181      61277.23     
     43000   293.59697     -7366.9018      74.534559     -7292.3672      60824.389    
     44000   289.6368      -7365.1734      73.529205     -7291.6442      60824.389    
     45000   294.21546     -7365.6302      74.691575     -7290.9386      60824.389    
     46000   297.92388     -7365.8947      75.633019     -7290.2617      60824.389    
     47000   298.96574     -7365.5004      75.897513     -7289.6029      60824.389    
     48000   297.4064      -7364.4812      75.501648     -7288.9795      61660.573    
     49000   297.83392     -7363.9888      75.61018      -7288.3787      62022.478    
     50000   308.29565     -7366.0765      78.266068     -7287.8105      62022.478    
Loop time of 159.053 on 1 procs for 50000 steps with 1965 atoms

Performance: 27.161 ns/day, 0.884 hours/ns, 314.361 timesteps/s
98.1% CPU use with 1 MPI tasks x 1 OpenMP threads

MPI task timing breakdown:
Section |  min time  |  avg time  |  max time  |%varavg| %total
---------------------------------------------------------------
Pair    | 155.77     | 155.77     | 155.77     |   0.0 | 97.93
Neigh   | 0.044413   | 0.044413   | 0.044413   |   0.0 |  0.03
Comm    | 0.023035   | 0.023035   | 0.023035   |   0.0 |  0.01
Output  | 0.40786    | 0.40786    | 0.40786    |   0.0 |  0.26
Modify  | 2.3535     | 2.3535     | 2.3535     |   0.0 |  1.48
Other   |            | 0.4587     |            |       |  0.29

Nlocal:           1965 ave        1965 max        1965 min
Histogram: 1 0 0 0 0 0 0 0 0 0
Nghost:              0 ave           0 max           0 min
Histogram: 1 0 0 0 0 0 0 0 0 0
Neighs:          79690 ave       79690 max       79690 min
Histogram: 1 0 0 0 0 0 0 0 0 0

Total # of neighbors = 79690
Ave neighs/atom = 40.554707
Neighbor list builds = 13
Dangerous builds = 0
Total wall time: 0:02:39
