LAMMPS (15 Sep 2022)
OMP_NUM_THREADS environment is not set. Defaulting to 1 thread. (src/comm.cpp:98)
  using 1 OpenMP thread(s) per MPI task
Loaded 1 plugins from C:\Users\becat\AppData\Local\LAMMPS 64-bit 15Sep2022\plugins
Lattice spacing in x,y,z = 4.079 4.079 4.079
Created orthogonal box = (0 0 0) to (40.79 40.79 40.79)
  1 by 1 by 1 MPI processor grid
Read molecule template np:
  1 molecules
  0 fragments
  201 atoms with max type 1
  0 bonds with max type 0
  0 angles with max type 0
  0 dihedrals with max type 0
  0 impropers with max type 0
Created 201 atoms
  using lattice units in orthogonal box = (12.776316 12.401202 12.304479) to (28.013684 28.388798 28.485521)
  create_atoms CPU = 0.000 seconds
Neighbor list info ...
  update: every = 1 steps, delay = 10 steps, check = yes
  max neighbors/atom: 2000, page size: 100000
  master list distance cutoff = 7.55
  ghost atom cutoff = 7.55
  binsize = 3.775, bins = 5 5 5
  1 neighbor lists, perpetual/occasional/extra = 1 0 0
  (1) pair eam, perpetual
      attributes: half, newton on
      pair build: half/bin/atomonly/newton
      stencil: half/bin/3d
      bin: standard
Setting up Verlet run ...
  Unit style    : metal
  Current step  : 0
  Time step     : 0.001
Per MPI rank memory allocation (min/avg/max) = 4.547 | 4.547 | 4.547 Mbytes
   Step          Temp          PotEng         KinEng         TotEng         Volume    
         0   300           -556.29403      7.7556087     -548.53842      3941.8458    
      1000   2263.9983     -611.83696      58.528949     -553.30801      8847.4761    
      2000   2207.2676     -616.92235      57.062346     -559.86001      8325.8964    
      3000   2304.1015     -627.06344      59.565698     -567.49774      7437.8056    
      4000   2104.698      -630.16089      54.410713     -575.75018      8859.1686    
      5000   2239.0976     -642.16977      57.885215     -584.28456      6293.7903    
      6000   1937.8467     -642.55602      50.09727      -592.45875      5946.3737    
      7000   1980.5338     -651.31026      51.200818     -600.10944      6184.1476    
      8000   1651.6759     -650.26675      42.699173     -607.56758      7362.7657    
      9000   1739.626      -659.0829       44.972862     -614.11004      6338.3187    
     10000   1456.9752     -657.94024      37.665764     -620.27448      6590.4599    
     11000   1420.561      -663.04328      36.724383     -626.3189       6358.2139    
     12000   1301.8831     -665.53993      33.656319     -631.88361      6058.8661    
     13000   1391.8491     -673.3013       35.982124     -637.31917      5737.2192    
     14000   1226.4535     -673.8385       31.706311     -642.13219      5345.9368    
     15000   1253.6703     -678.95504      32.409922     -646.54511      5136.0608    
     16000   1146.2934     -680.35929      29.63401      -650.72528      5369.2293    
     17000   1061.1179     -682.23057      27.432052     -654.79851      4902.417     
     18000   1087.3295     -686.64079      28.109674     -658.53112      5146.7695    
     19000   1030.0263     -688.58848      26.628269     -661.96021      5750.8265    
     20000   928.91381     -689.24108      24.014307     -665.22678      5083.1298    
     21000   795.57288     -688.79591      20.567173     -668.22874      4813.3246    
     22000   767.76874     -690.80986      19.84838      -670.96148      4794.2089    
     23000   743.50698     -692.74467      19.221164     -673.52351      4815.1916    
     24000   754.17632     -695.4444       19.496988     -675.94741      4798.1248    
     25000   770.79537     -698.19802      19.926624     -678.27139      4948.5362    
     26000   679.55443     -698.04957      17.567861     -680.48171      4707.7381    
     27000   653.40924     -699.44336      16.891955     -682.5514       4763.7671    
     28000   626.21794     -700.59478      16.189004     -684.40578      4850.4526    
     29000   551.22241     -700.40465      14.250218     -686.15443      5193.9789    
     30000   580.7621      -702.79615      15.013879     -687.78227      4939.5467    
     31000   530.89226     -703.0659       13.724642     -689.34125      5209.9788    
     32000   549.42138     -704.98906      14.203657     -690.7854       5048.0501    
     33000   515.6333      -705.49622      13.330167     -692.16606      5114.454     
     34000   487.3955      -706.05747      12.600163     -693.45731      5203.4716    
     35000   477.48378     -707.01223      12.343925     -694.66831      5028.9567    
     36000   492.4095      -708.53923      12.729785     -695.80945      5229.8288    
     37000   462.94978     -708.84118      11.968191     -696.87298      5077.647     
     38000   454.15654     -709.63903      11.740868     -697.89816      4987.2927    
     39000   407.9702      -709.38944      10.546857     -698.84258      5022.2248    
     40000   391.2649      -709.84353      10.114991     -699.72854      5054.1021    
     41000   397.28632     -710.83504      10.270657     -700.56438      4992.7173    
     42000   379.91864     -711.15484      9.8216676     -701.33318      5237.9345    
     43000   389.02211     -712.11675      10.057011     -702.05974      5114.5041    
     44000   376.04088     -712.48282      9.7214197     -702.7614       4873.113     
     45000   346.85279     -712.38543      8.9668483     -703.41858      4983.7413    
     46000   364.14211     -713.46283      9.4138124     -704.04901      5084.3692    
     47000   316.03606     -712.80714      8.1701733     -704.63696      5069.0718    
     48000   295.11386     -712.81806      7.629292      -705.18877      5026.8269    
     49000   308.57293     -713.70038      7.9772362     -705.72314      4987.9118    
     50000   315.99078     -714.39124      8.1690029     -706.22223      4972.3633    
Loop time of 12.5354 on 1 procs for 50000 steps with 201 atoms

Performance: 344.625 ns/day, 0.070 hours/ns, 3988.714 timesteps/s
99.1% CPU use with 1 MPI tasks x 1 OpenMP threads

MPI task timing breakdown:
Section |  min time  |  avg time  |  max time  |%varavg| %total
---------------------------------------------------------------
Pair    | 12.058     | 12.058     | 12.058     |   0.0 | 96.19
Neigh   | 0.055376   | 0.055376   | 0.055376   |   0.0 |  0.44
Comm    | 0.011056   | 0.011056   | 0.011056   |   0.0 |  0.09
Output  | 0.04492    | 0.04492    | 0.04492    |   0.0 |  0.36
Modify  | 0.29623    | 0.29623    | 0.29623    |   0.0 |  2.36
Other   |            | 0.0701     |            |       |  0.56

Nlocal:            201 ave         201 max         201 min
Histogram: 1 0 0 0 0 0 0 0 0 0
Nghost:              0 ave           0 max           0 min
Histogram: 1 0 0 0 0 0 0 0 0 0
Neighs:           6188 ave        6188 max        6188 min
Histogram: 1 0 0 0 0 0 0 0 0 0

Total # of neighbors = 6188
Ave neighs/atom = 30.78607
Neighbor list builds = 276
Dangerous builds = 0
Total wall time: 0:00:12
