LAMMPS (15 Sep 2022)
OMP_NUM_THREADS environment is not set. Defaulting to 1 thread. (src/comm.cpp:98)
  using 1 OpenMP thread(s) per MPI task
Loaded 1 plugins from C:\Users\becat\AppData\Local\LAMMPS 64-bit 15Sep2022\plugins
Lattice spacing in x,y,z = 4.079 4.079 4.079
Created orthogonal box = (0 0 0) to (40.79 40.79 40.79)
  1 by 1 by 1 MPI processor grid
Read molecule template np:
  1 molecules
  0 fragments
  22 atoms with max type 1
  0 bonds with max type 0
  0 angles with max type 0
  0 dihedrals with max type 0
  0 impropers with max type 0
Created 22 atoms
  using lattice units in orthogonal box = (17.222062 16.824278 17.725583) to (23.661265 24.036852 23.580893)
  create_atoms CPU = 0.001 seconds
Neighbor list info ...
  update: every = 1 steps, delay = 10 steps, check = yes
  max neighbors/atom: 2000, page size: 100000
  master list distance cutoff = 7.55
  ghost atom cutoff = 7.55
  binsize = 3.775, bins = 2 2 2
  1 neighbor lists, perpetual/occasional/extra = 1 0 0
  (1) pair eam, perpetual
      attributes: half, newton on
      pair build: half/bin/atomonly/newton
      stencil: half/bin/3d
      bin: standard
Setting up Verlet run ...
  Unit style    : metal
  Current step  : 0
  Time step     : 0.001
Per MPI rank memory allocation (min/avg/max) = 4.41 | 4.41 | 4.41 Mbytes
   Step          Temp          PotEng         KinEng         TotEng         Volume    
         0   300           -71.448535      0.81433891    -70.634196      271.93941    
      1000   204.48665     -71.187752      0.55507146    -70.632681      271.93941    
      2000   176.62889     -71.107407      0.47945258    -70.627954      271.93941    
      3000   234.5098      -71.256444      0.63656819    -70.619875      271.93941    
      4000   201.2112      -71.154321      0.54618037    -70.608141      271.93941    
      5000   244.5609      -71.256709      0.66385153    -70.592857      244.4421     
      6000   224.22423     -71.182623      0.6086484     -70.573974      244.4421     
      7000   231.87571     -71.180029      0.62941806    -70.550611      244.4421     
      8000   250.05915     -71.202561      0.67877632    -70.523784      244.4421     
      9000   282.86237     -71.261989      0.76781946    -70.494169      262.97532    
     10000   310.78173     -71.305459      0.84360552    -70.461853      262.97532    
     11000   283.28281     -71.196649      0.76896072    -70.427688      262.97532    
     12000   247.81663     -71.065934      0.6726891     -70.393245      262.97532    
     13000   229.07628     -70.982903      0.6218191     -70.361084      262.97532    
     14000   302.73856     -71.153478      0.82177263    -70.331705      256.62448    
     15000   299.87853     -71.119356      0.81400918    -70.305347      256.62448    
     16000   266.23179     -71.004718      0.72267635    -70.282041      256.62448    
     17000   261.24305     -70.972439      0.70913461    -70.263305      256.62448    
     18000   272.92212     -70.987398      0.74083701    -70.246561      252.23604    
     19000   294.29449     -71.031818      0.79885152    -70.232967      257.77295    
     20000   196.93389     -70.754083      0.53456977    -70.219513      245.32514    
     21000   280.72273     -70.969636      0.76201149    -70.207625      245.32514    
     22000   273.15162     -70.938063      0.74145998    -70.196603      245.32514    
     23000   367.6968      -71.18478       0.99809938    -70.186681      245.32514    
     24000   370.58363     -71.183187      1.0059356     -70.177251      245.32514    
     25000   250.36005     -70.848291      0.67959311    -70.168698      269.75332    
     26000   300.85766     -70.977021      0.81666701    -70.160354      274.74469    
     27000   289.66097     -70.938871      0.786274      -70.152597      246.51835    
     28000   290.33494     -70.93325       0.78810346    -70.145147      255.38556    
     29000   336.43561     -71.050795      0.91324203    -70.137553      255.38556    
     30000   269.14354     -70.860554      0.73058018    -70.129973      255.38556    
     31000   352.42693     -71.078769      0.95664988    -70.122119      252.17872    
     32000   293.74426     -70.911368      0.79735793    -70.11401       252.17872    
     33000   330.94207     -71.005371      0.89833002    -70.10704       268.90441    
     34000   294.64946     -70.899905      0.79981508    -70.10009       268.90441    
     35000   302.44068     -70.91417       0.82096404    -70.093205      268.90441    
     36000   228.40946     -70.706537      0.62000904    -70.086528      268.90441    
     37000   262.90695     -70.793925      0.71365121    -70.080273      249.49578    
     38000   333.83433     -70.979686      0.90618095    -70.073505      249.49578    
     39000   306.18505     -70.898095      0.831128      -70.066967      264.33229    
     40000   365.55434     -71.053108      0.99228375    -70.060824      264.33229    
     41000   328.66582     -70.947197      0.89215122    -70.055046      255.22117    
     42000   276.70073     -70.800497      0.7510939     -70.049403      246.83028    
     43000   275.37102     -70.791986      0.74748447    -70.044502      261.5758     
     44000   285.72704     -70.81523       0.7755955     -70.039635      261.5758     
     45000   280.01105     -70.795459      0.76007964    -70.03538       261.5758     
     46000   279.21839     -70.78894       0.75792801    -70.031012      252.97492    
     47000   251.91427     -70.711017      0.68381198    -70.027205      252.97492    
     48000   327.43579     -70.912907      0.88881234    -70.024095      252.97492    
     49000   329.57363     -70.916818      0.89461543    -70.022203      252.97492    
     50000   341.6991      -70.949324      0.92752957    -70.021794      260.56564    
Loop time of 0.704856 on 1 procs for 50000 steps with 22 atoms

Performance: 6128.911 ns/day, 0.004 hours/ns, 70936.475 timesteps/s
99.8% CPU use with 1 MPI tasks x 1 OpenMP threads

MPI task timing breakdown:
Section |  min time  |  avg time  |  max time  |%varavg| %total
---------------------------------------------------------------
Pair    | 0.59476    | 0.59476    | 0.59476    |   0.0 | 84.38
Neigh   | 0.000131   | 0.000131   | 0.000131   |   0.0 |  0.02
Comm    | 0.006669   | 0.006669   | 0.006669   |   0.0 |  0.95
Output  | 0.009979   | 0.009979   | 0.009979   |   0.0 |  1.42
Modify  | 0.076854   | 0.076854   | 0.076854   |   0.0 | 10.90
Other   |            | 0.01646    |            |       |  2.34

Nlocal:             22 ave          22 max          22 min
Histogram: 1 0 0 0 0 0 0 0 0 0
Nghost:              0 ave           0 max           0 min
Histogram: 1 0 0 0 0 0 0 0 0 0
Neighs:            229 ave         229 max         229 min
Histogram: 1 0 0 0 0 0 0 0 0 0

Total # of neighbors = 229
Ave neighs/atom = 10.409091
Neighbor list builds = 21
Dangerous builds = 0
Total wall time: 0:00:00
