LAMMPS (15 Sep 2022)
OMP_NUM_THREADS environment is not set. Defaulting to 1 thread. (src/comm.cpp:98)
  using 1 OpenMP thread(s) per MPI task
Loaded 1 plugins from C:\Users\becat\AppData\Local\LAMMPS 64-bit 15Sep2022\plugins
Lattice spacing in x,y,z = 4.079 4.079 4.079
Created orthogonal box = (0 0 0) to (40.79 40.79 40.79)
  1 by 1 by 1 MPI processor grid
Read molecule template np:
  1 molecules
  0 fragments
  40 atoms with max type 1
  0 bonds with max type 0
  0 angles with max type 0
  0 dihedrals with max type 0
  0 impropers with max type 0
Created 40 atoms
  using lattice units in orthogonal box = (16.104716 16.764657 15.520542) to (24.248128 24.600125 25.568041)
  create_atoms CPU = 0.000 seconds
Neighbor list info ...
  update: every = 1 steps, delay = 10 steps, check = yes
  max neighbors/atom: 2000, page size: 100000
  master list distance cutoff = 7.55
  ghost atom cutoff = 7.55
  binsize = 3.775, bins = 3 3 3
  1 neighbor lists, perpetual/occasional/extra = 1 0 0
  (1) pair eam, perpetual
      attributes: half, newton on
      pair build: half/bin/atomonly/newton
      stencil: half/bin/3d
      bin: standard
Setting up Verlet run ...
  Unit style    : metal
  Current step  : 0
  Time step     : 0.001
Per MPI rank memory allocation (min/avg/max) = 4.537 | 4.537 | 4.537 Mbytes
   Step          Temp          PotEng         KinEng         TotEng         Volume    
         0   300           -134.93131      1.5123437     -133.41896      641.10524    
      1000   199.32748     -134.42035      1.0048388     -133.41552      641.10524    
      2000   199.76707     -134.41239      1.0070549     -133.40534      719.95885    
      3000   179.79596     -134.29401      0.90637761    -133.38763      719.95885    
      4000   224.30258     -134.49382      1.130742      -133.36308      719.95885    
      5000   221.78501     -134.44931      1.1180505     -133.33126      719.95885    
      6000   215.82296     -134.38016      1.087995      -133.29216      719.95885    
      7000   207.20954     -134.2924       1.0445735     -133.24783      719.95885    
      8000   229.79235     -134.35863      1.1584167     -133.20021      719.95885    
      9000   225.99442     -134.29171      1.1392708     -133.15243      719.95885    
     10000   279.89125     -134.51757      1.4109725     -133.1066       719.95885    
     11000   228.73212     -134.21729      1.153072      -133.06422      719.95885    
     12000   287.03453     -134.47326      1.4469829     -133.02628      719.95885    
     13000   244.07428     -134.22289      1.230414      -132.99248      719.95885    
     14000   252.45351     -134.23357      1.2726549     -132.96092      719.95885    
     15000   253.47479     -134.20874      1.2778033     -132.93094      719.95885    
     16000   260.51355     -134.21404      1.3132868     -132.90075      719.95885    
     17000   197.74775     -133.8673       0.99687524    -132.87043      719.95885    
     18000   263.86997     -134.16993      1.3302069     -132.83972      642.19569    
     19000   222.99404     -133.93213      1.1241454     -132.80798      642.19569    
     20000   216.21194     -133.864        1.0899559     -132.77405      630.21367    
     21000   266.04999     -134.07835      1.3411967     -132.73716      635.68489    
     22000   276.14679     -134.09139      1.3920962     -132.6993       635.68489    
     23000   264.09334     -133.9918       1.331333      -132.66046      635.68489    
     24000   268.15496     -133.97161      1.3518082     -132.6198       635.68489    
     25000   265.27425     -133.91568      1.3372861     -132.57839      728.6544     
     26000   219.36233     -133.6424       1.1058374     -132.53656      728.6544     
     27000   290.95895     -133.96205      1.4667664     -132.49528      728.6544     
     28000   229.34379     -133.60934      1.1561554     -132.45318      728.6544     
     29000   295.84281     -133.90318      1.4913867     -132.4118       728.6544     
     30000   302.86292     -133.89851      1.5267761     -132.37174      602.3071     
     31000   294.18315     -133.8168       1.4830201     -132.33378      668.03652    
     32000   301.58424     -133.81756      1.5203301     -132.29723      664.7048     
     33000   259.29219     -133.56894      1.3071297     -132.26181      664.7048     
     34000   352.40893     -134.00503      1.7765447     -132.22849      664.7048     
     35000   307.71325     -133.7481       1.5512273     -132.19688      702.84047    
     36000   262.19969     -133.48961      1.3217868     -132.16782      702.84047    
     37000   308.03107     -133.6917       1.5528295     -132.13887      702.84047    
     38000   329.77873     -133.7753       1.6624626     -132.11283      702.84047    
     39000   269.99951     -133.44929      1.3611069     -132.08818      702.84047    
     40000   301.6717      -133.58621      1.520771      -132.06544      701.2386     
     41000   373.34396     -133.92703      1.8820813     -132.04495      662.03088    
     42000   336.64485     -133.72354      1.6970757     -132.02647      662.03088    
     43000   367.03179     -133.86032      1.8502607     -132.01006      662.03088    
     44000   363.5015      -133.82723      1.832464      -131.99477      726.81798    
     45000   306.42507     -133.52734      1.5447334     -131.98261      726.81798    
     46000   313.14057     -133.55077      1.5785872     -131.97218      726.81798    
     47000   318.10179     -133.56755      1.6035975     -131.96395      735.35607    
     48000   301.27234     -133.47571      1.5187577     -131.95695      735.35607    
     49000   307.0973      -133.49888      1.5481222     -131.95076      735.35607    
     50000   226.02017     -133.0854       1.1394006     -131.94599      735.35607    
Loop time of 1.29602 on 1 procs for 50000 steps with 40 atoms

Performance: 3333.279 ns/day, 0.007 hours/ns, 38579.622 timesteps/s
100.1% CPU use with 1 MPI tasks x 1 OpenMP threads

MPI task timing breakdown:
Section |  min time  |  avg time  |  max time  |%varavg| %total
---------------------------------------------------------------
Pair    | 1.18       | 1.18       | 1.18       |   0.0 | 91.05
Neigh   | 0.000177   | 0.000177   | 0.000177   |   0.0 |  0.01
Comm    | 0.005734   | 0.005734   | 0.005734   |   0.0 |  0.44
Output  | 0.010823   | 0.010823   | 0.010823   |   0.0 |  0.84
Modify  | 0.082243   | 0.082243   | 0.082243   |   0.0 |  6.35
Other   |            | 0.01707    |            |       |  1.32

Nlocal:             40 ave          40 max          40 min
Histogram: 1 0 0 0 0 0 0 0 0 0
Nghost:              0 ave           0 max           0 min
Histogram: 1 0 0 0 0 0 0 0 0 0
Neighs:            659 ave         659 max         659 min
Histogram: 1 0 0 0 0 0 0 0 0 0

Total # of neighbors = 659
Ave neighs/atom = 16.475
Neighbor list builds = 13
Dangerous builds = 0
Total wall time: 0:00:01
