LAMMPS (15 Sep 2022)
OMP_NUM_THREADS environment is not set. Defaulting to 1 thread. (src/comm.cpp:98)
  using 1 OpenMP thread(s) per MPI task
Loaded 1 plugins from C:\Users\becat\AppData\Local\LAMMPS 64-bit 15Sep2022\plugins
Lattice spacing in x,y,z = 4.079 4.079 4.079
Created orthogonal box = (0 0 0) to (40.79 40.79 40.79)
  1 by 1 by 1 MPI processor grid
Read molecule template np:
  1 molecules
  0 fragments
  32 atoms with max type 1
  0 bonds with max type 0
  0 angles with max type 0
  0 dihedrals with max type 0
  0 impropers with max type 0
Created 32 atoms
  using lattice units in orthogonal box = (15.676922 15.372236 16.494275) to (25.002161 25.233468 24.101187)
  create_atoms CPU = 0.000 seconds
Neighbor list info ...
  update: every = 1 steps, delay = 10 steps, check = yes
  max neighbors/atom: 2000, page size: 100000
  master list distance cutoff = 7.55
  ghost atom cutoff = 7.55
  binsize = 3.775, bins = 3 3 3
  1 neighbor lists, perpetual/occasional/extra = 1 0 0
  (1) pair eam, perpetual
      attributes: half, newton on
      pair build: half/bin/atomonly/newton
      stencil: half/bin/3d
      bin: standard
Setting up Verlet run ...
  Unit style    : metal
  Current step  : 0
  Time step     : 0.001
Per MPI rank memory allocation (min/avg/max) = 4.536 | 4.536 | 4.536 Mbytes
   Step          Temp          PotEng         KinEng         TotEng         Volume    
         0   300           -96.005338      1.2021193     -94.803218      699.51905    
      1000   1322.0674     -100.18486      5.2976092     -94.887249      694.18096    
      2000   1253.0081     -100.23323      5.0208843     -95.21235       526.88618    
      3000   1147.0276     -100.30456      4.5962134     -95.708349      536.73107    
      4000   1280.5848     -101.41524      5.1313858     -96.283858      518.54564    
      5000   1253.127      -101.79458      5.0213605     -96.773223      520.46786    
      6000   1045.4383     -101.44063      4.1891385     -97.251489      561.74045    
      7000   1022.2794     -101.74378      4.0963395     -97.647444      569.64394    
      8000   967.09139     -101.9741       3.8751976     -98.098901      490.53144    
      9000   859.15899     -101.98417      3.4427055     -98.541461      587.59198    
     10000   797.15483     -102.17521      3.1942508     -98.980962      507.46938    
     11000   919.94107     -103.06866      3.6862632     -99.382394      522.81612    
     12000   600.33324     -102.14923      2.405574      -99.743658      516.35167    
     13000   696.29019     -102.87443      2.7900797     -100.08435      515.4782     
     14000   522.1462      -102.50307      2.0922735     -100.4108       471.80646    
     15000   670.61532     -103.43526      2.6871988     -100.74806      499.24757    
     16000   635.71242     -103.62579      2.5473407     -101.07845      463.12369    
     17000   520.17514     -103.47787      2.0843753     -101.3935       425.22053    
     18000   574.363       -103.98425      2.3015096     -101.68274      436.08529    
     19000   639.9606      -104.51802      2.5643634     -101.95365      435.50381    
     20000   650.56715     -104.80016      2.6068645     -102.19329      410.94493    
     21000   546.4948      -104.61041      2.1898399     -102.42057      482.87376    
     22000   523.01424     -104.72676      2.0957518     -102.63101      495.872      
     23000   474.14725     -104.74319      1.8999386     -102.84326      470.51711    
     24000   426.9197      -104.7609       1.7106948     -103.0502       444.55702    
     25000   446.90359     -105.0269       1.7907715     -103.23612      443.4123     
     26000   459.24642     -105.2488       1.84023       -103.40857      443.4123     
     27000   360.00603     -105.0111       1.4425674     -103.56853      455.24484    
     28000   414.89923     -105.38059      1.662528      -103.71806      476.324      
     29000   391.08396     -105.42849      1.5670987     -103.86139      468.89685    
     30000   385.29249     -105.53569      1.5438919     -103.9918       433.73683    
     31000   413.59067     -105.77389      1.6572845     -104.1166       443.15889    
     32000   393.19062     -105.80455      1.5755402     -104.22901      456.15951    
     33000   306.38288     -105.56627      1.227696      -104.33858      456.15951    
     34000   318.24232     -105.71467      1.2752175     -104.43945      456.15951    
     35000   278.9903      -105.64598      1.1179321     -104.52805      438.82834    
     36000   311.44839     -105.85502      1.2479938     -104.60703      438.82834    
     37000   291.39623     -105.85166      1.1676435     -104.68402      438.82834    
     38000   313.21328     -106.01193      1.2550658     -104.75687      438.82834    
     39000   226.36555     -105.7282       0.90706135    -104.82114      452.76949    
     40000   234.75996     -105.82208      0.94069829    -104.88138      452.76949    
     41000   292.00644     -106.10596      1.1700886     -104.93587      452.76949    
     42000   301.40843     -106.19376      1.207763      -104.98599      452.76949    
     43000   267.43065     -106.10355      1.0716119     -105.03193      452.76949    
     44000   270.31078     -106.15573      1.0831527     -105.07258      452.76949    
     45000   258.69125     -106.14569      1.0365925     -105.10909      452.76949    
     46000   312.67747     -106.39452      1.2529188     -105.1416       452.76949    
     47000   248.51256     -106.16553      0.99580587    -105.16972      452.76949    
     48000   208.58232     -106.02886      0.83580281    -105.19306      452.76949    
     49000   275.76113     -106.31753      1.1049926     -105.21254      452.76949    
     50000   243.20399     -106.20258      0.97453407    -105.22804      452.76949    
Loop time of 1.18361 on 1 procs for 50000 steps with 32 atoms

Performance: 3649.845 ns/day, 0.007 hours/ns, 42243.573 timesteps/s
99.0% CPU use with 1 MPI tasks x 1 OpenMP threads

MPI task timing breakdown:
Section |  min time  |  avg time  |  max time  |%varavg| %total
---------------------------------------------------------------
Pair    | 1.0529     | 1.0529     | 1.0529     |   0.0 | 88.96
Neigh   | 0.001012   | 0.001012   | 0.001012   |   0.0 |  0.09
Comm    | 0.007424   | 0.007424   | 0.007424   |   0.0 |  0.63
Output  | 0.011429   | 0.011429   | 0.011429   |   0.0 |  0.97
Modify  | 0.089959   | 0.089959   | 0.089959   |   0.0 |  7.60
Other   |            | 0.02088    |            |       |  1.76

Nlocal:             32 ave          32 max          32 min
Histogram: 1 0 0 0 0 0 0 0 0 0
Nghost:              0 ave           0 max           0 min
Histogram: 1 0 0 0 0 0 0 0 0 0
Neighs:            468 ave         468 max         468 min
Histogram: 1 0 0 0 0 0 0 0 0 0

Total # of neighbors = 468
Ave neighs/atom = 14.625
Neighbor list builds = 98
Dangerous builds = 0
Total wall time: 0:00:01
