LAMMPS (15 Sep 2022)
OMP_NUM_THREADS environment is not set. Defaulting to 1 thread. (src/comm.cpp:98)
  using 1 OpenMP thread(s) per MPI task
Loaded 1 plugins from C:\Users\becat\AppData\Local\LAMMPS 64-bit 15Sep2022\plugins
Lattice spacing in x,y,z = 4.079 4.079 4.079
Created orthogonal box = (0 0 0) to (40.79 40.79 40.79)
  1 by 1 by 1 MPI processor grid
Read molecule template np:
  1 molecules
  0 fragments
  40 atoms with max type 1
  0 bonds with max type 0
  0 angles with max type 0
  0 dihedrals with max type 0
  0 impropers with max type 0
Created 40 atoms
  using lattice units in orthogonal box = (16.240529 16.461016 16.243835) to (24.549219 24.328262 24.545795)
  create_atoms CPU = 0.000 seconds
Neighbor list info ...
  update: every = 1 steps, delay = 10 steps, check = yes
  max neighbors/atom: 2000, page size: 100000
  master list distance cutoff = 7.55
  ghost atom cutoff = 7.55
  binsize = 3.775, bins = 3 3 3
  1 neighbor lists, perpetual/occasional/extra = 1 0 0
  (1) pair eam, perpetual
      attributes: half, newton on
      pair build: half/bin/atomonly/newton
      stencil: half/bin/3d
      bin: standard
Setting up Verlet run ...
  Unit style    : metal
  Current step  : 0
  Time step     : 0.001
Per MPI rank memory allocation (min/avg/max) = 4.537 | 4.537 | 4.537 Mbytes
   Step          Temp          PotEng         KinEng         TotEng         Volume    
         0   300           -134.92433      1.5123437     -133.41198      542.67021    
      1000   199.33999     -134.41345      1.0049019     -133.40855      542.67021    
      2000   220.55595     -134.50972      1.1118547     -133.39786      542.67021    
      3000   226.97111     -134.52404      1.1441944     -133.37985      542.67021    
      4000   204.85697     -134.38793      1.0327138     -133.35522      542.67021    
      5000   195.24853     -134.30568      0.98427629    -133.3214       542.67021    
      6000   211.62001     -134.34947      1.0668073     -133.28266      542.67021    
      7000   254.02068     -134.51845      1.2805552     -133.23789      542.67021    
      8000   223.2589      -134.31531      1.1254806     -133.18983      542.67021    
      9000   228.93458     -134.29697      1.1540925     -133.14287      542.67021    
     10000   209.42717     -134.15366      1.0557529     -133.09791      542.67021    
     11000   252.04216     -134.32845      1.2705812     -133.05786      542.67021    
     12000   221.03753     -134.13497      1.1142824     -133.02068      542.67021    
     13000   247.35545     -134.23519      1.2469548     -132.98824      542.67021    
     14000   178.94935     -133.85828      0.90210973    -132.95617      542.67021    
     15000   257.72278     -134.2239       1.299218      -132.92469      542.67021    
     16000   244.66302     -134.12676      1.2333819     -132.89338      542.67021    
     17000   254.50558     -134.14394      1.2829997     -132.86094      542.67021    
     18000   230.90115     -133.99204      1.1640063     -132.82804      542.67021    
     19000   215.65386     -133.88056      1.0871425     -132.79342      542.67021    
     20000   225.30282     -133.89142      1.1357843     -132.75564      542.67021    
     21000   249.24485     -133.97281      1.2564796     -132.71633      542.67021    
     22000   282.21229     -134.09919      1.4226732     -132.67652      542.67021    
     23000   269.03015     -133.9911       1.3562202     -132.63488      542.67021    
     24000   259.29781     -133.89978      1.307158      -132.59262      542.67021    
     25000   276.87146     -133.94719      1.3957494     -132.55144      524.24644    
     26000   278.69827     -133.91293      1.4049586     -132.50798      531.93408    
     27000   274.88741     -133.85158      1.3857475     -132.46583      531.93408    
     28000   272.48663     -133.79767      1.3736448     -132.42403      531.93408    
     29000   302.23554     -133.90451      1.5236134     -132.38089      531.93408    
     30000   297.00236     -133.83632      1.4972322     -132.33909      531.93408    
     31000   269.34632     -133.65663      1.357814      -132.29882      531.93408    
     32000   293.65992     -133.74193      1.4803824     -132.26155      531.93408    
     33000   321.08715     -133.84291      1.6186471     -132.22426      531.93408    
     34000   249.71908     -133.44813      1.2588702     -132.18926      518.11662    
     35000   299.72842     -133.66628      1.5109746     -132.15531      543.44425    
     36000   332.62351     -133.79981      1.6768035     -132.123        555.60436    
     37000   296.03793     -133.5836       1.4923703     -132.09123      555.60436    
     38000   280.29446     -133.47341      1.4130052     -132.0604       555.60436    
     39000   299.58904     -133.54109      1.510272      -132.03082      529.08171    
     40000   333.05205     -133.68237      1.6789639     -132.00341      592.79201    
     41000   268.17575     -133.32918      1.351913      -131.97727      595.7246     
     42000   314.69909     -133.54007      1.586444      -131.95363      541.90266    
     43000   339.15909     -133.64216      1.7097504     -131.93241      541.90266    
     44000   353.6344      -133.6959       1.7827225     -131.91318      619.58081    
     45000   377.77188     -133.80108      1.9044031     -131.89668      591.12146    
     46000   331.64266     -133.55663      1.6718589     -131.88477      591.12146    
     47000   329.74529     -133.53756      1.662294      -131.87527      591.12146    
     48000   326.64699     -133.51752      1.6466751     -131.87085      591.12146    
     49000   298.33742     -133.37426      1.5039624     -131.87029      567.25857    
     50000   380.4414      -133.79336      1.9178605     -131.8755       534.90887    
Loop time of 1.39868 on 1 procs for 50000 steps with 40 atoms

Performance: 3088.631 ns/day, 0.008 hours/ns, 35748.042 timesteps/s
98.3% CPU use with 1 MPI tasks x 1 OpenMP threads

MPI task timing breakdown:
Section |  min time  |  avg time  |  max time  |%varavg| %total
---------------------------------------------------------------
Pair    | 1.2743     | 1.2743     | 1.2743     |   0.0 | 91.11
Neigh   | 0.000174   | 0.000174   | 0.000174   |   0.0 |  0.01
Comm    | 0.006162   | 0.006162   | 0.006162   |   0.0 |  0.44
Output  | 0.011292   | 0.011292   | 0.011292   |   0.0 |  0.81
Modify  | 0.089063   | 0.089063   | 0.089063   |   0.0 |  6.37
Other   |            | 0.01766    |            |       |  1.26

Nlocal:             40 ave          40 max          40 min
Histogram: 1 0 0 0 0 0 0 0 0 0
Nghost:              0 ave           0 max           0 min
Histogram: 1 0 0 0 0 0 0 0 0 0
Neighs:            672 ave         672 max         672 min
Histogram: 1 0 0 0 0 0 0 0 0 0

Total # of neighbors = 672
Ave neighs/atom = 16.8
Neighbor list builds = 14
Dangerous builds = 0
Total wall time: 0:00:01
