LAMMPS (15 Sep 2022)
OMP_NUM_THREADS environment is not set. Defaulting to 1 thread. (src/comm.cpp:98)
  using 1 OpenMP thread(s) per MPI task
Loaded 1 plugins from C:\Users\becat\AppData\Local\LAMMPS 64-bit 15Sep2022\plugins
Lattice spacing in x,y,z = 4.079 4.079 4.079
Created orthogonal box = (0 0 0) to (40.79 40.79 40.79)
  1 by 1 by 1 MPI processor grid
Read molecule template np:
  1 molecules
  0 fragments
  260 atoms with max type 1
  0 bonds with max type 0
  0 angles with max type 0
  0 dihedrals with max type 0
  0 impropers with max type 0
Created 260 atoms
  using lattice units in orthogonal box = (12.542982 11.665213 11.551287) to (28.247018 29.124787 29.238713)
  create_atoms CPU = 0.000 seconds
Neighbor list info ...
  update: every = 1 steps, delay = 10 steps, check = yes
  max neighbors/atom: 2000, page size: 100000
  master list distance cutoff = 7.55
  ghost atom cutoff = 7.55
  binsize = 3.775, bins = 5 5 5
  1 neighbor lists, perpetual/occasional/extra = 1 0 0
  (1) pair eam, perpetual
      attributes: half, newton on
      pair build: half/bin/atomonly/newton
      stencil: half/bin/3d
      bin: standard
Setting up Verlet run ...
  Unit style    : metal
  Current step  : 0
  Time step     : 0.001
Per MPI rank memory allocation (min/avg/max) = 4.55 | 4.55 | 4.55 Mbytes
   Step          Temp          PotEng         KinEng         TotEng         Volume    
         0   300           -712.24082      10.043513     -702.19731      4849.6407    
      1000   2257.1924     -785.23066      75.567138     -709.66352      10847.304    
      2000   2828.868      -812.17223      94.70591      -717.46632      10629.308    
      3000   2592.1589     -815.38283      86.781276     -728.60155      9542.3985    
      4000   2212.9394     -814.56528      74.085621     -740.47966      9987.4717    
      5000   2165.2304     -823.70045      72.4884       -751.21205      11772.896    
      6000   2139.5786     -833.5621       71.629621     -761.93248      11542.79     
      7000   1972.4878     -838.27551      66.035691     -772.23982      13912.865    
      8000   1739.4002     -839.86176      58.232295     -781.62946      12224.204    
      9000   1659.2447     -846.41541      55.54882      -790.86659      12218.719    
     10000   1605.1191     -853.0266       53.736784     -799.28981      12224.636    
     11000   1450.705      -855.95735      48.567249     -807.3901       12117.051    
     12000   1322.7086     -859.13357      44.282136     -814.85143      11075.59     
     13000   1337.6672     -866.35319      44.782929     -821.57026      10659.156    
     14000   1313.466      -871.92692      43.97271      -827.95421      9881.8946    
     15000   1133.1136     -871.9703       37.934805     -834.03549      10783.372    
     16000   1150.6997     -878.18631      38.523559     -839.66275      10454.566    
     17000   1074.0282     -881.01709      35.956721     -845.06037      10284.416    
     18000   1094.4467     -886.87935      36.640299     -850.23905      11292.143    
     19000   1010.8892     -888.79685      33.842929     -854.95392      10769.052    
     20000   999.89396     -892.82437      33.474827     -859.34954      11258.086    
     21000   901.64237     -893.63187      30.185524     -863.44635      10964.195    
     22000   846.01979     -895.64011      28.32337      -867.31674      11003.276    
     23000   887.91972     -900.58237      29.726112     -870.85626      10544.966    
     24000   829.22908     -902.08825      27.761244     -874.32701      10327.773    
     25000   736.49604     -902.20574      24.656693     -877.54905      10801.424    
     26000   690.4926      -903.62918      23.116572     -880.5126       10260.728    
     27000   713.21101     -907.18764      23.877148     -883.31049      10327.679    
     28000   691.50136     -909.14866      23.150344     -885.99832      10735.62     
     29000   641.5201      -909.98082      21.477052     -888.50376      10765.162    
     30000   622.28571     -911.71959      20.833116     -890.88648      10888.128    
     31000   579.3639      -912.55277      19.396163     -893.1566       10768.351    
     32000   581.75071     -914.74402      19.47607      -895.26795      11041.663    
     33000   558.90616     -915.98499      18.711272     -897.27372      10477.518    
     34000   545.17795     -917.41251      18.251673     -899.16084      10912.44     
     35000   550.79488     -919.37099      18.439719     -900.93127      11142.46     
     36000   508.70841     -919.64202      17.030732     -902.61129      10736.441    
     37000   476.69112     -920.13812      15.958845     -904.17927      11147.318    
     38000   459.63918     -921.02883      15.387974     -905.64086      11402.517    
     39000   453.2526      -922.17664      15.174162     -907.00248      11408.521    
     40000   435.09642     -922.83201      14.566322     -908.26569      11048.321    
     41000   410.0214      -923.17835      13.726851     -909.4515       11533.521    
     42000   400.63041     -924.00289      13.412456     -910.59044      11148.799    
     43000   410.70687     -925.41377      13.7498       -911.66397      11345.999    
     44000   375.35049     -925.22697      12.566125     -912.66085      11639.844    
     45000   357.36357     -925.56345      11.963953     -913.5995       11442.394    
     46000   351.99348     -926.25651      11.784171     -914.47234      11355.63     
     47000   359.81542     -927.33643      12.046036     -915.29039      11711.144    
     48000   344.23188     -927.57913      11.524325     -916.05481      11669.123    
     49000   350.28927     -928.48313      11.727117     -916.75602      11383.78     
     50000   306.95117     -927.6993       10.276227     -917.42307      11692.129    
Loop time of 14.6255 on 1 procs for 50000 steps with 260 atoms

Performance: 295.374 ns/day, 0.081 hours/ns, 3418.686 timesteps/s
99.5% CPU use with 1 MPI tasks x 1 OpenMP threads

MPI task timing breakdown:
Section |  min time  |  avg time  |  max time  |%varavg| %total
---------------------------------------------------------------
Pair    | 14.101     | 14.101     | 14.101     |   0.0 | 96.41
Neigh   | 0.076311   | 0.076311   | 0.076311   |   0.0 |  0.52
Comm    | 0.009613   | 0.009613   | 0.009613   |   0.0 |  0.07
Output  | 0.052111   | 0.052111   | 0.052111   |   0.0 |  0.36
Modify  | 0.31009    | 0.31009    | 0.31009    |   0.0 |  2.12
Other   |            | 0.07636    |            |       |  0.52

Nlocal:            260 ave         260 max         260 min
Histogram: 1 0 0 0 0 0 0 0 0 0
Nghost:              0 ave           0 max           0 min
Histogram: 1 0 0 0 0 0 0 0 0 0
Neighs:           8251 ave        8251 max        8251 min
Histogram: 1 0 0 0 0 0 0 0 0 0

Total # of neighbors = 8251
Ave neighs/atom = 31.734615
Neighbor list builds = 303
Dangerous builds = 0
Total wall time: 0:00:14
