LAMMPS (15 Sep 2022)
OMP_NUM_THREADS environment is not set. Defaulting to 1 thread. (src/comm.cpp:98)
  using 1 OpenMP thread(s) per MPI task
Loaded 1 plugins from C:\Users\becat\AppData\Local\LAMMPS 64-bit 15Sep2022\plugins
Lattice spacing in x,y,z = 4.079 4.079 4.079
Created orthogonal box = (0 0 0) to (40.79 40.79 40.79)
  1 by 1 by 1 MPI processor grid
Read molecule template np:
  1 molecules
  0 fragments
  23 atoms with max type 1
  0 bonds with max type 0
  0 angles with max type 0
  0 dihedrals with max type 0
  0 impropers with max type 0
Created 23 atoms
  using lattice units in orthogonal box = (15.421022 16.031233 17.773717) to (24.499395 24.716868 23.016282)
  create_atoms CPU = 0.000 seconds
Neighbor list info ...
  update: every = 1 steps, delay = 10 steps, check = yes
  max neighbors/atom: 2000, page size: 100000
  master list distance cutoff = 7.55
  ghost atom cutoff = 7.55
  binsize = 3.775, bins = 3 3 2
  1 neighbor lists, perpetual/occasional/extra = 1 0 0
  (1) pair eam, perpetual
      attributes: half, newton on
      pair build: half/bin/atomonly/newton
      stencil: half/bin/3d
      bin: standard
Setting up Verlet run ...
  Unit style    : metal
  Current step  : 0
  Time step     : 0.001
Per MPI rank memory allocation (min/avg/max) = 4.536 | 4.536 | 4.536 Mbytes
   Step          Temp          PotEng         KinEng         TotEng         Volume    
         0   300           -69.750338      0.85311696    -68.897221      413.38377    
      1000   782.3447      -71.175787      2.2247718     -68.951015      382.54576    
      2000   755.59544     -71.240859      2.1487043     -69.092155      322.24359    
      3000   673.2059      -71.210324      1.9144112     -69.295913      326.77455    
      4000   735.73706     -71.628882      2.0922325     -69.53665       349.42247    
      5000   778.03268     -71.985085      2.2125096     -69.772576      281.32836    
      6000   693.35499     -71.953391      1.9717097     -69.981681      334.2936     
      7000   612.32548     -71.902674      1.7412842     -70.16139       320.69641    
      8000   721.61628     -72.397836      2.0520769     -70.345759      286.2529     
      9000   767.71339     -72.727157      2.1831644     -70.543993      256.56168    
     10000   911.68418     -73.352406      2.5925774     -70.759828      308.89514    
     11000   692.89129     -72.961847      1.970391      -70.991456      283.47168    
     12000   717.17977     -73.243194      2.0394607     -71.203734      336.8228     
     13000   685.38563     -73.347978      1.949047      -71.398931      300.53079    
     14000   490.15331     -72.968662      1.3938603     -71.574801      316.8087     
     15000   550.52835     -73.302041      1.5655502     -71.736491      292.1472     
     16000   613.52204     -73.655956      1.7446868     -71.91127       278.48939    
     17000   594.25256     -73.76844       1.6898898     -72.07855       281.35657    
     18000   448.68626     -73.514524      1.2759395     -72.238585      277.80291    
     19000   573.71859     -74.015647      1.6314968     -72.384151      277.80291    
     20000   420.45832     -73.719004      1.1956671     -72.523337      325.80159    
     21000   528.43259     -74.146747      1.502716      -72.644031      314.7059     
     22000   474.27385     -74.115327      1.3487036     -72.766623      282.83402    
     23000   348.32294     -73.872377      0.99053402    -72.881843      277.38038    
     24000   449.46999     -74.272886      1.2781682     -72.994717      305.29615    
     25000   310.38724     -73.973965      0.88265539    -73.091309      278.23578    
     26000   354.91955     -74.193611      1.009293      -73.184318      284.77499    
     27000   402.03312     -74.410404      1.1432709     -73.267133      284.77499    
     28000   354.39757     -74.351126      1.0078086     -73.343317      305.69945    
     29000   348.27496     -74.406168      0.99039757    -73.41577       307.9213     
     30000   373.90654     -74.547271      1.0632867     -73.483984      307.9213     
     31000   378.0158      -74.620289      1.0749723     -73.545317      307.9213     
     32000   315.54718     -74.502982      0.89732884    -73.605653      307.9213     
     33000   269.30037     -74.426582      0.76581569    -73.660767      307.9213     
     34000   302.52064     -74.573949      0.86028496    -73.713664      307.9213     
     35000   223.81438     -74.397757      0.63646613    -73.761291      307.9213     
     36000   308.16096     -74.68244       0.87632447    -73.806115      307.9213     
     37000   291.0933      -74.674868      0.82778877    -73.847079      307.9213     
     38000   285.323       -74.695646      0.81137964    -73.884266      307.9213     
     39000   215.20357     -74.531065      0.61197938    -73.919086      307.9213     
     40000   239.74503     -74.631146      0.68176851    -73.949378      307.9213     
     41000   250.47535     -74.689563      0.71228255    -73.977281      307.9213     
     42000   240.82797     -74.687276      0.68484807    -74.002428      307.9213     
     43000   202.50094     -74.600472      0.57585661    -74.024615      307.9213     
     44000   251.21269     -74.756682      0.71437935    -74.042303      307.9213     
     45000   275.30745     -74.84072       0.78289818    -74.057822      307.9213     
     46000   229.27842     -74.723379      0.65200436    -74.071374      307.9213     
     47000   227.94976     -74.729757      0.64822603    -74.081531      307.9213     
     48000   249.24391     -74.798067      0.70878069    -74.089286      307.9213     
     49000   248.07131     -74.799835      0.70544614    -74.094389      307.9213     
     50000   227.6922      -74.74426       0.64749358    -74.096766      307.9213     
Loop time of 0.775112 on 1 procs for 50000 steps with 23 atoms

Performance: 5573.388 ns/day, 0.004 hours/ns, 64506.807 timesteps/s
98.8% CPU use with 1 MPI tasks x 1 OpenMP threads

MPI task timing breakdown:
Section |  min time  |  avg time  |  max time  |%varavg| %total
---------------------------------------------------------------
Pair    | 0.65804    | 0.65804    | 0.65804    |   0.0 | 84.90
Neigh   | 0.00036    | 0.00036    | 0.00036    |   0.0 |  0.05
Comm    | 0.006967   | 0.006967   | 0.006967   |   0.0 |  0.90
Output  | 0.009978   | 0.009978   | 0.009978   |   0.0 |  1.29
Modify  | 0.080899   | 0.080899   | 0.080899   |   0.0 | 10.44
Other   |            | 0.01887    |            |       |  2.43

Nlocal:             23 ave          23 max          23 min
Histogram: 1 0 0 0 0 0 0 0 0 0
Nghost:              0 ave           0 max           0 min
Histogram: 1 0 0 0 0 0 0 0 0 0
Neighs:            250 ave         250 max         250 min
Histogram: 1 0 0 0 0 0 0 0 0 0

Total # of neighbors = 250
Ave neighs/atom = 10.869565
Neighbor list builds = 58
Dangerous builds = 0
Total wall time: 0:00:00
