LAMMPS (15 Sep 2022)
OMP_NUM_THREADS environment is not set. Defaulting to 1 thread. (src/comm.cpp:98)
  using 1 OpenMP thread(s) per MPI task
Loaded 1 plugins from C:\Users\becat\AppData\Local\LAMMPS 64-bit 15Sep2022\plugins
Lattice spacing in x,y,z = 4.079 4.079 4.079
Created orthogonal box = (0 0 0) to (40.79 40.79 40.79)
  1 by 1 by 1 MPI processor grid
Read molecule template np:
  1 molecules
  0 fragments
  567 atoms with max type 1
  0 bonds with max type 0
  0 angles with max type 0
  0 dihedrals with max type 0
  0 impropers with max type 0
Created 567 atoms
  using lattice units in orthogonal box = (8.0664047 6.6009814 6.0304193) to (33.319629 33.928713 35.115125)
  create_atoms CPU = 0.000 seconds
Neighbor list info ...
  update: every = 1 steps, delay = 10 steps, check = yes
  max neighbors/atom: 2000, page size: 100000
  master list distance cutoff = 7.55
  ghost atom cutoff = 7.55
  binsize = 3.775, bins = 7 8 8
  1 neighbor lists, perpetual/occasional/extra = 1 0 0
  (1) pair eam, perpetual
      attributes: half, newton on
      pair build: half/bin/atomonly/newton
      stencil: half/bin/3d
      bin: standard
Setting up Verlet run ...
  Unit style    : metal
  Current step  : 0
  Time step     : 0.001
Per MPI rank memory allocation (min/avg/max) = 4.571 | 4.571 | 4.571 Mbytes
   Step          Temp          PotEng         KinEng         TotEng         Volume    
         0   300           -2088.0516      21.948373     -2066.1032      20071.743    
      1000   279.25747     -2086.5104      20.430823     -2066.0796      17764.625    
      2000   252.13702     -2084.4497      18.446658     -2066.0031      17764.625    
      3000   268.33302     -2085.5079      19.631577     -2065.8763      17764.625    
      4000   265.37467     -2085.1129      19.415141     -2065.6978      17764.625    
      5000   268.27668     -2085.1038      19.627455     -2065.4763      17764.625    
      6000   268.50505     -2084.868       19.644163     -2065.2239      17764.625    
      7000   264.36187     -2084.3042      19.341042     -2064.9632      17764.625    
      8000   259.73229     -2083.7126      19.002337     -2064.7102      18447.921    
      9000   267.46428     -2084.0491      19.568019     -2064.4811      18447.921    
     10000   273.62573     -2084.294       20.018799     -2064.2752      18447.921    
     11000   275.13102     -2084.2173      20.128927     -2064.0883      18447.921    
     12000   262.68849     -2083.1303      19.218617     -2063.9117      18447.921    
     13000   281.14843     -2084.3068      20.569168     -2063.7376      18447.921    
     14000   283.60173     -2084.3094      20.748655     -2063.5608      18447.921    
     15000   277.77648     -2083.6997      20.322473     -2063.3773      18447.921    
     16000   277.3651      -2083.479       20.292375     -2063.1866      18447.921    
     17000   283.0811      -2083.697       20.710565     -2062.9864      18447.921    
     18000   284.1476      -2083.5681      20.788591     -2062.7795      17916.401    
     19000   282.82538     -2083.2602      20.691856     -2062.5684      17916.401    
     20000   286.32229     -2083.3001      20.947694     -2062.3524      17916.401    
     21000   288.15582     -2083.2172      21.081838     -2062.1353      17916.401    
     22000   294.29121     -2083.4482      21.53071      -2061.9175      17916.401    
     23000   282.22037     -2082.3508      20.647593     -2061.7032      17916.401    
     24000   287.68295     -2082.5387      21.047242     -2061.4915      17916.401    
     25000   269.38515     -2080.9936      19.708552     -2061.285       17916.401    
     26000   298.09648     -2082.8925      21.809109     -2061.0834      17916.401    
     27000   293.28468     -2082.3444      21.457072     -2060.8874      18152.606    
     28000   292.066       -2082.0634      21.367911     -2060.6955      18287.323    
     29000   280.72628     -2081.0492      20.538284     -2060.5109      18287.323    
     30000   303.18938     -2082.5136      22.181712     -2060.3319      18287.323    
     31000   293.90116     -2081.6632      21.502174     -2060.161       18287.323    
     32000   302.80697     -2082.1502      22.153734     -2059.9964      18287.323    
     33000   293.36132     -2081.303       21.462679     -2059.8403      18287.323    
     34000   298.08724     -2081.4998      21.808433     -2059.6913      18287.323    
     35000   296.11449     -2081.2151      21.664104     -2059.551       18287.323    
     36000   310.98109     -2082.1697      22.751763     -2059.418       18287.323    
     37000   330.58165     -2083.4785      24.185764     -2059.2928      18287.323    
     38000   318.78424     -2082.4995      23.322651     -2059.1769      18287.323    
     39000   305.32838     -2081.4086      22.338203     -2059.0704      18287.323    
     40000   291.09525     -2080.2696      21.29689      -2058.9727      18287.323    
     41000   315.7605      -2081.9868      23.10143      -2058.8854      18287.323    
     42000   308.64332     -2081.3899      22.580729     -2058.8092      18287.323    
     43000   312.89327     -2081.6348      22.891661     -2058.7431      18287.323    
     44000   290.67858     -2079.9543      21.266406     -2058.6879      18287.323    
     45000   324.73799     -2082.4015      23.758234     -2058.6433      18287.323    
     46000   304.13755     -2080.8619      22.251081     -2058.6108      18287.323    
     47000   295.3741      -2080.1995      21.609936     -2058.5895      18287.323    
     48000   309.71628     -2081.2395      22.659228     -2058.5802      18545.461    
     49000   313.96124     -2081.5539      22.969794     -2058.5841      18545.461    
     50000   323.6195      -2082.2785      23.676405     -2058.6021      18545.461    
Loop time of 34.6813 on 1 procs for 50000 steps with 567 atoms

Performance: 124.563 ns/day, 0.193 hours/ns, 1441.697 timesteps/s
99.7% CPU use with 1 MPI tasks x 1 OpenMP threads

MPI task timing breakdown:
Section |  min time  |  avg time  |  max time  |%varavg| %total
---------------------------------------------------------------
Pair    | 33.864     | 33.864     | 33.864     |   0.0 | 97.64
Neigh   | 0.004163   | 0.004163   | 0.004163   |   0.0 |  0.01
Comm    | 0.009145   | 0.009145   | 0.009145   |   0.0 |  0.03
Output  | 0.10625    | 0.10625    | 0.10625    |   0.0 |  0.31
Modify  | 0.58056    | 0.58056    | 0.58056    |   0.0 |  1.67
Other   |            | 0.117      |            |       |  0.34

Nlocal:            567 ave         567 max         567 min
Histogram: 1 0 0 0 0 0 0 0 0 0
Nghost:              0 ave           0 max           0 min
Histogram: 1 0 0 0 0 0 0 0 0 0
Neighs:          20033 ave       20033 max       20033 min
Histogram: 1 0 0 0 0 0 0 0 0 0

Total # of neighbors = 20033
Ave neighs/atom = 35.33157
Neighbor list builds = 6
Dangerous builds = 0
Total wall time: 0:00:34
