LAMMPS (15 Sep 2022)
OMP_NUM_THREADS environment is not set. Defaulting to 1 thread. (src/comm.cpp:98)
  using 1 OpenMP thread(s) per MPI task
Loaded 1 plugins from C:\Users\becat\AppData\Local\LAMMPS 64-bit 15Sep2022\plugins
Lattice spacing in x,y,z = 4.079 4.079 4.079
Created orthogonal box = (0 0 0) to (40.79 40.79 40.79)
  1 by 1 by 1 MPI processor grid
Read molecule template np:
  1 molecules
  0 fragments
  1139 atoms with max type 1
  0 bonds with max type 0
  0 angles with max type 0
  0 dihedrals with max type 0
  0 impropers with max type 0
Created 1139 atoms
  using lattice units in orthogonal box = (5.0059167 3.4191795 3.1997225) to (35.784083 37.37082 37.590278)
  create_atoms CPU = 0.000 seconds
Neighbor list info ...
  update: every = 1 steps, delay = 10 steps, check = yes
  max neighbors/atom: 2000, page size: 100000
  master list distance cutoff = 7.55
  ghost atom cutoff = 7.55
  binsize = 3.775, bins = 9 9 10
  1 neighbor lists, perpetual/occasional/extra = 1 0 0
  (1) pair eam, perpetual
      attributes: half, newton on
      pair build: half/bin/atomonly/newton
      stencil: half/bin/3d
      bin: standard
Setting up Verlet run ...
  Unit style    : metal
  Current step  : 0
  Time step     : 0.001
Per MPI rank memory allocation (min/avg/max) = 4.605 | 4.605 | 4.605 Mbytes
   Step          Temp          PotEng         KinEng         TotEng         Volume    
         0   300           -4255.2025      44.129414     -4211.0731      35937.073    
      1000   224.11532     -4243.957       32.966925     -4210.99        35937.073    
      2000   230.83158     -4244.6955      33.954874     -4210.7407      35937.073    
      3000   231.66901     -4244.418       34.078059     -4210.34        35937.073    
      4000   226.39555     -4243.1522      33.302343     -4209.8498      35937.073    
      5000   228.34729     -4242.9438      33.589439     -4209.3544      35937.073    
      6000   226.45288     -4242.22        33.310775     -4208.9092      35937.073    
      7000   237.13343     -4243.3807      34.881864     -4208.4988      35937.073    
      8000   237.57363     -4243.03        34.946617     -4208.0834      35937.073    
      9000   234.85126     -4242.1836      34.546162     -4207.6374      35937.073    
     10000   233.09945     -4241.4376      34.288473     -4207.1491      35937.073    
     11000   244.9848      -4242.6637      36.036785     -4206.6269      35937.073    
     12000   243.12163     -4241.8424      35.762716     -4206.0797      35937.073    
     13000   245.49539     -4241.6271      36.111891     -4205.5152      35937.073    
     14000   243.61925     -4240.7773      35.835915     -4204.9414      35937.073    
     15000   243.07155     -4240.117       35.75535      -4204.3617      35937.073    
     16000   251.23987     -4240.7347      36.956893     -4203.7778      35937.073    
     17000   244.79289     -4239.1959      36.008555     -4203.1874      35937.073    
     18000   256.73428     -4240.3568      37.76511      -4202.5917      35937.073    
     19000   260.14905     -4240.2602      38.267417     -4201.9928      35937.073    
     20000   258.22354     -4239.3759      37.984178     -4201.3917      34057.278    
     21000   254.07865     -4238.1605      37.374473     -4200.7861      34057.278    
     22000   266.1807      -4239.3353      39.154661     -4200.1807      34057.278    
     23000   255.70167     -4237.1864      37.613215     -4199.5731      34060.57     
     24000   265.34539     -4237.9975      39.031788     -4198.9657      34060.57     
     25000   264.43305     -4237.2579      38.897584     -4198.3603      33288.767    
     26000   264.65242     -4236.6868      38.929854     -4197.7569      34042.105    
     27000   257.66379     -4235.0606      37.901839     -4197.1588      34042.105    
     28000   259.40913     -4234.7187      38.158575     -4196.5601      34042.105    
     29000   267.90736     -4235.3764      39.408649     -4195.9677      34042.105    
     30000   284.55393     -4237.2382      41.857327     -4195.3809      34042.105    
     31000   276.61108     -4235.4888      40.688949     -4194.7998      34042.105    
     32000   279.89896     -4235.3975      41.17259      -4194.2249      34042.105    
     33000   276.01174     -4234.2581      40.600788     -4193.6573      34042.105    
     34000   284.75292     -4234.9844      41.886598     -4193.0978      34288.581    
     35000   288.32264     -4234.9578      42.411696     -4192.5461      34035.485    
     36000   283.022       -4233.6373      41.631983     -4192.0053      33700.919    
     37000   281.59664     -4232.8981      41.422315     -4191.4758      34661.441    
     38000   290.29025     -4233.658       42.701128     -4190.9568      34661.441    
     39000   293.28376     -4233.5938      43.141468     -4190.4523      33666.161    
     40000   291.09943     -4232.7793      42.820156     -4189.9591      33666.161    
     41000   297.99407     -4233.3153      43.834346     -4189.481       33666.161    
     42000   297.27189     -4232.7445      43.728114     -4189.0164      33711.328    
     43000   309.0601      -4234.031       45.462136     -4188.5689      34412.2      
     44000   292.94688     -4231.2282      43.091913     -4188.1363      33724.361    
     45000   307.97946     -4233.0277      45.303177     -4187.7245      33724.361    
     46000   290.56179     -4230.0714      42.741071     -4187.3303      33724.361    
     47000   299.58791     -4231.0233      44.068796     -4186.9545      33724.361    
     48000   313.54205     -4232.7217      46.121423     -4186.6002      33637.495    
     49000   306.6011      -4231.3665      45.100423     -4186.2661      33637.495    
     50000   291.86405     -4228.8868      42.932632     -4185.9542      33864.647    
Loop time of 121.879 on 1 procs for 50000 steps with 1139 atoms

Performance: 35.445 ns/day, 0.677 hours/ns, 410.242 timesteps/s
99.8% CPU use with 1 MPI tasks x 1 OpenMP threads

MPI task timing breakdown:
Section |  min time  |  avg time  |  max time  |%varavg| %total
---------------------------------------------------------------
Pair    | 119.29     | 119.29     | 119.29     |   0.0 | 97.88
Neigh   | 0.038092   | 0.038092   | 0.038092   |   0.0 |  0.03
Comm    | 0.016071   | 0.016071   | 0.016071   |   0.0 |  0.01
Output  | 0.33795    | 0.33795    | 0.33795    |   0.0 |  0.28
Modify  | 1.852      | 1.852      | 1.852      |   0.0 |  1.52
Other   |            | 0.345      |            |       |  0.28

Nlocal:           1139 ave        1139 max        1139 min
Histogram: 1 0 0 0 0 0 0 0 0 0
Nghost:              0 ave           0 max           0 min
Histogram: 1 0 0 0 0 0 0 0 0 0
Neighs:          43440 ave       43440 max       43440 min
Histogram: 1 0 0 0 0 0 0 0 0 0

Total # of neighbors = 43440
Ave neighs/atom = 38.138718
Neighbor list builds = 15
Dangerous builds = 0
Total wall time: 0:02:01
