LAMMPS (15 Sep 2022)
OMP_NUM_THREADS environment is not set. Defaulting to 1 thread. (src/comm.cpp:98)
  using 1 OpenMP thread(s) per MPI task
Loaded 1 plugins from C:\Users\becat\AppData\Local\LAMMPS 64-bit 15Sep2022\plugins
Lattice spacing in x,y,z = 4.079 4.079 4.079
Created orthogonal box = (0 0 0) to (40.79 40.79 40.79)
  1 by 1 by 1 MPI processor grid
Read molecule template np:
  1 molecules
  0 fragments
  75 atoms with max type 1
  0 bonds with max type 0
  0 angles with max type 0
  0 dihedrals with max type 0
  0 impropers with max type 0
Created 75 atoms
  using lattice units in orthogonal box = (14.453178 14.132439 15.156514) to (26.605537 26.670507 25.633486)
  create_atoms CPU = 0.000 seconds
Neighbor list info ...
  update: every = 1 steps, delay = 10 steps, check = yes
  max neighbors/atom: 2000, page size: 100000
  master list distance cutoff = 7.55
  ghost atom cutoff = 7.55
  binsize = 3.775, bins = 4 4 3
  1 neighbor lists, perpetual/occasional/extra = 1 0 0
  (1) pair eam, perpetual
      attributes: half, newton on
      pair build: half/bin/atomonly/newton
      stencil: half/bin/3d
      bin: standard
Setting up Verlet run ...
  Unit style    : metal
  Current step  : 0
  Time step     : 0.001
Per MPI rank memory allocation (min/avg/max) = 4.539 | 4.539 | 4.539 Mbytes
   Step          Temp          PotEng         KinEng         TotEng         Volume    
         0   300           -255.21674      2.8695752     -252.34716      1596.3458    
      1000   516.99468     -257.32521      4.9451837     -252.38002      1256.9714    
      2000   569.43051     -257.91976      5.4467456     -252.47302      1256.9714    
      3000   571.61405     -258.09494      5.4676317     -252.62731      1409.8995    
      4000   508.97267     -257.69231      4.8684512     -252.82385      1391.8296    
      5000   488.21927     -257.70643      4.6699398     -253.03649      1380.635     
      6000   441.2535      -257.4597       4.2207004     -253.239        1439.9676    
      7000   500.50544     -258.20107      4.78746       -253.41361      1385.1209    
      8000   424.95927     -257.62602      4.0648419     -253.56118      1360.9913    
      9000   431.54735     -257.82998      4.1278586     -253.70212      1476.3832    
     10000   393.77989     -257.60675      3.7666034     -253.84014      1377.3816    
     11000   433.02445     -258.12414      4.1419875     -253.98215      1459.9844    
     12000   410.0278      -258.04567      3.9220187     -254.12365      1459.9844    
     13000   396.66658     -258.06492      3.7942153     -254.2707       1417.4392    
     14000   396.26877     -258.21368      3.7904102     -254.42327      1401.5958    
     15000   422.7869      -258.62019      4.0440627     -254.57612      1416.3338    
     16000   381.57411     -258.37674      3.649852      -254.72689      1421.86      
     17000   356.70165     -258.28799      3.4119407     -254.87605      1421.86      
     18000   396.67437     -258.81302      3.7942898     -255.01873      1421.86      
     19000   420.63054     -259.18117      4.0234365     -255.15773      1421.86      
     20000   398.08048     -259.09871      3.8077396     -255.29097      1421.86      
     21000   345.78347     -258.72675      3.3075056     -255.41925      1421.86      
     22000   290.34382     -258.31761      2.7772114     -255.5404       1421.86      
     23000   345.24261     -258.95996      3.3023322     -255.65763      1421.86      
     24000   328.51681     -258.91212      3.1423457     -255.76977      1421.86      
     25000   324.68524     -258.9829       3.1056957     -255.8772       1421.86      
     26000   317.84949     -259.02155      3.0403101     -255.98124      1421.86      
     27000   286.67013     -258.81908      2.7420716     -256.07701      1421.86      
     28000   273.83185     -258.78777      2.6192703     -256.1685       1421.86      
     29000   294.47454     -259.07271      2.8167228     -256.25599      1421.86      
     30000   295.97253     -259.16986      2.8310515     -256.33881      1421.86      
     31000   309.40842     -259.37649      2.9595691     -256.41692      1421.86      
     32000   312.31167     -259.47809      2.9873394     -256.49075      1421.86      
     33000   291.52456     -259.34767      2.7885055     -256.55916      1421.86      
     34000   334.22345     -259.82073      3.1969311     -256.6238       1421.86      
     35000   270.65839     -259.27255      2.5889154     -256.68363      1421.86      
     36000   293.32191     -259.54407      2.8056977     -256.73837      1421.86      
     37000   306.62911     -259.72317      2.9329843     -256.79019      1421.86      
     38000   270.71417     -259.42672      2.589449      -256.83727      1421.86      
     39000   294.16507     -259.69418      2.8137627     -256.88042      1421.86      
     40000   247.63771     -259.28809      2.3687168     -256.91938      1421.86      
     41000   247.23224     -259.31808      2.3648384     -256.95325      1421.86      
     42000   282.2944      -259.68319      2.7002167     -256.98297      1421.86      
     43000   294.29719     -259.82376      2.8150264     -257.00874      1421.86      
     44000   287.42954     -259.77883      2.7493356     -257.0295       1421.86      
     45000   260.05971     -259.53323      2.4875363     -257.04569      1421.86      
     46000   266.51569     -259.6068       2.5492894     -257.05751      1421.86      
     47000   253.77069     -259.49173      2.4273803     -257.06435      1421.86      
     48000   278.81387     -259.73318      2.6669245     -257.06626      1421.86      
     49000   296.2066      -259.89656      2.8332904     -257.06327      1421.86      
     50000   279.58819     -259.72957      2.6743312     -257.05523      1421.86      
Loop time of 2.49338 on 1 procs for 50000 steps with 75 atoms

Performance: 1732.584 ns/day, 0.014 hours/ns, 20053.060 timesteps/s
99.6% CPU use with 1 MPI tasks x 1 OpenMP threads

MPI task timing breakdown:
Section |  min time  |  avg time  |  max time  |%varavg| %total
---------------------------------------------------------------
Pair    | 2.3627     | 2.3627     | 2.3627     |   0.0 | 94.76
Neigh   | 0.000638   | 0.000638   | 0.000638   |   0.0 |  0.03
Comm    | 0.00478    | 0.00478    | 0.00478    |   0.0 |  0.19
Output  | 0.013999   | 0.013999   | 0.013999   |   0.0 |  0.56
Modify  | 0.093046   | 0.093046   | 0.093046   |   0.0 |  3.73
Other   |            | 0.01823    |            |       |  0.73

Nlocal:             75 ave          75 max          75 min
Histogram: 1 0 0 0 0 0 0 0 0 0
Nghost:              0 ave           0 max           0 min
Histogram: 1 0 0 0 0 0 0 0 0 0
Neighs:           1724 ave        1724 max        1724 min
Histogram: 1 0 0 0 0 0 0 0 0 0

Total # of neighbors = 1724
Ave neighs/atom = 22.986667
Neighbor list builds = 21
Dangerous builds = 0
Total wall time: 0:00:02
