LAMMPS (15 Sep 2022)
OMP_NUM_THREADS environment is not set. Defaulting to 1 thread. (src/comm.cpp:98)
  using 1 OpenMP thread(s) per MPI task
Loaded 1 plugins from C:\Users\becat\AppData\Local\LAMMPS 64-bit 15Sep2022\plugins
Lattice spacing in x,y,z = 4.079 4.079 4.079
Created orthogonal box = (0 0 0) to (40.79 40.79 40.79)
  1 by 1 by 1 MPI processor grid
Read molecule template np:
  1 molecules
  0 fragments
  33 atoms with max type 1
  0 bonds with max type 0
  0 angles with max type 0
  0 dihedrals with max type 0
  0 impropers with max type 0
Created 33 atoms
  using lattice units in orthogonal box = (15.974771 16.850554 16.249274) to (24.207735 23.978167 24.679345)
  create_atoms CPU = 0.000 seconds
Neighbor list info ...
  update: every = 1 steps, delay = 10 steps, check = yes
  max neighbors/atom: 2000, page size: 100000
  master list distance cutoff = 7.55
  ghost atom cutoff = 7.55
  binsize = 3.775, bins = 3 2 3
  1 neighbor lists, perpetual/occasional/extra = 1 0 0
  (1) pair eam, perpetual
      attributes: half, newton on
      pair build: half/bin/atomonly/newton
      stencil: half/bin/3d
      bin: standard
Setting up Verlet run ...
  Unit style    : metal
  Current step  : 0
  Time step     : 0.001
Per MPI rank memory allocation (min/avg/max) = 4.536 | 4.536 | 4.536 Mbytes
   Step          Temp          PotEng         KinEng         TotEng         Volume    
         0   300           -110.03286      1.2408974     -108.79197      494.68821    
      1000   193.35353     -109.58911      0.79977298    -108.78934      494.68821    
      2000   191.57651     -109.57361      0.79242264    -108.78119      494.68821    
      3000   242.06729     -109.76887      1.0012689     -108.7676       494.68821    
      4000   213.09825     -109.62964      0.88144355    -108.7482       478.45642    
      5000   241.18338     -109.72028      0.99761274    -108.72266      478.45642    
      6000   258.30823     -109.75976      1.0684467     -108.69131      467.40606    
      7000   242.94218     -109.6599       1.0048877     -108.65501      467.40606    
      8000   201.56104     -109.44874      0.83372191    -108.61502      467.40606    
      9000   267.19868     -109.67881      1.1052205     -108.57359      467.40606    
     10000   289.72201     -109.7295       1.1983843     -108.53111      467.40606    
     11000   237.63099     -109.47444      0.98291894    -108.49152      467.40606    
     12000   256.48543     -109.51426      1.060907      -108.45336      467.40606    
     13000   268.95316     -109.53042      1.1124776     -108.41795      467.40606    
     14000   253.72854     -109.43674      1.0495036     -108.38724      467.40606    
     15000   252.53282     -109.40529      1.0445577     -108.36073      467.40606    
     16000   247.24104     -109.35917      1.0226692     -108.3365       467.40606    
     17000   244.04929     -109.32437      1.0094671     -108.31491      478.57945    
     18000   303.72392     -109.54908      1.2563008     -108.29278      482.55658    
     19000   259.30277     -109.3445       1.0725604     -108.27194      463.27953    
     20000   307.0147      -109.52132      1.2699125     -108.25141      463.27953    
     21000   295.64905     -109.45338      1.2229004     -108.23048      443.40948    
     22000   272.87316     -109.33652      1.128692      -108.20783      454.65523    
     23000   282.92452     -109.35543      1.1702677     -108.18516      454.65523    
     24000   291.11228     -109.3669       1.2041349     -108.16276      440.83069    
     25000   245.60571     -109.15592      1.0159049     -108.14001      440.83069    
     26000   307.63969     -109.38927      1.2724976     -108.11677      466.49234    
     27000   311.19157     -109.38103      1.2871893     -108.09384      466.49234    
     28000   323.12359     -109.40803      1.3365441     -108.07149      466.49234    
     29000   298.59145     -109.28459      1.2350712     -108.04952      466.49234    
     30000   276.74557     -109.17304      1.1447095     -108.02833      466.49234    
     31000   278.6117      -109.15988      1.1524285     -108.00745      466.49234    
     32000   278.95683     -109.14087      1.153856      -107.98701      466.49234    
     33000   258.46202     -109.03624      1.0690828     -107.96716      466.49234    
     34000   263.14149     -109.03697      1.0884386     -107.94854      466.49234    
     35000   279.88346     -109.08842      1.1576888     -107.93073      468.83654    
     36000   277.97586     -109.06402      1.1497984     -107.91422      478.83635    
     37000   299.29751     -109.13607      1.2379917     -107.89808      478.83635    
     38000   329.32665     -109.24559      1.362202      -107.88339      478.83635    
     39000   350.62166     -109.32015      1.450285      -107.86986      478.83635    
     40000   332.98689     -109.23425      1.3773419     -107.85691      478.83635    
     41000   348.28109     -109.28616      1.4406037     -107.84556      478.83635    
     42000   336.32232     -109.22718      1.3911383     -107.83605      478.83635    
     43000   339.19239     -109.23145      1.4030098     -107.82844      478.83635    
     44000   320.63895     -109.14861      1.3262668     -107.82234      478.83635    
     45000   316.04252     -109.12575      1.3072545     -107.81849      478.83635    
     46000   339.75026     -109.22243      1.4053174     -107.81712      466.06949    
     47000   364.63363     -109.32605      1.5082431     -107.8178       466.06949    
     48000   380.64868     -109.39591      1.5744865     -107.82143      483.48383    
     49000   270.59569     -108.94772      1.1192716     -107.82845      483.48383    
     50000   334.12464     -109.21969      1.382048      -107.83764      483.48383    
Loop time of 1.2353 on 1 procs for 50000 steps with 33 atoms

Performance: 3497.118 ns/day, 0.007 hours/ns, 40475.899 timesteps/s
96.1% CPU use with 1 MPI tasks x 1 OpenMP threads

MPI task timing breakdown:
Section |  min time  |  avg time  |  max time  |%varavg| %total
---------------------------------------------------------------
Pair    | 1.1078     | 1.1078     | 1.1078     |   0.0 | 89.68
Neigh   | 0.000162   | 0.000162   | 0.000162   |   0.0 |  0.01
Comm    | 0.008683   | 0.008683   | 0.008683   |   0.0 |  0.70
Output  | 0.012064   | 0.012064   | 0.012064   |   0.0 |  0.98
Modify  | 0.088325   | 0.088325   | 0.088325   |   0.0 |  7.15
Other   |            | 0.01824    |            |       |  1.48

Nlocal:             33 ave          33 max          33 min
Histogram: 1 0 0 0 0 0 0 0 0 0
Nghost:              0 ave           0 max           0 min
Histogram: 1 0 0 0 0 0 0 0 0 0
Neighs:            488 ave         488 max         488 min
Histogram: 1 0 0 0 0 0 0 0 0 0

Total # of neighbors = 488
Ave neighs/atom = 14.787879
Neighbor list builds = 14
Dangerous builds = 0
Total wall time: 0:00:01
