LAMMPS (15 Sep 2022)
OMP_NUM_THREADS environment is not set. Defaulting to 1 thread. (src/comm.cpp:98)
  using 1 OpenMP thread(s) per MPI task
Loaded 1 plugins from C:\Users\becat\AppData\Local\LAMMPS 64-bit 15Sep2022\plugins
Lattice spacing in x,y,z = 4.079 4.079 4.079
Created orthogonal box = (0 0 0) to (40.79 40.79 40.79)
  1 by 1 by 1 MPI processor grid
Read molecule template np:
  1 molecules
  0 fragments
  35 atoms with max type 1
  0 bonds with max type 0
  0 angles with max type 0
  0 dihedrals with max type 0
  0 impropers with max type 0
Created 35 atoms
  using lattice units in orthogonal box = (17.070591 16.784531 14.016684) to (23.546884 24.624132 26.975464)
  create_atoms CPU = 0.000 seconds
Neighbor list info ...
  update: every = 1 steps, delay = 10 steps, check = yes
  max neighbors/atom: 2000, page size: 100000
  master list distance cutoff = 7.55
  ghost atom cutoff = 7.55
  binsize = 3.775, bins = 2 3 4
  1 neighbor lists, perpetual/occasional/extra = 1 0 0
  (1) pair eam, perpetual
      attributes: half, newton on
      pair build: half/bin/atomonly/newton
      stencil: half/bin/3d
      bin: standard
Setting up Verlet run ...
  Unit style    : metal
  Current step  : 0
  Time step     : 0.001
Per MPI rank memory allocation (min/avg/max) = 4.537 | 4.537 | 4.537 Mbytes
   Step          Temp          PotEng         KinEng         TotEng         Volume    
         0   300           -115.89559      1.3184535     -114.57714      657.93737    
      1000   227.799       -115.57542      1.0011413     -114.57428      657.93737    
      2000   215.28401     -115.51202      0.94613984    -114.56588      657.93737    
      3000   192.38042     -115.39709      0.84548212    -114.55161      592.16515    
      4000   180.86545     -115.32696      0.7948756     -114.53209      592.16515    
      5000   172.6841      -115.26526      0.75891984    -114.50634      568.70857    
      6000   191.2534      -115.31414      0.84052902    -114.47361      588.8505     
      7000   209.98451     -115.35836      0.92284937    -114.43551      588.8505     
      8000   239.45481     -115.44548      1.0523668     -114.39311      588.8505     
      9000   212.41425     -115.28287      0.93352768    -114.34934      588.8505     
     10000   215.32036     -115.25134      0.9462996     -114.30505      594.19431    
     11000   324.15378     -115.68529      1.4246056     -114.26069      576.26763    
     12000   248.85076     -115.31406      1.0936605     -114.2204       572.37038    
     13000   243.72342     -115.2562       1.0711266     -114.18507      574.88246    
     14000   205.15272     -115.05793      0.90161438    -114.15631      641.79189    
     15000   286.39141     -115.38914      1.2586458     -114.13049      641.79189    
     16000   326.588       -115.54351      1.4353036     -114.1082       559.72489    
     17000   313.61515     -115.4665       1.37829       -114.08821      559.72489    
     18000   288.25078     -115.33698      1.2668175     -114.07016      559.72489    
     19000   232.76482     -115.07574      1.0229653     -114.05277      559.72489    
     20000   314.98333     -115.42057      1.3843029     -114.03627      559.72489    
     21000   319.09536     -115.42308      1.4023746     -114.0207       559.72489    
     22000   318.9588      -115.408        1.4017745     -114.00623      594.60918    
     23000   331.15709     -115.44708      1.455384      -113.99169      594.60918    
     24000   303.27031     -115.30963      1.332826      -113.9768       546.04301    
     25000   263.16323     -115.11785      1.1565616     -113.96129      546.04301    
     26000   342.75636     -115.45207      1.5063611     -113.94571      546.04301    
     27000   332.09382     -115.3896       1.4595009     -113.93009      591.69879    
     28000   337.12469     -115.39684      1.4816108     -113.91523      542.43405    
     29000   308.27998     -115.2565       1.3548427     -113.90165      568.88798    
     30000   369.43153     -115.5158       1.6235943     -113.89221      519.47041    
     31000   446.01133     -115.85194      1.9601506     -113.89179      507.11527    
     32000   377.02782     -115.55768      1.6569788     -113.9007       519.59487    
     33000   390.57795     -115.63476      1.7165295     -113.91823      525.46464    
     34000   357.45848     -115.51578      1.5709746     -113.94481      525.46464    
     35000   350.50394     -115.51965      1.5404105     -113.97924      525.46464    
     36000   357.13416     -115.59289      1.5695493     -114.02334      525.46464    
     37000   410.31369     -115.87734      1.803265      -114.07407      516.90043    
     38000   378.19839     -115.79263      1.6621233     -114.13051      516.90043    
     39000   381.17141     -115.86542      1.6751892     -114.19023      490.88267    
     40000   322.2719      -115.66791      1.416335      -114.25157      490.88267    
     41000   297.11573     -115.61862      1.3057775     -114.31284      490.88267    
     42000   330.95347     -115.8243       1.4544892     -114.36981      490.88267    
     43000   268.88957     -115.60283      1.181728      -114.4211       490.88267    
     44000   274.19986     -115.67102      1.2050659     -114.46595      490.88267    
     45000   336.2906      -115.9813       1.477945      -114.50336      490.88267    
     46000   331.29793     -115.9926       1.456003      -114.5366       490.88267    
     47000   350.40451     -116.10319      1.5399735     -114.56322      529.69822    
     48000   307.51285     -115.93837      1.3514713     -114.5869       494.84636    
     49000   298.18746     -115.92124      1.3104876     -114.61075      494.84636    
     50000   309.12453     -115.99183      1.3585544     -114.63328      514.76665    
Loop time of 1.19881 on 1 procs for 50000 steps with 35 atoms

Performance: 3603.583 ns/day, 0.007 hours/ns, 41708.132 timesteps/s
100.4% CPU use with 1 MPI tasks x 1 OpenMP threads

MPI task timing breakdown:
Section |  min time  |  avg time  |  max time  |%varavg| %total
---------------------------------------------------------------
Pair    | 1.0742     | 1.0742     | 1.0742     |   0.0 | 89.61
Neigh   | 0.000288   | 0.000288   | 0.000288   |   0.0 |  0.02
Comm    | 0.006258   | 0.006258   | 0.006258   |   0.0 |  0.52
Output  | 0.011219   | 0.011219   | 0.011219   |   0.0 |  0.94
Modify  | 0.088733   | 0.088733   | 0.088733   |   0.0 |  7.40
Other   |            | 0.01807    |            |       |  1.51

Nlocal:             35 ave          35 max          35 min
Histogram: 1 0 0 0 0 0 0 0 0 0
Nghost:              0 ave           0 max           0 min
Histogram: 1 0 0 0 0 0 0 0 0 0
Neighs:            528 ave         528 max         528 min
Histogram: 1 0 0 0 0 0 0 0 0 0

Total # of neighbors = 528
Ave neighs/atom = 15.085714
Neighbor list builds = 27
Dangerous builds = 0
Total wall time: 0:00:01
