LAMMPS (15 Sep 2022)
OMP_NUM_THREADS environment is not set. Defaulting to 1 thread. (src/comm.cpp:98)
  using 1 OpenMP thread(s) per MPI task
Loaded 1 plugins from C:\Users\becat\AppData\Local\LAMMPS 64-bit 15Sep2022\plugins
Lattice spacing in x,y,z = 4.079 4.079 4.079
Created orthogonal box = (0 0 0) to (40.79 40.79 40.79)
  1 by 1 by 1 MPI processor grid
Read molecule template np:
  1 molecules
  0 fragments
  923 atoms with max type 1
  0 bonds with max type 0
  0 angles with max type 0
  0 dihedrals with max type 0
  0 impropers with max type 0
Created 923 atoms
  using lattice units in orthogonal box = (4.2726499 4.6046274 4.5403973) to (36.51735 36.185373 36.249603)
  create_atoms CPU = 0.000 seconds
Neighbor list info ...
  update: every = 1 steps, delay = 10 steps, check = yes
  max neighbors/atom: 2000, page size: 100000
  master list distance cutoff = 7.55
  ghost atom cutoff = 7.55
  binsize = 3.775, bins = 9 9 9
  1 neighbor lists, perpetual/occasional/extra = 1 0 0
  (1) pair eam, perpetual
      attributes: half, newton on
      pair build: half/bin/atomonly/newton
      stencil: half/bin/3d
      bin: standard
Setting up Verlet run ...
  Unit style    : metal
  Current step  : 0
  Time step     : 0.001
Per MPI rank memory allocation (min/avg/max) = 4.593 | 4.593 | 4.593 Mbytes
   Step          Temp          PotEng         KinEng         TotEng         Volume    
         0   300           -3359.1205      35.753356     -3323.3671      32289.854    
      1000   384.75948     -3369.7255      45.854809     -3323.8707      29793.501    
      2000   497.6844      -3384.5336      59.312958     -3325.2206      27439.864    
      3000   574.52317     -3395.2608      68.470438     -3326.7904      25342.736    
      4000   501.02107     -3387.8806      59.710616     -3328.17        25493.467    
      5000   471.38401     -3385.6802      56.178535     -3329.5017      25513.305    
      6000   493.93658     -3389.8229      58.866301     -3330.9566      26150.719    
      7000   485.60475     -3390.4385      57.873331     -3332.5651      27694.063    
      8000   483.70857     -3391.9         57.647349     -3334.2526      28975.155    
      9000   460.97199     -3390.8925      54.937653     -3335.9549      28734.479    
     10000   439.03833     -3389.9809      52.323646     -3337.6572      28145.949    
     11000   430.05176     -3390.6138      51.252646     -3339.3611      27344.897    
     12000   440.78157     -3393.5778      52.531401     -3341.0464      26783.589    
     13000   437.1708      -3394.8065      52.101077     -3342.7054      27028.266    
     14000   440.53451     -3396.8513      52.501957     -3344.3494      26400.095    
     15000   440.31652     -3398.4364      52.475978     -3345.9604      27342.905    
     16000   437.95033     -3399.7487      52.19398      -3347.5547      26922.074    
     17000   411.48575     -3398.1489      49.039988     -3349.1089      26816.474    
     18000   422.96142     -3401.0553      50.407634     -3350.6476      27555.963    
     19000   412.9742      -3401.3659      49.217379     -3352.1486      27783.069    
     20000   407.69023     -3402.2018      48.587646     -3353.6141      27263.672    
     21000   400.459       -3402.7726      47.725844     -3355.0468      27620.224    
     22000   387.40157     -3402.6191      46.169687     -3356.4494      27890.792    
     23000   384.50532     -3403.6324      45.824519     -3357.8079      27552.363    
     24000   378.15841     -3404.2083      45.068108     -3359.1402      28542.488    
     25000   383.50976     -3406.1413      45.70587      -3360.4354      27108.028    
     26000   371.28397     -3405.9388      44.248827     -3361.69        27589.83     
     27000   365.70816     -3406.4974      43.584314     -3362.9131      27282.817    
     28000   363.32936     -3407.3975      43.300813     -3364.0967      27700.167    
     29000   360.73829     -3408.2432      42.992015     -3365.2512      27232.941    
     30000   350.14304     -3408.0954      41.729296     -3366.3661      27171.519    
     31000   348.34285     -3408.9587      41.514753     -3367.4439      27265.33     
     32000   349.64223     -3410.1545      41.66961      -3368.4849      27261.711    
     33000   346.79219     -3410.819       41.329949     -3369.489       27323.894    
     34000   341.53401     -3411.1646      40.70329      -3370.4613      27785.13     
     35000   320.79487     -3409.6322      38.231644     -3371.4005      27190.506    
     36000   321.08948     -3410.5732      38.266755     -3372.3064      27413.622    
     37000   314.16332     -3410.6189      37.441311     -3373.1775      27413.622    
     38000   312.52696     -3411.2612      37.246292     -3374.0149      27078.288    
     39000   328.63862     -3413.9888      39.166446     -3374.8223      27078.288    
     40000   317.51593     -3413.4347      37.840867     -3375.5938      27078.288    
     41000   309.86054     -3413.2648      36.928514     -3376.3363      27078.288    
     42000   315.05436     -3414.5887      37.547502     -3377.0412      27078.288    
     43000   318.0836      -3415.6262      37.908521     -3377.7177      27078.288    
     44000   313.34069     -3415.7069      37.34327      -3378.3637      27078.288    
     45000   308.85699     -3415.7847      36.808913     -3378.9758      27078.288    
     46000   313.20254     -3416.8817      37.326807     -3379.5549      27296.181    
     47000   301.2854      -3416.01        35.906548     -3380.1034      27296.181    
     48000   302.40676     -3416.6583      36.040189     -3380.6181      27333.366    
     49000   303.0459      -3417.2179      36.116359     -3381.1015      27563.238    
     50000   289.40139     -3416.0434      34.490236     -3381.5531      27563.238    
Loop time of 49.8023 on 1 procs for 50000 steps with 923 atoms

Performance: 86.743 ns/day, 0.277 hours/ns, 1003.970 timesteps/s
100.0% CPU use with 1 MPI tasks x 1 OpenMP threads

MPI task timing breakdown:
Section |  min time  |  avg time  |  max time  |%varavg| %total
---------------------------------------------------------------
Pair    | 48.704     | 48.704     | 48.704     |   0.0 | 97.79
Neigh   | 0.10048    | 0.10048    | 0.10048    |   0.0 |  0.20
Comm    | 0.007379   | 0.007379   | 0.007379   |   0.0 |  0.01
Output  | 0.13462    | 0.13462    | 0.13462    |   0.0 |  0.27
Modify  | 0.72205    | 0.72205    | 0.72205    |   0.0 |  1.45
Other   |            | 0.1337     |            |       |  0.27

Nlocal:            923 ave         923 max         923 min
Histogram: 1 0 0 0 0 0 0 0 0 0
Nghost:              0 ave           0 max           0 min
Histogram: 1 0 0 0 0 0 0 0 0 0
Neighs:          36446 ave       36446 max       36446 min
Histogram: 1 0 0 0 0 0 0 0 0 0

Total # of neighbors = 36446
Ave neighs/atom = 39.486457
Neighbor list builds = 108
Dangerous builds = 0
Total wall time: 0:00:49
