LAMMPS (15 Sep 2022)
OMP_NUM_THREADS environment is not set. Defaulting to 1 thread. (src/comm.cpp:98)
  using 1 OpenMP thread(s) per MPI task
Loaded 1 plugins from C:\Users\becat\AppData\Local\LAMMPS 64-bit 15Sep2022\plugins
Lattice spacing in x,y,z = 4.079 4.079 4.079
Created orthogonal box = (0 0 0) to (40.79 40.79 40.79)
  1 by 1 by 1 MPI processor grid
Read molecule template np:
  1 molecules
  0 fragments
  36 atoms with max type 1
  0 bonds with max type 0
  0 angles with max type 0
  0 dihedrals with max type 0
  0 impropers with max type 0
Created 36 atoms
  using lattice units in orthogonal box = (16.345691 15.72976 15.786499) to (24.237349 23.724021 24.801766)
  create_atoms CPU = 0.000 seconds
Neighbor list info ...
  update: every = 1 steps, delay = 10 steps, check = yes
  max neighbors/atom: 2000, page size: 100000
  master list distance cutoff = 7.55
  ghost atom cutoff = 7.55
  binsize = 3.775, bins = 3 3 3
  1 neighbor lists, perpetual/occasional/extra = 1 0 0
  (1) pair eam, perpetual
      attributes: half, newton on
      pair build: half/bin/atomonly/newton
      stencil: half/bin/3d
      bin: standard
Setting up Verlet run ...
  Unit style    : metal
  Current step  : 0
  Time step     : 0.001
Per MPI rank memory allocation (min/avg/max) = 4.537 | 4.537 | 4.537 Mbytes
   Step          Temp          PotEng         KinEng         TotEng         Volume    
         0   300           -120.26135      1.3572315     -118.90412      568.75497    
      1000   217.47744     -119.88502      0.98389081    -118.90113      568.75497    
      2000   186.17769     -119.73457      0.84228742    -118.89228      568.75497    
      3000   212.66711     -119.83997      0.96212835    -118.87785      549.8602     
      4000   238.05592     -119.93383      1.07699       -118.85684      549.8602     
      5000   169.30279     -119.59567      0.76594361    -118.82973      569.47884    
      6000   218.00015     -119.78328      0.98625559    -118.79702      569.47884    
      7000   206.26582     -119.69104      0.93316825    -118.75787      569.47884    
      8000   256.83208     -119.87385      1.1619353     -118.71192      546.11011    
      9000   317.41404     -120.09828      1.4360145     -118.66226      546.11011    
     10000   283.1229      -119.89582      1.2808777     -118.61494      546.11011    
     11000   246.84517     -119.69047      1.1167535     -118.57372      556.18149    
     12000   249.6433      -119.66534      1.1294125     -118.53593      556.18149    
     13000   310.82199     -119.90948      1.4061913     -118.50328      556.18149    
     14000   334.79768     -119.9895       1.5146599     -118.47484      617.6131     
     15000   306.00189     -119.83544      1.3843847     -118.45106      617.6131     
     16000   333.55509     -119.93861      1.5090383     -118.42957      617.6131     
     17000   287.6873      -119.71266      1.3015276     -118.41113      617.6131     
     18000   327.82116     -119.87773      1.4830974     -118.39463      617.6131     
     19000   303.78629     -119.75408      1.3743611     -118.37972      617.6131     
     20000   307.91217     -119.75873      1.393027      -118.3657       617.6131     
     21000   235.88708     -119.42009      1.067178      -118.35292      584.80858    
     22000   287.11662     -119.64003      1.2989457     -118.34108      537.14359    
     23000   332.74472     -119.83463      1.5053721     -118.32926      579.33086    
     24000   311.5006      -119.72748      1.4092614     -118.31822      579.33086    
     25000   289.94505     -119.61999      1.3117419     -118.30825      579.33086    
     26000   323.51065     -119.76268      1.4635962     -118.29909      579.33086    
     27000   343.94912     -119.8467       1.5560619     -118.29063      579.33086    
     28000   297.97993     -119.63063      1.3480925     -118.28254      579.33086    
     29000   264.9934      -119.47366      1.198858      -118.27481      519.56421    
     30000   329.0921      -119.75729      1.4888473     -118.26844      553.31964    
     31000   321.33828     -119.71706      1.4537681     -118.26329      509.62865    
     32000   364.32182     -119.90752      1.6482302     -118.25929      545.50566    
     33000   313.67906     -119.67554      1.419117      -118.25642      527.61619    
     34000   309.32572     -119.65349      1.3994221     -118.25406      527.61619    
     35000   282.82277     -119.53127      1.2795199     -118.25175      527.61619    
     36000   328.78949     -119.7372       1.4874782     -118.24972      497.97986    
     37000   287.98597     -119.55094      1.3028788     -118.24806      497.97986    
     38000   292.8013      -119.57179      1.3246638     -118.24713      509.61942    
     39000   353.94396     -119.84916      1.6012797     -118.24788      509.61942    
     40000   351.56524     -119.84092      1.5905181     -118.2504       509.61942    
     41000   289.66092     -119.56525      1.3104565     -118.25479      525.6792     
     42000   322.15923     -119.71878      1.4574822     -118.2613       547.69054    
     43000   356.58826     -119.88359      1.6132428     -118.27035      547.69054    
     44000   339.63559     -119.81901      1.5365471     -118.28246      547.69054    
     45000   277.92605     -119.55437      1.2573667     -118.297        550.53222    
     46000   311.20025     -119.72285      1.4079026     -118.31494      550.53222    
     47000   329.22665     -119.82586      1.489456      -118.33641      550.53222    
     48000   255.69832     -119.51786      1.1568061     -118.36105      550.53222    
     49000   316.87333     -119.82246      1.4335682     -118.38889      550.53222    
     50000   326.22728     -119.89672      1.4758865     -118.42083      550.53222    
Loop time of 1.08457 on 1 procs for 50000 steps with 36 atoms

Performance: 3983.153 ns/day, 0.006 hours/ns, 46101.305 timesteps/s
99.4% CPU use with 1 MPI tasks x 1 OpenMP threads

MPI task timing breakdown:
Section |  min time  |  avg time  |  max time  |%varavg| %total
---------------------------------------------------------------
Pair    | 0.98203    | 0.98203    | 0.98203    |   0.0 | 90.55
Neigh   | 0.000203   | 0.000203   | 0.000203   |   0.0 |  0.02
Comm    | 0.005377   | 0.005377   | 0.005377   |   0.0 |  0.50
Output  | 0.009441   | 0.009441   | 0.009441   |   0.0 |  0.87
Modify  | 0.072254   | 0.072254   | 0.072254   |   0.0 |  6.66
Other   |            | 0.01526    |            |       |  1.41

Nlocal:             36 ave          36 max          36 min
Histogram: 1 0 0 0 0 0 0 0 0 0
Nghost:              0 ave           0 max           0 min
Histogram: 1 0 0 0 0 0 0 0 0 0
Neighs:            556 ave         556 max         556 min
Histogram: 1 0 0 0 0 0 0 0 0 0

Total # of neighbors = 556
Ave neighs/atom = 15.444444
Neighbor list builds = 19
Dangerous builds = 0
Total wall time: 0:00:01
