LAMMPS (15 Sep 2022)
OMP_NUM_THREADS environment is not set. Defaulting to 1 thread. (src/comm.cpp:98)
  using 1 OpenMP thread(s) per MPI task
Loaded 1 plugins from C:\Users\becat\AppData\Local\LAMMPS 64-bit 15Sep2022\plugins
Lattice spacing in x,y,z = 4.079 4.079 4.079
Created orthogonal box = (0 0 0) to (40.79 40.79 40.79)
  1 by 1 by 1 MPI processor grid
Read molecule template np:
  1 molecules
  0 fragments
  531 atoms with max type 1
  0 bonds with max type 0
  0 angles with max type 0
  0 dihedrals with max type 0
  0 impropers with max type 0
Created 531 atoms
  using lattice units in orthogonal box = (8.941008 7.4308484 7.3049036) to (31.248128 33.330202 33.485097)
  create_atoms CPU = 0.000 seconds
Neighbor list info ...
  update: every = 1 steps, delay = 10 steps, check = yes
  max neighbors/atom: 2000, page size: 100000
  master list distance cutoff = 7.55
  ghost atom cutoff = 7.55
  binsize = 3.775, bins = 6 7 7
  1 neighbor lists, perpetual/occasional/extra = 1 0 0
  (1) pair eam, perpetual
      attributes: half, newton on
      pair build: half/bin/atomonly/newton
      stencil: half/bin/3d
      bin: standard
Setting up Verlet run ...
  Unit style    : metal
  Current step  : 0
  Time step     : 0.001
Per MPI rank memory allocation (min/avg/max) = 4.567 | 4.567 | 4.567 Mbytes
   Step          Temp          PotEng         KinEng         TotEng         Volume    
         0   300           -1946.5779      20.552363     -1926.0256      15125.344    
      1000   304.13086     -1946.8544      20.83536      -1926.0191      15125.344    
      2000   296.92709     -1946.3377      20.341845     -1925.9958      15125.344    
      3000   289.39391     -1945.7826      19.825762     -1925.9569      15125.344    
      4000   295.49893     -1946.145       20.244004     -1925.901       14062.138    
      5000   291.68849     -1945.8095      19.982959     -1925.8266      14352.727    
      6000   282.80552     -1945.1089      19.374406     -1925.7345      14352.727    
      7000   274.78894     -1944.4485      18.825207     -1925.6233      14352.727    
      8000   292.18945     -1945.5108      20.017279     -1925.4936      14352.727    
      9000   304.23506     -1946.1872      20.842498     -1925.3447      13993.84     
     10000   283.68379     -1944.6158      19.434574     -1925.1812      13993.84     
     11000   299.88691     -1945.5487      20.544615     -1925.0041      13993.84     
     12000   287.52484     -1944.5161      19.697717     -1924.8184      13993.84     
     13000   311.72323     -1945.9876      21.355497     -1924.6321      13993.84     
     14000   286.18843     -1944.0561      19.606162     -1924.45        14079.597    
     15000   311.53811     -1945.6213      21.342814     -1924.2785      14079.597    
     16000   314.98759     -1945.704       21.579131     -1924.1248      14079.597    
     17000   312.77289     -1945.418       21.427407     -1923.9906      14079.597    
     18000   308.51412     -1945.0143      21.135647     -1923.8786      13877.847    
     19000   298.34487     -1944.2267      20.438974     -1923.7877      13877.847    
     20000   311.82338     -1945.0782      21.362358     -1923.7159      13877.847    
     21000   302.1455      -1944.3601      20.699347     -1923.6607      13877.847    
     22000   304.42232     -1944.4748      20.855327     -1923.6195      13877.847    
     23000   308.26726     -1944.709       21.118735     -1923.5903      13877.847    
     24000   313.65813     -1945.0588      21.488053     -1923.5707      13877.847    
     25000   304.07192     -1944.3911      20.831322     -1923.5597      13877.847    
     26000   302.67851     -1944.2909      20.735862     -1923.555       13877.847    
     27000   294.85723     -1943.7566      20.200043     -1923.5566      13877.847    
     28000   308.83582     -1944.7216      21.157686     -1923.5639      14080.556    
     29000   314.49339     -1945.1213      21.545274     -1923.576       14214.061    
     30000   315.75966     -1945.2257      21.632024     -1923.5936      14214.061    
     31000   299.74627     -1944.1506      20.534981     -1923.6156      14214.061    
     32000   300.84455     -1944.2528      20.610222     -1923.6425      14214.061    
     33000   305.20753     -1944.5836      20.90912      -1923.6745      14214.061    
     34000   307.28078     -1944.7608      21.051154     -1923.7097      14214.061    
     35000   310.70928     -1945.0357      21.286033     -1923.7496      14214.061    
     36000   312.37001     -1945.1935      21.399806     -1923.7936      14214.061    
     37000   303.46801     -1944.6319      20.789949     -1923.8419      14214.061    
     38000   304.7784      -1944.7742      20.879721     -1923.8945      14214.061    
     39000   302.06378     -1944.6455      20.693748     -1923.9517      14214.061    
     40000   303.56446     -1944.8097      20.796557     -1924.0131      14214.061    
     41000   312.44388     -1945.4842      21.404867     -1924.0793      14214.061    
     42000   323.7559      -1946.3296      22.179829     -1924.1498      14214.061    
     43000   296.29434     -1944.5235      20.298496     -1924.225       14530.182    
     44000   294.51962     -1944.4818      20.176914     -1924.3048      14530.182    
     45000   302.01215     -1945.08        20.690211     -1924.3898      14530.182    
     46000   296.94613     -1944.8236      20.343149     -1924.4805      14530.182    
     47000   300.01489     -1945.13        20.553383     -1924.5766      14530.182    
     48000   303.9846      -1945.5045      20.82534      -1924.6791      14530.182    
     49000   296.95779     -1945.1315      20.343948     -1924.7875      14530.182    
     50000   297.25212     -1945.2656      20.364112     -1924.9015      14530.182    
Loop time of 36.7095 on 1 procs for 50000 steps with 531 atoms

Performance: 117.681 ns/day, 0.204 hours/ns, 1362.047 timesteps/s
99.3% CPU use with 1 MPI tasks x 1 OpenMP threads

MPI task timing breakdown:
Section |  min time  |  avg time  |  max time  |%varavg| %total
---------------------------------------------------------------
Pair    | 35.854     | 35.854     | 35.854     |   0.0 | 97.67
Neigh   | 0.008222   | 0.008222   | 0.008222   |   0.0 |  0.02
Comm    | 0.010583   | 0.010583   | 0.010583   |   0.0 |  0.03
Output  | 0.11015    | 0.11015    | 0.11015    |   0.0 |  0.30
Modify  | 0.60448    | 0.60448    | 0.60448    |   0.0 |  1.65
Other   |            | 0.1223     |            |       |  0.33

Nlocal:            531 ave         531 max         531 min
Histogram: 1 0 0 0 0 0 0 0 0 0
Nghost:              0 ave           0 max           0 min
Histogram: 1 0 0 0 0 0 0 0 0 0
Neighs:          19128 ave       19128 max       19128 min
Histogram: 1 0 0 0 0 0 0 0 0 0

Total # of neighbors = 19128
Ave neighs/atom = 36.022599
Neighbor list builds = 11
Dangerous builds = 0
Total wall time: 0:00:36
