LAMMPS (15 Sep 2022)
OMP_NUM_THREADS environment is not set. Defaulting to 1 thread. (src/comm.cpp:98)
  using 1 OpenMP thread(s) per MPI task
Loaded 1 plugins from C:\Users\becat\AppData\Local\LAMMPS 64-bit 15Sep2022\plugins
Lattice spacing in x,y,z = 4.079 4.079 4.079
Created orthogonal box = (0 0 0) to (40.79 40.79 40.79)
  1 by 1 by 1 MPI processor grid
Read molecule template np:
  1 molecules
  0 fragments
  38 atoms with max type 1
  0 bonds with max type 0
  0 angles with max type 0
  0 dihedrals with max type 0
  0 impropers with max type 0
Created 38 atoms
  using lattice units in orthogonal box = (17.014773 16.213128 15.600918) to (24.735385 24.256963 24.925264)
  create_atoms CPU = 0.000 seconds
Neighbor list info ...
  update: every = 1 steps, delay = 10 steps, check = yes
  max neighbors/atom: 2000, page size: 100000
  master list distance cutoff = 7.55
  ghost atom cutoff = 7.55
  binsize = 3.775, bins = 3 3 3
  1 neighbor lists, perpetual/occasional/extra = 1 0 0
  (1) pair eam, perpetual
      attributes: half, newton on
      pair build: half/bin/atomonly/newton
      stencil: half/bin/3d
      bin: standard
Setting up Verlet run ...
  Unit style    : metal
  Current step  : 0
  Time step     : 0.001
Per MPI rank memory allocation (min/avg/max) = 4.537 | 4.537 | 4.537 Mbytes
   Step          Temp          PotEng         KinEng         TotEng         Volume    
         0   300           -127.94109      1.4347876     -126.5063       579.0729     
      1000   186.56859     -127.39548      0.89228767    -126.5032       579.0729     
      2000   196.98323     -127.43569      0.94209701    -126.49359      579.0729     
      3000   187.50571     -127.37426      0.89676958    -126.47749      579.0729     
      4000   226.57545     -127.53824      1.0836255     -126.45461      579.0729     
      5000   210.72639     -127.43255      1.0078254     -126.42472      579.0729     
      6000   224.44736     -127.46164      1.0734477     -126.38819      579.0729     
      7000   210.46198     -127.35281      1.0065608     -126.34625      579.0729     
      8000   243.97655     -127.46706      1.1668484     -126.30021      579.0729     
      9000   269.37028     -127.54198      1.2882971     -126.25368      579.0729     
     10000   239.00895     -127.35233      1.1430902     -126.20924      579.0729     
     11000   237.89772     -127.30464      1.1377757     -126.16687      579.0729     
     12000   240.47909     -127.28079      1.1501214     -126.13067      579.0729     
     13000   268.31511     -127.37924      1.2832506     -126.09598      579.0729     
     14000   252.56616     -127.27298      1.2079293     -126.06505      579.0729     
     15000   240.34699     -127.18517      1.1494896     -126.03568      579.0729     
     16000   244.60066     -127.1774       1.1698333     -126.00756      579.0729     
     17000   254.13628     -127.19421      1.2154386     -125.97877      579.0729     
     18000   264.37975     -127.21485      1.2644293     -125.95042      579.0729     
     19000   314.71349     -127.42515      1.5051567     -125.91999      579.0729     
     20000   259.73071     -127.13089      1.2421947     -125.8887       579.0729     
     21000   235.08748     -126.98184      1.1243353     -125.85751      563.40546    
     22000   246.33506     -127.00205      1.1781283     -125.82392      523.40302    
     23000   260.96722     -127.0366       1.2481085     -125.78849      523.40302    
     24000   235.40085     -126.87747      1.1258341     -125.75164      523.40302    
     25000   236.22388     -126.84251      1.1297703     -125.71274      523.40302    
     26000   258.65056     -126.90979      1.2370287     -125.67276      523.40302    
     27000   265.47935     -126.90241      1.2696883     -125.63272      523.40302    
     28000   253.0074      -126.80304      1.2100396     -125.593        523.40302    
     29000   290.62335     -126.94294      1.3899426     -125.55299      523.40302    
     30000   293.27079     -126.91628      1.4026043     -125.51368      523.40302    
     31000   297.28688     -126.89646      1.4218118     -125.47465      532.51182    
     32000   282.4792      -126.78926      1.3509922     -125.43826      532.51182    
     33000   333.17616     -126.99615      1.5934568     -125.4027       531.58335    
     34000   336.73606     -126.97938      1.6104824     -125.36889      532.17664    
     35000   335.31116     -126.94114      1.6036677     -125.33747      532.17664    
     36000   264.21804     -126.56967      1.2636559     -125.30602      532.17664    
     37000   295.32962     -126.69038      1.4124509     -125.27793      532.17664    
     38000   304.13499     -126.70455      1.4545637     -125.24998      532.17664    
     39000   332.88343     -126.8155       1.5920567     -125.22345      532.17664    
     40000   283.07526     -126.55268      1.3538429     -125.19884      532.17664    
     41000   293.69272     -126.58083      1.4046223     -125.1762       532.17664    
     42000   330.68483     -126.73789      1.5815417     -125.15635      532.17664    
     43000   298.19907     -126.56408      1.4261744     -125.13791      532.17664    
     44000   334.41738     -126.72113      1.599393      -125.12174      532.17664    
     45000   269.08783     -126.39481      1.2869463     -125.10786      532.17664    
     46000   348.41433     -126.76307      1.6663352     -125.09674      532.17664    
     47000   321.57038     -126.62588      1.5379507     -125.08793      554.4508     
     48000   295.1738      -126.49323      1.4117057     -125.08152      554.4508     
     49000   339.36449     -126.7004       1.6230532     -125.07735      539.59178    
     50000   321.29914     -126.61242      1.5366534     -125.07577      586.98856    
Loop time of 1.87045 on 1 procs for 50000 steps with 38 atoms

Performance: 2309.610 ns/day, 0.010 hours/ns, 26731.592 timesteps/s
96.1% CPU use with 1 MPI tasks x 1 OpenMP threads

MPI task timing breakdown:
Section |  min time  |  avg time  |  max time  |%varavg| %total
---------------------------------------------------------------
Pair    | 1.6898     | 1.6898     | 1.6898     |   0.0 | 90.34
Neigh   | 0.000185   | 0.000185   | 0.000185   |   0.0 |  0.01
Comm    | 0.009632   | 0.009632   | 0.009632   |   0.0 |  0.51
Output  | 0.016323   | 0.016323   | 0.016323   |   0.0 |  0.87
Modify  | 0.12686    | 0.12686    | 0.12686    |   0.0 |  6.78
Other   |            | 0.02762    |            |       |  1.48

Nlocal:             38 ave          38 max          38 min
Histogram: 1 0 0 0 0 0 0 0 0 0
Nghost:              0 ave           0 max           0 min
Histogram: 1 0 0 0 0 0 0 0 0 0
Neighs:            612 ave         612 max         612 min
Histogram: 1 0 0 0 0 0 0 0 0 0

Total # of neighbors = 612
Ave neighs/atom = 16.105263
Neighbor list builds = 8
Dangerous builds = 0
Total wall time: 0:00:01
