LAMMPS (15 Sep 2022)
OMP_NUM_THREADS environment is not set. Defaulting to 1 thread. (src/comm.cpp:98)
  using 1 OpenMP thread(s) per MPI task
Loaded 1 plugins from C:\Users\becat\AppData\Local\LAMMPS 64-bit 15Sep2022\plugins
Lattice spacing in x,y,z = 4.079 4.079 4.079
Created orthogonal box = (0 0 0) to (40.79 40.79 40.79)
  1 by 1 by 1 MPI processor grid
Read molecule template np:
  1 molecules
  0 fragments
  1415 atoms with max type 1
  0 bonds with max type 0
  0 angles with max type 0
  0 dihedrals with max type 0
  0 impropers with max type 0
Created 1415 atoms
  using lattice units in orthogonal box = (1.5862686 1.9735743 1.8986377) to (39.203731 38.816426 38.891362)
  create_atoms CPU = 0.000 seconds
Neighbor list info ...
  update: every = 1 steps, delay = 10 steps, check = yes
  max neighbors/atom: 2000, page size: 100000
  master list distance cutoff = 7.55
  ghost atom cutoff = 7.55
  binsize = 3.775, bins = 10 10 10
  1 neighbor lists, perpetual/occasional/extra = 1 0 0
  (1) pair eam, perpetual
      attributes: half, newton on
      pair build: half/bin/atomonly/newton
      stencil: half/bin/3d
      bin: standard
Setting up Verlet run ...
  Unit style    : metal
  Current step  : 0
  Time step     : 0.001
Per MPI rank memory allocation (min/avg/max) = 4.621 | 4.621 | 4.621 Mbytes
   Step          Temp          PotEng         KinEng         TotEng         Volume    
         0   300           -5195.4017      54.832154     -5140.5696      51269.497    
      1000   504.83812     -5233.5019      92.271205     -5141.2307      41426.028    
      2000   556.41024     -5244.5065      101.69724     -5142.8092      39390.829    
      3000   539.51572     -5243.3825      98.609364     -5144.7732      41874.256    
      4000   480.76556     -5234.3062      87.871371     -5146.4349      48107.019    
      5000   396.77452     -5220.6891      72.520004     -5148.1691      44583.408    
      6000   519.21744     -5244.9229      94.899367     -5150.0235      42598.134    
      7000   445.47089     -5233.4661      81.420428     -5152.0457      40824.901    
      8000   478.11389     -5241.5338      87.386713     -5154.1471      43002.906    
      9000   430.29369     -5234.9242      78.646433     -5156.2778      44850.314    
     10000   427.55665     -5236.6035      78.146173     -5158.4574      44525.142    
     11000   464.49633     -5245.4671      84.89778      -5160.5693      42412.302    
     12000   425.47636     -5240.4569      77.765951     -5162.691       42990.25     
     13000   454.94603     -5247.9415      83.152236     -5164.7892      44794.406    
     14000   398.67191     -5239.765       72.866798     -5166.8982      45571.083    
     15000   411.25657     -5244.1625      75.166945     -5168.9956      44496.83     
     16000   415.04388     -5246.8841      75.859165     -5171.025       41583.88     
     17000   401.35598     -5246.3874      73.357376     -5173.03        42845.897    
     18000   404.78542     -5248.9863      73.984187     -5175.0021      44511.625    
     19000   390.5811      -5248.3451      71.388009     -5176.9571      44998.953    
     20000   402.02979     -5252.3551      73.480531     -5178.8745      43687.875    
     21000   397.88933     -5253.4597      72.723762     -5180.736       43361.006    
     22000   407.03443     -5256.9516      74.395247     -5182.5563      44045.427    
     23000   384.65076     -5254.646       70.304099     -5184.3419      43848.029    
     24000   359.73363     -5251.8461      65.749899     -5186.0962      44548.749    
     25000   368.17248     -5255.1046      67.2923       -5187.8123      42875.322    
     26000   376.18585     -5258.2208      68.756935     -5189.4639      42970.633    
     27000   364.49744     -5257.7026      66.620598     -5191.082       43178.536    
     28000   367.02031     -5259.737       67.081713     -5192.6552      44754.6      
     29000   356.45314     -5259.3428      65.150311     -5194.1925      44186.202    
     30000   348.38167     -5259.367       63.675058     -5195.6919      43707.858    
     31000   344.08428     -5260.0266      62.889608     -5197.137       43523.439    
     32000   343.6631      -5261.354       62.812626     -5198.5414      43103.512    
     33000   333.90979     -5260.9332      61.029976     -5199.9032      43865.828    
     34000   333.15944     -5262.1216      60.892833     -5201.2288      43865.828    
     35000   326.62336     -5262.212       59.698208     -5202.5138      43000.443    
     36000   327.39576     -5263.5935      59.839382     -5203.7541      44286.426    
     37000   331.74177     -5265.5849      60.633718     -5204.9512      45026.602    
     38000   317.86311     -5264.2051      58.097063     -5206.108       45026.602    
     39000   311.84981     -5264.2231      56.997989     -5207.2251      43239        
     40000   311.19199     -5265.1781      56.877756     -5208.3004      44165.124    
     41000   325.69245     -5268.8622      59.528061     -5209.3342      43819.103    
     42000   311.09391     -5267.187       56.859829     -5210.3272      43819.103    
     43000   316.60378     -5269.1482      57.86689      -5211.2814      43819.103    
     44000   306.38742     -5268.1911      55.999607     -5212.1915      43819.103    
     45000   309.02919     -5269.5489      56.482453     -5213.0665      43223.449    
     46000   309.11456     -5270.3958      56.498058     -5213.8978      43223.449    
     47000   306.86997     -5270.7771      56.087804     -5214.6893      43223.449    
     48000   306.64701     -5271.4868      56.047052     -5215.4398      43223.449    
     49000   299.89516     -5270.9659      54.812992     -5216.1529      43223.449    
     50000   302.38158     -5272.093       55.267444     -5216.8256      43223.449    
Loop time of 123.804 on 1 procs for 50000 steps with 1415 atoms

Performance: 34.894 ns/day, 0.688 hours/ns, 403.866 timesteps/s
99.1% CPU use with 1 MPI tasks x 1 OpenMP threads

MPI task timing breakdown:
Section |  min time  |  avg time  |  max time  |%varavg| %total
---------------------------------------------------------------
Pair    | 121.08     | 121.08     | 121.08     |   0.0 | 97.80
Neigh   | 0.19269    | 0.19269    | 0.19269    |   0.0 |  0.16
Comm    | 0.01865    | 0.01865    | 0.01865    |   0.0 |  0.02
Output  | 0.40274    | 0.40274    | 0.40274    |   0.0 |  0.33
Modify  | 1.7653     | 1.7653     | 1.7653     |   0.0 |  1.43
Other   |            | 0.3428     |            |       |  0.28

Nlocal:           1415 ave        1415 max        1415 min
Histogram: 1 0 0 0 0 0 0 0 0 0
Nghost:              0 ave           0 max           0 min
Histogram: 1 0 0 0 0 0 0 0 0 0
Neighs:          58304 ave       58304 max       58304 min
Histogram: 1 0 0 0 0 0 0 0 0 0

Total # of neighbors = 58304
Ave neighs/atom = 41.20424
Neighbor list builds = 111
Dangerous builds = 0
Total wall time: 0:02:03
