LAMMPS (15 Sep 2022)
OMP_NUM_THREADS environment is not set. Defaulting to 1 thread. (src/comm.cpp:98)
  using 1 OpenMP thread(s) per MPI task
Loaded 1 plugins from C:\Users\becat\AppData\Local\LAMMPS 64-bit 15Sep2022\plugins
Lattice spacing in x,y,z = 4.079 4.079 4.079
Created orthogonal box = (0 0 0) to (40.79 40.79 40.79)
  1 by 1 by 1 MPI processor grid
Read molecule template np:
  1 molecules
  0 fragments
  550 atoms with max type 1
  0 bonds with max type 0
  0 angles with max type 0
  0 dihedrals with max type 0
  0 impropers with max type 0
Created 550 atoms
  using lattice units in orthogonal box = (7.6831567 6.5606341 8.6135056) to (34.782569 34.310104 32.176495)
  create_atoms CPU = 0.000 seconds
Neighbor list info ...
  update: every = 1 steps, delay = 10 steps, check = yes
  max neighbors/atom: 2000, page size: 100000
  master list distance cutoff = 7.55
  ghost atom cutoff = 7.55
  binsize = 3.775, bins = 8 8 7
  1 neighbor lists, perpetual/occasional/extra = 1 0 0
  (1) pair eam, perpetual
      attributes: half, newton on
      pair build: half/bin/atomonly/newton
      stencil: half/bin/3d
      bin: standard
Setting up Verlet run ...
  Unit style    : metal
  Current step  : 0
  Time step     : 0.001
Per MPI rank memory allocation (min/avg/max) = 4.57 | 4.57 | 4.57 Mbytes
   Step          Temp          PotEng         KinEng         TotEng         Volume    
         0   300           -2020.2138      21.289146     -1998.9246      17719.234    
      1000   286.50524     -2019.2514      20.331506     -1998.9199      16445.705    
      2000   319.85414     -2021.5969      22.698072     -1998.8988      16445.705    
      3000   297.55037     -2019.9797      21.115311     -1998.8643      16576.974    
      4000   301.24117     -2020.1917      21.377224     -1998.8145      16576.974    
      5000   309.74336     -2020.7281      21.980572     -1998.7476      16576.974    
      6000   284.54588     -2018.8561      20.192462     -1998.6637      16576.974    
      7000   290.78278     -2019.1981      20.635057     -1998.5631      16576.974    
      8000   287.94106     -2018.8781      20.433397     -1998.4447      16576.974    
      9000   299.6015      -2019.5694      21.260867     -1998.3085      16576.974    
     10000   284.54071     -2018.3472      20.192096     -1998.1551      16576.974    
     11000   294.02305     -2018.8505      20.864999     -1997.9855      16576.974    
     12000   306.87712     -2019.5826      21.777173     -1997.8054      16576.974    
     13000   301.97504     -2019.0471      21.429302     -1997.6178      16576.974    
     14000   291.29618     -2018.1015      20.67149      -1997.43        15532.926    
     15000   289.38737     -2017.7824      20.536033     -1997.2464      15785.344    
     16000   303.57143     -2018.6157      21.542588     -1997.0731      15785.344    
     17000   301.93227     -2018.3439      21.426267     -1996.9176      15785.344    
     18000   297.85251     -2017.9183      21.136752     -1996.7816      15785.344    
     19000   302.2896      -2018.1206      21.451625     -1996.6689      15785.344    
     20000   308.59928     -2018.4763      21.899383     -1996.5769      16170.88     
     21000   295.00252     -2017.4411      20.934505     -1996.5066      16170.88     
     22000   295.50257     -2017.4259      20.969991     -1996.4559      16170.88     
     23000   304.73587     -2018.0452      21.625221     -1996.42        16170.88     
     24000   293.38706     -2017.2173      20.819866     -1996.3974      16009.502    
     25000   308.7483      -2018.2969      21.909959     -1996.3869      16009.502    
     26000   293.83361     -2017.2378      20.851555     -1996.3862      16009.502    
     27000   310.87567     -2018.4552      22.060925     -1996.3943      15952.023    
     28000   295.02892     -2017.3455      20.936379     -1996.4092      16746.642    
     29000   302.93511     -2017.9286      21.497432     -1996.4312      16179.313    
     30000   301.84512     -2017.8794      21.420082     -1996.4594      16179.313    
     31000   308.59816     -2018.3922      21.899304     -1996.4929      16374.205    
     32000   301.79249     -2017.9479      21.416348     -1996.5316      16374.205    
     33000   311.88355     -2018.7069      22.132448     -1996.5745      16374.205    
     34000   297.74186     -2017.7517      21.1289       -1996.6228      16374.205    
     35000   307.12473     -2018.4705      21.794744     -1996.6758      16374.205    
     36000   304.19052     -2018.3194      21.586521     -1996.7329      16374.205    
     37000   295.48604     -2017.7626      20.968818     -1996.7938      16374.205    
     38000   307.2968      -2018.6649      21.806955     -1996.858       16374.205    
     39000   314.15385     -2019.219       22.293557     -1996.9254      16374.205    
     40000   295.39429     -2017.9585      20.962307     -1996.9961      16374.205    
     41000   299.12564     -2018.2974      21.227098     -1997.0703      16515.638    
     42000   301.16756     -2018.5188      21.372        -1997.1468      16515.638    
     43000   308.85655     -2019.1432      21.91764      -1997.2256      15918.866    
     44000   297.91792     -2018.4468      21.141393     -1997.3054      15918.866    
     45000   294.14111     -2018.2611      20.873377     -1997.3878      15918.866    
     46000   302.85893     -2018.9623      21.492027     -1997.4703      15944.096    
     47000   299.29173     -2018.7926      21.238884     -1997.5538      15889.23     
     48000   292.39737     -2018.3877      20.749634     -1997.6381      16221.048    
     49000   291.61293     -2018.4176      20.693967     -1997.7237      16221.048    
     50000   311.70921     -2019.9293      22.120076     -1997.8092      16221.048    
Loop time of 34.0386 on 1 procs for 50000 steps with 550 atoms

Performance: 126.915 ns/day, 0.189 hours/ns, 1468.921 timesteps/s
99.7% CPU use with 1 MPI tasks x 1 OpenMP threads

MPI task timing breakdown:
Section |  min time  |  avg time  |  max time  |%varavg| %total
---------------------------------------------------------------
Pair    | 33.252     | 33.252     | 33.252     |   0.0 | 97.69
Neigh   | 0.01062    | 0.01062    | 0.01062    |   0.0 |  0.03
Comm    | 0.009449   | 0.009449   | 0.009449   |   0.0 |  0.03
Output  | 0.10326    | 0.10326    | 0.10326    |   0.0 |  0.30
Modify  | 0.5527     | 0.5527     | 0.5527     |   0.0 |  1.62
Other   |            | 0.1102     |            |       |  0.32

Nlocal:            550 ave         550 max         550 min
Histogram: 1 0 0 0 0 0 0 0 0 0
Nghost:              0 ave           0 max           0 min
Histogram: 1 0 0 0 0 0 0 0 0 0
Neighs:          19741 ave       19741 max       19741 min
Histogram: 1 0 0 0 0 0 0 0 0 0

Total # of neighbors = 19741
Ave neighs/atom = 35.892727
Neighbor list builds = 17
Dangerous builds = 0
Total wall time: 0:00:34
