LAMMPS (15 Sep 2022)
OMP_NUM_THREADS environment is not set. Defaulting to 1 thread. (src/comm.cpp:98)
  using 1 OpenMP thread(s) per MPI task
Loaded 1 plugins from C:\Users\becat\AppData\Local\LAMMPS 64-bit 15Sep2022\plugins
Lattice spacing in x,y,z = 4.079 4.079 4.079
Created orthogonal box = (0 0 0) to (40.79 40.79 40.79)
  1 by 1 by 1 MPI processor grid
Read molecule template np:
  1 molecules
  0 fragments
  34 atoms with max type 1
  0 bonds with max type 0
  0 angles with max type 0
  0 dihedrals with max type 0
  0 impropers with max type 0
Created 34 atoms
  using lattice units in orthogonal box = (15.921165 16.914133 16.6041) to (24.706456 24.53542 24.580497)
  create_atoms CPU = 0.000 seconds
Neighbor list info ...
  update: every = 1 steps, delay = 10 steps, check = yes
  max neighbors/atom: 2000, page size: 100000
  master list distance cutoff = 7.55
  ghost atom cutoff = 7.55
  binsize = 3.775, bins = 3 3 3
  1 neighbor lists, perpetual/occasional/extra = 1 0 0
  (1) pair eam, perpetual
      attributes: half, newton on
      pair build: half/bin/atomonly/newton
      stencil: half/bin/3d
      bin: standard
Setting up Verlet run ...
  Unit style    : metal
  Current step  : 0
  Time step     : 0.001
Per MPI rank memory allocation (min/avg/max) = 4.537 | 4.537 | 4.537 Mbytes
   Step          Temp          PotEng         KinEng         TotEng         Volume    
         0   300           -113.68685      1.2796754     -112.40717      534.06143    
      1000   131.25216     -112.96421      0.55986722    -112.40435      534.06143    
      2000   192.99455     -113.21901      0.82323463    -112.39577      534.06143    
      3000   195.06649     -113.21344      0.83207266    -112.38136      534.06143    
      4000   180.34788     -113.13011      0.76928919    -112.36082      534.06143    
      5000   214.56129     -113.24919      0.91522936    -112.33396      534.06143    
      6000   231.78558     -113.2898       0.98870104    -112.3011       534.06143    
      7000   212.57249     -113.16935      0.90674598    -112.26261      534.06143    
      8000   239.36877     -113.24069      1.0210478     -112.21964      534.06143    
      9000   213.57866     -113.08808      0.91103788    -112.17704      534.06143    
     10000   213.17694     -113.04362      0.90932431    -112.1343       534.06143    
     11000   223.17427     -113.04664      0.95196875    -112.09468      534.06143    
     12000   206.45375     -112.94031      0.88064595    -112.05966      534.06143    
     13000   232.88539     -113.0211       0.99339239    -112.0277       516.98303    
     14000   232.37369     -112.99         0.99120968    -111.99879      516.98303    
     15000   236.57109     -112.98008      1.009114      -111.97097      548.79648    
     16000   272.3108      -113.10613      1.1615648     -111.94456      548.79648    
     17000   288.72136     -113.15069      1.2315655     -111.91912      548.79648    
     18000   250.58067     -112.96353      1.0688731     -111.89466      518.81378    
     19000   243.99625     -112.90762      1.0407867     -111.86684      497.61332    
     20000   301.03204     -113.123        1.2840777     -111.83892      504.16121    
     21000   245.27427     -112.85616      1.0462382     -111.80992      510.72314    
     22000   224.98697     -112.74143      0.959701      -111.78173      526.9148     
     23000   340.72222     -113.20548      1.4533795     -111.7521       551.90624    
     24000   214.42465     -112.63557      0.91464651    -111.72092      551.90624    
     25000   242.47611     -112.72333      1.0343024     -111.68903      528.36387    
     26000   305.19923     -112.95971      1.3018532     -111.65786      528.36387    
     27000   288.23896     -112.85476      1.2295077     -111.62525      528.36387    
     28000   293.4667      -112.84377      1.2518071     -111.59197      528.36387    
     29000   307.0821      -112.86996      1.3098847     -111.56008      545.60763    
     30000   286.19763     -112.74899      1.2208003     -111.52819      545.60763    
     31000   284.51682     -112.71012      1.2136306     -111.49648      545.60763    
     32000   271.65571     -112.62492      1.1587705     -111.46615      545.60763    
     33000   320.8649      -112.80534      1.3686764     -111.43666      545.60763    
     34000   260.9448      -112.52169      1.1130822     -111.40861      545.60763    
     35000   250.9272      -112.45233      1.0703512     -111.38198      545.60763    
     36000   306.34254     -112.6643       1.3067301     -111.35757      512.21238    
     37000   335.11706     -112.76457      1.4294702     -111.3351       477.22398    
     38000   384.38802     -112.95393      1.6396397     -111.31429      468.41588    
     39000   311.59619     -112.62486      1.32914       -111.29572      519.8728     
     40000   303.94554     -112.57554      1.2965055     -111.27903      519.8728     
     41000   394.97093     -112.94787      1.684782      -111.26309      497.11094    
     42000   333.61402     -112.67298      1.4230589     -111.24992      520.00813    
     43000   362.46432     -112.78552      1.5461223     -111.23939      535.33677    
     44000   365.81815     -112.79097      1.5604283     -111.23054      567.36318    
     45000   349.23095     -112.71445      1.4896742     -111.22478      567.36318    
     46000   332.23796     -112.63908      1.4171892     -111.22189      548.48493    
     47000   281.58368     -112.42307      1.2011191     -111.22195      551.56064    
     48000   337.62087     -112.66352      1.4401504     -111.22337      551.56064    
     49000   332.84821     -112.64762      1.4197923     -111.22783      524.64237    
     50000   410.89962     -112.98871      1.7527272     -111.23598      524.64237    
Loop time of 0.910416 on 1 procs for 50000 steps with 34 atoms

Performance: 4745.084 ns/day, 0.005 hours/ns, 54919.949 timesteps/s
101.3% CPU use with 1 MPI tasks x 1 OpenMP threads

MPI task timing breakdown:
Section |  min time  |  avg time  |  max time  |%varavg| %total
---------------------------------------------------------------
Pair    | 0.81723    | 0.81723    | 0.81723    |   0.0 | 89.76
Neigh   | 0.000227   | 0.000227   | 0.000227   |   0.0 |  0.02
Comm    | 0.004688   | 0.004688   | 0.004688   |   0.0 |  0.51
Output  | 0.009227   | 0.009227   | 0.009227   |   0.0 |  1.01
Modify  | 0.065835   | 0.065835   | 0.065835   |   0.0 |  7.23
Other   |            | 0.01321    |            |       |  1.45

Nlocal:             34 ave          34 max          34 min
Histogram: 1 0 0 0 0 0 0 0 0 0
Nghost:              0 ave           0 max           0 min
Histogram: 1 0 0 0 0 0 0 0 0 0
Neighs:            511 ave         511 max         511 min
Histogram: 1 0 0 0 0 0 0 0 0 0

Total # of neighbors = 511
Ave neighs/atom = 15.029412
Neighbor list builds = 26
Dangerous builds = 0
Total wall time: 0:00:00
