LAMMPS (15 Sep 2022)
OMP_NUM_THREADS environment is not set. Defaulting to 1 thread. (src/comm.cpp:98)
  using 1 OpenMP thread(s) per MPI task
Loaded 1 plugins from C:\Users\becat\AppData\Local\LAMMPS 64-bit 15Sep2022\plugins
Lattice spacing in x,y,z = 4.079 4.079 4.079
Created orthogonal box = (0 0 0) to (40.79 40.79 40.79)
  1 by 1 by 1 MPI processor grid
Read molecule template np:
  1 molecules
  0 fragments
  888 atoms with max type 1
  0 bonds with max type 0
  0 angles with max type 0
  0 dihedrals with max type 0
  0 impropers with max type 0
Created 888 atoms
  using lattice units in orthogonal box = (5.7547096 4.8273188 5.9577397) to (34.220684 35.79283 35.265441)
  create_atoms CPU = 0.000 seconds
Neighbor list info ...
  update: every = 1 steps, delay = 10 steps, check = yes
  max neighbors/atom: 2000, page size: 100000
  master list distance cutoff = 7.55
  ghost atom cutoff = 7.55
  binsize = 3.775, bins = 8 9 8
  1 neighbor lists, perpetual/occasional/extra = 1 0 0
  (1) pair eam, perpetual
      attributes: half, newton on
      pair build: half/bin/atomonly/newton
      stencil: half/bin/3d
      bin: standard
Setting up Verlet run ...
  Unit style    : metal
  Current step  : 0
  Time step     : 0.001
Per MPI rank memory allocation (min/avg/max) = 4.589 | 4.589 | 4.589 Mbytes
   Step          Temp          PotEng         KinEng         TotEng         Volume    
         0   300           -3318.4806      34.396125     -3284.0845      25833.667    
      1000   148.53849     -3301.0294      17.030494     -3283.9989      25833.667    
      2000   159.09459     -3301.9854      18.240791     -3283.7446      25833.667    
      3000   157.58406     -3301.4392      18.067603     -3283.3716      25833.667    
      4000   151.48729     -3300.351       17.368585     -3282.9824      25833.667    
      5000   156.80736     -3300.613       17.978552     -3282.6344      25833.667    
      6000   167.83878     -3301.5377      19.243345     -3282.2944      25833.667    
      7000   165.99874     -3300.952       19.032378     -3281.9196      25833.667    
      8000   163.55844     -3300.2534      18.752588     -3281.5008      25833.667    
      9000   165.4808      -3300.0166      18.972994     -3281.0436      25833.667    
     10000   163.40378     -3299.2981      18.734856     -3280.5632      25833.667    
     11000   174.38102     -3300.0606      19.993438     -3280.0671      25833.667    
     12000   173.98012     -3299.5048      19.947473     -3279.5574      25833.667    
     13000   173.02165     -3298.869       19.837581     -3279.0314      25833.667    
     14000   178.42358     -3298.9492      20.456932     -3278.4923      25833.667    
     15000   183.46234     -3298.9749      21.034645     -3277.9402      25833.667    
     16000   182.95891     -3298.3512      20.976924     -3277.3743      25833.667    
     17000   184.74373     -3297.979       21.181561     -3276.7975      25833.667    
     18000   182.65485     -3297.1511      20.942063     -3276.209       25833.667    
     19000   181.9885      -3296.4755      20.865664     -3275.6098      25833.667    
     20000   193.74605     -3297.2139      22.21371      -3275.0002      25833.667    
     21000   197.7281      -3297.0498      22.670268     -3274.3796      25833.667    
     22000   196.12245     -3296.2354      22.486174     -3273.7492      25833.667    
     23000   206.6864      -3296.8112      23.69737      -3273.1138      25833.667    
     24000   203.97373     -3295.8535      23.386353     -3272.4671      25833.667    
     25000   208.1796      -3295.6819      23.868571     -3271.8134      25833.667    
     26000   205.8956      -3294.7592      23.606703     -3271.1525      25833.667    
     27000   212.9195      -3294.898       24.412019     -3270.486       25833.667    
     28000   217.75551     -3294.778       24.966486     -3269.8115      25833.667    
     29000   218.37435     -3294.1675      25.037438     -3269.1301      25833.667    
     30000   219.40968     -3293.6012      25.156142     -3268.445       25833.667    
     31000   216.94211     -3292.63        24.873226     -3267.7568      25833.667    
     32000   224.78011     -3292.8335      25.771883     -3267.0616      25833.667    
     33000   238.79911     -3293.743       27.379213     -3266.3638      25833.667    
     34000   238.26206     -3292.9807      27.317638     -3265.663       25833.667    
     35000   240.85259     -3292.5758      27.614653     -3264.9611      25833.667    
     36000   238.96568     -3291.6544      27.398311     -3264.2561      25833.667    
     37000   237.22035     -3290.7498      27.198202     -3263.5516      25833.667    
     38000   245.6437      -3291.0112      28.163971     -3262.8472      25833.667    
     39000   236.75827     -3289.2881      27.145223     -3262.1429      25833.667    
     40000   252.91697     -3290.4378      28.997879     -3261.4399      25833.667    
     41000   266.58755     -3291.3036      30.565261     -3260.7383      25833.667    
     42000   251.02611     -3288.82        28.781084     -3260.039       25833.667    
     43000   264.41547     -3289.6594      30.316225     -3259.3432      25833.667    
     44000   261.46803     -3288.6309      29.978289     -3258.6526      25833.667    
     45000   268.91636     -3288.7995      30.832269     -3257.9672      25833.667    
     46000   268.91804     -3288.1214      30.832461     -3257.2889      25833.667    
     47000   262.98066     -3286.7672      30.151719     -3256.6154      25833.667    
     48000   276.86494     -3287.6938      31.743603     -3255.9502      25833.667    
     49000   280.31855     -3287.4341      32.139572     -3255.2945      25833.667    
     50000   278.55978     -3286.5914      31.937923     -3254.6535      25833.667    
Loop time of 47.7246 on 1 procs for 50000 steps with 888 atoms

Performance: 90.519 ns/day, 0.265 hours/ns, 1047.677 timesteps/s
100.0% CPU use with 1 MPI tasks x 1 OpenMP threads

MPI task timing breakdown:
Section |  min time  |  avg time  |  max time  |%varavg| %total
---------------------------------------------------------------
Pair    | 46.752     | 46.752     | 46.752     |   0.0 | 97.96
Neigh   | 0          | 0          | 0          |   0.0 |  0.00
Comm    | 0.006041   | 0.006041   | 0.006041   |   0.0 |  0.01
Output  | 0.13698    | 0.13698    | 0.13698    |   0.0 |  0.29
Modify  | 0.70043    | 0.70043    | 0.70043    |   0.0 |  1.47
Other   |            | 0.1293     |            |       |  0.27

Nlocal:            888 ave         888 max         888 min
Histogram: 1 0 0 0 0 0 0 0 0 0
Nghost:              0 ave           0 max           0 min
Histogram: 1 0 0 0 0 0 0 0 0 0
Neighs:          33349 ave       33349 max       33349 min
Histogram: 1 0 0 0 0 0 0 0 0 0

Total # of neighbors = 33349
Ave neighs/atom = 37.55518
Neighbor list builds = 0
Dangerous builds = 0
Total wall time: 0:00:47
