LAMMPS (15 Sep 2022)
OMP_NUM_THREADS environment is not set. Defaulting to 1 thread. (src/comm.cpp:98)
  using 1 OpenMP thread(s) per MPI task
Loaded 1 plugins from C:\Users\becat\AppData\Local\LAMMPS 64-bit 15Sep2022\plugins
Lattice spacing in x,y,z = 4.079 4.079 4.079
Created orthogonal box = (0 0 0) to (40.79 40.79 40.79)
  1 by 1 by 1 MPI processor grid
Read molecule template np:
  1 molecules
  0 fragments
  831 atoms with max type 1
  0 bonds with max type 0
  0 angles with max type 0
  0 dihedrals with max type 0
  0 impropers with max type 0
Created 831 atoms
  using lattice units in orthogonal box = (4.2422424 4.242114 7.3049038) to (35.077313 36.477034 33.485097)
  create_atoms CPU = 0.000 seconds
Neighbor list info ...
  update: every = 1 steps, delay = 10 steps, check = yes
  max neighbors/atom: 2000, page size: 100000
  master list distance cutoff = 7.55
  ghost atom cutoff = 7.55
  binsize = 3.775, bins = 9 9 7
  1 neighbor lists, perpetual/occasional/extra = 1 0 0
  (1) pair eam, perpetual
      attributes: half, newton on
      pair build: half/bin/atomonly/newton
      stencil: half/bin/3d
      bin: standard
Setting up Verlet run ...
  Unit style    : metal
  Current step  : 0
  Time step     : 0.001
Per MPI rank memory allocation (min/avg/max) = 4.586 | 4.586 | 4.586 Mbytes
   Step          Temp          PotEng         KinEng         TotEng         Volume    
         0   300           -3081.4799      32.185776     -3049.2941      26022.222    
      1000   247.97985     -3075.8648      26.604746     -3049.2601      26022.222    
      2000   254.49353     -3076.4568      27.303573     -3049.1532      26022.222    
      3000   251.9734      -3076.0088      27.033199     -3048.9756      26022.222    
      4000   244.55562     -3074.965       26.237375     -3048.7276      26022.222    
      5000   263.52314     -3076.6944      28.272322     -3048.422       26022.222    
      6000   269.11903     -3076.9601      28.872683     -3048.0874      26022.222    
      7000   271.64113     -3076.8939      29.143268     -3047.7506      26022.222    
      8000   269.22086     -3076.32        28.883608     -3047.4364      24483.607    
      9000   268.33206     -3075.9435      28.788252     -3047.1553      24483.607    
     10000   271.90389     -3076.0733      29.171459     -3046.9019      24483.607    
     11000   279.72759     -3076.6729      30.010832     -3046.6621      24483.607    
     12000   274.10886     -3075.8316      29.408022     -3046.4235      24483.607    
     13000   282.75583     -3076.5172      30.33572      -3046.1815      24486.068    
     14000   271.1367      -3075.0193      29.089151     -3045.9302      24628.094    
     15000   289.19917     -3076.6914      31.026999     -3045.6644      24572.281    
     16000   284.67771     -3075.927       30.54191      -3045.3851      24164.295    
     17000   292.58574     -3076.4867      31.390331     -3045.0964      24164.295    
     18000   285.6401      -3075.4464      30.645161     -3044.8013      24164.295    
     19000   289.68968     -3075.5803      31.079624     -3044.5007      24164.295    
     20000   288.45066     -3075.1451      30.946695     -3044.1984      24968.137    
     21000   278.93894     -3073.8258      29.926221     -3043.8996      24239.239    
     22000   282.00239     -3073.8583      30.254886     -3043.6034      24239.239    
     23000   274.4443      -3072.7546      29.44401      -3043.3106      24239.239    
     24000   293.47917     -3074.5107      31.486183     -3043.0245      24239.239    
     25000   286.05651     -3073.4358      30.689836     -3042.746       24239.239    
     26000   287.15238     -3073.279       30.807408     -3042.4716      24239.239    
     27000   299.24824     -3074.309       32.105123     -3042.2039      24239.239    
     28000   299.65113     -3074.0935      32.148347     -3041.9452      24195.433    
     29000   296.76475     -3073.5314      31.838679     -3041.6927      24542.442    
     30000   295.72958     -3073.1763      31.727621     -3041.4486      23958.318    
     31000   297.61191     -3073.1414      31.929568     -3041.2119      24708.919    
     32000   294.75064     -3072.6075      31.622594     -3040.9849      24415.17     
     33000   298.62934     -3072.8052      32.038723     -3040.7664      24490.868    
     34000   309.70572     -3073.7838      33.227064     -3040.5568      23822.89     
     35000   300.20753     -3072.5644      32.208042     -3040.3563      24229.628    
     36000   305.86475     -3072.9815      32.814981     -3040.1665      24229.628    
     37000   302.7713      -3072.4705      32.483098     -3039.9874      24229.628    
     38000   309.43432     -3073.0175      33.197946     -3039.8195      24229.628    
     39000   309.31393     -3072.8481      33.18503      -3039.663       24078.249    
     40000   313.41022     -3073.1423      33.624504     -3039.5178      24078.249    
     41000   298.5495      -3071.414       32.030158     -3039.3839      24078.249    
     42000   300.84694     -3071.5401      32.27664      -3039.2635      23986.099    
     43000   304.24414     -3071.7977      32.641113     -3039.1565      23862.192    
     44000   304.66446     -3071.7494      32.686207     -3039.0632      24475.819    
     45000   300.59592     -3071.2334      32.24971      -3038.9837      24600.164    
     46000   307.59936     -3071.9201      33.001081     -3038.919       24504.224    
     47000   307.89397     -3071.9027      33.032688     -3038.87        23926.519    
     48000   304.53001     -3071.5075      32.671783     -3038.8357      24154.206    
     49000   311.08201     -3072.1931      33.37472      -3038.8184      24407.489    
     50000   307.73087     -3071.8319      33.01519      -3038.8167      23811.672    
Loop time of 42.9244 on 1 procs for 50000 steps with 831 atoms

Performance: 100.642 ns/day, 0.238 hours/ns, 1164.840 timesteps/s
100.0% CPU use with 1 MPI tasks x 1 OpenMP threads

MPI task timing breakdown:
Section |  min time  |  avg time  |  max time  |%varavg| %total
---------------------------------------------------------------
Pair    | 41.994     | 41.994     | 41.994     |   0.0 | 97.83
Neigh   | 0.024282   | 0.024282   | 0.024282   |   0.0 |  0.06
Comm    | 0.006268   | 0.006268   | 0.006268   |   0.0 |  0.01
Output  | 0.12382    | 0.12382    | 0.12382    |   0.0 |  0.29
Modify  | 0.65541    | 0.65541    | 0.65541    |   0.0 |  1.53
Other   |            | 0.1204     |            |       |  0.28

Nlocal:            831 ave         831 max         831 min
Histogram: 1 0 0 0 0 0 0 0 0 0
Nghost:              0 ave           0 max           0 min
Histogram: 1 0 0 0 0 0 0 0 0 0
Neighs:          31521 ave       31521 max       31521 min
Histogram: 1 0 0 0 0 0 0 0 0 0

Total # of neighbors = 31521
Ave neighs/atom = 37.931408
Neighbor list builds = 30
Dangerous builds = 0
Total wall time: 0:00:42
