LAMMPS (15 Sep 2022)
OMP_NUM_THREADS environment is not set. Defaulting to 1 thread. (src/comm.cpp:98)
  using 1 OpenMP thread(s) per MPI task
Loaded 1 plugins from C:\Users\becat\AppData\Local\LAMMPS 64-bit 15Sep2022\plugins
Lattice spacing in x,y,z = 4.079 4.079 4.079
Created orthogonal box = (0 0 0) to (40.79 40.79 40.79)
  1 by 1 by 1 MPI processor grid
Read molecule template np:
  1 molecules
  0 fragments
  146 atoms with max type 1
  0 bonds with max type 0
  0 angles with max type 0
  0 dihedrals with max type 0
  0 impropers with max type 0
Created 146 atoms
  using lattice units in orthogonal box = (11.96823 11.952595 13.847912) to (28.655695 28.829403 26.942088)
  create_atoms CPU = 0.000 seconds
Neighbor list info ...
  update: every = 1 steps, delay = 10 steps, check = yes
  max neighbors/atom: 2000, page size: 100000
  master list distance cutoff = 7.55
  ghost atom cutoff = 7.55
  binsize = 3.775, bins = 5 5 4
  1 neighbor lists, perpetual/occasional/extra = 1 0 0
  (1) pair eam, perpetual
      attributes: half, newton on
      pair build: half/bin/atomonly/newton
      stencil: half/bin/3d
      bin: standard
Setting up Verlet run ...
  Unit style    : metal
  Current step  : 0
  Time step     : 0.001
Per MPI rank memory allocation (min/avg/max) = 4.544 | 4.544 | 4.544 Mbytes
   Step          Temp          PotEng         KinEng         TotEng         Volume    
         0   300           -513.42593      5.6228163     -507.80311      3687.7276    
      1000   401.47515     -515.3577       7.5247368     -507.83296      3687.7276    
      2000   430.37069     -515.98243      8.0663179     -507.91611      3687.7276    
      3000   425.74321     -516.0288       7.9795863     -508.04921      3258.5445    
      4000   404.05686     -515.8027       7.5731251     -508.22958      3373.3883    
      5000   398.79244     -515.9091       7.4744554     -508.43464      3373.3883    
      6000   408.85272     -516.31288      7.6630124     -508.64987      3373.3883    
      7000   386.53721     -516.09519      7.2447591     -508.85043      3373.3883    
      8000   382.61235     -516.19942      7.1711965     -509.02823      3373.3883    
      9000   383.35252     -516.36814      7.1850694     -509.18307      3373.3883    
     10000   384.30578     -516.52771      7.2029359     -509.32477      3373.3883    
     11000   368.55999     -516.36772      6.9078171     -509.45991      3373.3883    
     12000   338.24861     -515.93326      6.3396992     -509.59356      3264.6681    
     13000   384.54891     -516.9381       7.2074929     -509.7306       3294.4564    
     14000   362.29924     -516.66137      6.7904736     -509.87089      3279.7664    
     15000   354.42402     -516.65899      6.6428706     -510.01612      3279.7664    
     16000   333.92958     -516.42242      6.2587489     -510.16367      3279.7664    
     17000   339.62623     -516.67861      6.3655197     -510.31309      3303.2207    
     18000   322.79864     -516.51195      6.0501248     -510.46182      3297.0979    
     19000   344.0804      -517.05888      6.449003      -510.60988      3297.0979    
     20000   350.40053     -517.3223       6.5674594     -510.75484      3297.0979    
     21000   360.25304     -517.64746      6.7521222     -510.89534      3297.0979    
     22000   292.84892     -516.51971      5.4887855     -511.03092      3278.4598    
     23000   310.66043     -516.98242      5.8226217     -511.1598       3278.4598    
     24000   329.51357     -517.46095      6.1759809     -511.28497      3278.4598    
     25000   319.70237     -517.39724      5.9920923     -511.40515      3278.4598    
     26000   311.79128     -517.36385      5.8438169     -511.52004      3278.4598    
     27000   294.83256     -517.15547      5.5259645     -511.62951      3278.4598    
     28000   318.50271     -517.70399      5.9696074     -511.73438      3278.4598    
     29000   293.23216     -517.33025      5.4959686     -511.83428      3278.4598    
     30000   303.18446     -517.6108       5.6825018     -511.9283       3278.4598    
     31000   291.35596     -517.47802      5.4608034     -512.01721      3278.4598    
     32000   316.41404     -518.03189      5.93046       -512.10143      3278.4598    
     33000   290.38886     -517.62259      5.4426775     -512.17992      3278.4598    
     34000   285.75779     -517.60865      5.3558785     -512.25277      3278.4598    
     35000   275.84259     -517.49172      5.1700407     -512.32168      3278.4598    
     36000   271.58349     -517.47476      5.0902136     -512.38455      3315.0165    
     37000   253.72094     -517.19759      4.7554208     -512.44217      3186.3692    
     38000   304.97906     -518.21078      5.7161375     -512.49464      3186.3692    
     39000   269.97934     -517.60229      5.0601475     -512.54215      3186.3692    
     40000   287.84749     -517.97979      5.3950451     -512.58475      3186.3692    
     41000   279.42512     -517.85923      5.2371871     -512.62204      3186.3692    
     42000   310.59015     -518.47514      5.8213045     -512.65383      3186.3692    
     43000   268.22585     -517.70712      5.0272823     -512.67984      3186.3692    
     44000   290.50659     -518.14523      5.4448839     -512.70035      3186.3692    
     45000   293.83159     -518.22242      5.5072035     -512.71522      3186.3692    
     46000   285.74573     -518.07976      5.3556525     -512.7241       3186.3692    
     47000   308.79326     -518.51474      5.7876259     -512.72711      3186.3692    
     48000   275.84457     -517.89375      5.1700779     -512.72367      3186.3692    
     49000   273.93895     -517.84778      5.1343614     -512.71342      3186.3692    
     50000   249.0319      -517.36417      4.6675355     -512.69664      3186.3692    
Loop time of 9.01221 on 1 procs for 50000 steps with 146 atoms

Performance: 479.350 ns/day, 0.050 hours/ns, 5548.027 timesteps/s
100.0% CPU use with 1 MPI tasks x 1 OpenMP threads

MPI task timing breakdown:
Section |  min time  |  avg time  |  max time  |%varavg| %total
---------------------------------------------------------------
Pair    | 8.6842     | 8.6842     | 8.6842     |   0.0 | 96.36
Neigh   | 0.001581   | 0.001581   | 0.001581   |   0.0 |  0.02
Comm    | 0.008425   | 0.008425   | 0.008425   |   0.0 |  0.09
Output  | 0.038696   | 0.038696   | 0.038696   |   0.0 |  0.43
Modify  | 0.2343     | 0.2343     | 0.2343     |   0.0 |  2.60
Other   |            | 0.04504    |            |       |  0.50

Nlocal:            146 ave         146 max         146 min
Histogram: 1 0 0 0 0 0 0 0 0 0
Nghost:              0 ave           0 max           0 min
Histogram: 1 0 0 0 0 0 0 0 0 0
Neighs:           4160 ave        4160 max        4160 min
Histogram: 1 0 0 0 0 0 0 0 0 0

Total # of neighbors = 4160
Ave neighs/atom = 28.493151
Neighbor list builds = 11
Dangerous builds = 0
Total wall time: 0:00:09
