LAMMPS (15 Sep 2022)
OMP_NUM_THREADS environment is not set. Defaulting to 1 thread. (src/comm.cpp:98)
  using 1 OpenMP thread(s) per MPI task
Loaded 1 plugins from C:\Users\becat\AppData\Local\LAMMPS 64-bit 15Sep2022\plugins
Lattice spacing in x,y,z = 4.079 4.079 4.079
Created orthogonal box = (0 0 0) to (40.79 40.79 40.79)
  1 by 1 by 1 MPI processor grid
Read molecule template np:
  1 molecules
  0 fragments
  237 atoms with max type 1
  0 bonds with max type 0
  0 angles with max type 0
  0 dihedrals with max type 0
  0 impropers with max type 0
Created 237 atoms
  using lattice units in orthogonal box = (10.859053 10.867149 10.794441) to (29.930946 29.922851 29.995559)
  create_atoms CPU = 0.000 seconds
Neighbor list info ...
  update: every = 1 steps, delay = 10 steps, check = yes
  max neighbors/atom: 2000, page size: 100000
  master list distance cutoff = 7.55
  ghost atom cutoff = 7.55
  binsize = 3.775, bins = 6 6 6
  1 neighbor lists, perpetual/occasional/extra = 1 0 0
  (1) pair eam, perpetual
      attributes: half, newton on
      pair build: half/bin/atomonly/newton
      stencil: half/bin/3d
      bin: standard
Setting up Verlet run ...
  Unit style    : metal
  Current step  : 0
  Time step     : 0.001
Per MPI rank memory allocation (min/avg/max) = 4.551 | 4.551 | 4.551 Mbytes
   Step          Temp          PotEng         KinEng         TotEng         Volume    
         0   300           -813.51831      9.1516183     -804.36669      6978.23      
      1000   711.11116     -826.3654       21.692726     -804.67267      6127.7638    
      2000   612.92769     -824.22323      18.697601     -805.52563      6045.6226    
      3000   733.38584     -828.91572      22.372224     -806.54349      5966.4887    
      4000   699.61118     -828.79725      21.341915     -807.45533      5996.6339    
      5000   605.25394     -826.72968      18.46351      -808.26617      6142.6179    
      6000   629.65742     -828.35421      19.207948     -809.14626      6733.6939    
      7000   639.44958     -829.55375      19.506662     -810.04709      6535.5826    
      8000   645.80156     -830.71772      19.700431     -811.01729      5963.8921    
      9000   612.72321     -830.71181      18.691363     -812.02045      6157.9451    
     10000   607.96557     -831.5846       18.546229     -813.03837      5943.3534    
     11000   569.46788     -831.42571      17.371842     -814.05387      5859.0396    
     12000   534.95716     -831.37659      16.319079     -815.05751      5436.5502    
     13000   579.86807     -833.7576       17.689104     -816.0685       5476.6566    
     14000   546.11777     -833.72812      16.659538     -817.06859      5478.0522    
     15000   539.51423     -834.51188      16.458094     -818.05379      5465.6731    
     16000   543.38027     -835.59848      16.576029     -819.02245      5738.0668    
     17000   491.62939     -834.98891      14.997348     -819.99156      5672.2868    
     18000   522.54243     -836.868        15.940363     -820.92763      5149.2361    
     19000   528.19043     -837.96349      16.112657     -821.85083      5358.916     
     20000   503.33282     -838.1045       15.354366     -822.75013      5586.444     
     21000   488.97649     -838.53003      14.916421     -823.61361      5453.9306    
     22000   476.05606     -838.9779       14.522278     -824.45563      5323.6188    
     23000   469.71461     -839.59681      14.328829     -825.26798      5482.5731    
     24000   438.75826     -839.43096      13.384494     -826.04647      5236.4039    
     25000   470.37462     -841.14496      14.348963     -826.796        5118.3512    
     26000   451.69327     -841.31966      13.779081     -827.54057      5247.4333    
     27000   433.88636     -841.48174      13.235875     -828.24587      5198.6978    
     28000   421.5631      -841.78135      12.859949     -828.9214       5285.335     
     29000   401.01436     -841.80751      12.233101     -829.57441      5325.0491    
     30000   425.57966     -843.18607      12.982475     -830.20359      5351.6932    
     31000   380.4329      -842.41159      11.605255     -830.80634      5222.463     
     32000   377.28797     -842.89923      11.509318     -831.38991      5299.883     
     33000   384.62888     -843.67483      11.733255     -831.94157      5138.6104    
     34000   341.55701     -842.89254      10.419331     -832.47321      5201.6217    
     35000   365.91842     -844.14561      11.162486     -832.98312      5260.6552    
     36000   363.30079     -844.55246      11.082634     -833.46982      5223.2911    
     37000   327.7699      -843.92102      9.9987501     -833.92227      5289.9863    
     38000   341.37353     -844.7671       10.413734     -834.35337      5240.8765    
     39000   346.43389     -845.3331       10.568102     -834.76499      5410.3952    
     40000   344.08597     -845.65286      10.496478     -835.15638      5478.2327    
     41000   333.89379     -845.71788      10.185562     -835.53232      5093.8829    
     42000   306.587       -845.23542      9.3525571     -835.88286      5093.8829    
     43000   338.45868     -846.54677      10.324816     -836.22195      5130.3939    
     44000   313.48362     -846.11435      9.5629415     -836.55141      5355.299     
     45000   298.31858     -845.96605      9.1003258     -836.86572      5101.5677    
     46000   315.15824     -846.77267      9.6140263     -837.15865      5326.2827    
     47000   346.33774     -848.00405      10.565169     -837.43888      5326.2827    
     48000   294.0644      -846.67394      8.9705504     -837.70339      5308.959     
     49000   286.54773     -846.68869      8.7412514     -837.94744      5303.1913    
     50000   289.57336     -847.01303      8.8335495     -838.17948      5359.2583    
Loop time of 13.8022 on 1 procs for 50000 steps with 237 atoms

Performance: 312.993 ns/day, 0.077 hours/ns, 3622.609 timesteps/s
99.8% CPU use with 1 MPI tasks x 1 OpenMP threads

MPI task timing breakdown:
Section |  min time  |  avg time  |  max time  |%varavg| %total
---------------------------------------------------------------
Pair    | 13.362     | 13.362     | 13.362     |   0.0 | 96.81
Neigh   | 0.030993   | 0.030993   | 0.030993   |   0.0 |  0.22
Comm    | 0.00931    | 0.00931    | 0.00931    |   0.0 |  0.07
Output  | 0.048385   | 0.048385   | 0.048385   |   0.0 |  0.35
Modify  | 0.28762    | 0.28762    | 0.28762    |   0.0 |  2.08
Other   |            | 0.06342    |            |       |  0.46

Nlocal:            237 ave         237 max         237 min
Histogram: 1 0 0 0 0 0 0 0 0 0
Nghost:              0 ave           0 max           0 min
Histogram: 1 0 0 0 0 0 0 0 0 0
Neighs:           7481 ave        7481 max        7481 min
Histogram: 1 0 0 0 0 0 0 0 0 0

Total # of neighbors = 7481
Ave neighs/atom = 31.565401
Neighbor list builds = 143
Dangerous builds = 0
Total wall time: 0:00:13
