LAMMPS (15 Sep 2022)
OMP_NUM_THREADS environment is not set. Defaulting to 1 thread. (src/comm.cpp:98)
  using 1 OpenMP thread(s) per MPI task
Loaded 1 plugins from C:\Users\becat\AppData\Local\LAMMPS 64-bit 15Sep2022\plugins
Lattice spacing in x,y,z = 4.079 4.079 4.079
Created orthogonal box = (0 0 0) to (40.79 40.79 40.79)
  1 by 1 by 1 MPI processor grid
Read molecule template np:
  1 molecules
  0 fragments
  976 atoms with max type 1
  0 bonds with max type 0
  0 angles with max type 0
  0 dihedrals with max type 0
  0 impropers with max type 0
Created 976 atoms
  using lattice units in orthogonal box = (5.2684177 4.2471692 4.0470634) to (35.521582 36.542831 36.742937)
  create_atoms CPU = 0.000 seconds
Neighbor list info ...
  update: every = 1 steps, delay = 10 steps, check = yes
  max neighbors/atom: 2000, page size: 100000
  master list distance cutoff = 7.55
  ghost atom cutoff = 7.55
  binsize = 3.775, bins = 9 9 9
  1 neighbor lists, perpetual/occasional/extra = 1 0 0
  (1) pair eam, perpetual
      attributes: half, newton on
      pair build: half/bin/atomonly/newton
      stencil: half/bin/3d
      bin: standard
Setting up Verlet run ...
  Unit style    : metal
  Current step  : 0
  Time step     : 0.001
Per MPI rank memory allocation (min/avg/max) = 4.595 | 4.595 | 4.595 Mbytes
   Step          Temp          PotEng         KinEng         TotEng         Volume    
         0   300           -3638.131       37.808592     -3600.3224      31945.371    
      1000   229.229       -3629.1444      28.88942      -3600.255       31945.371    
      2000   224.5215      -3628.3459      28.296139     -3600.0498      31945.371    
      3000   228.16903     -3628.4735      28.755833     -3599.7176      31945.371    
      4000   243.34427     -3629.9655      30.668348     -3599.2972      31945.371    
      5000   241.63375     -3629.307       30.452774     -3598.8542      31945.371    
      6000   242.45344     -3629.0027      30.556078     -3598.4466      31945.371    
      7000   240.2463      -3628.3559      30.277915     -3598.078       31945.371    
      8000   244.88921     -3628.5864      30.863055     -3597.7234      31945.371    
      9000   249.89512     -3628.8513      31.493942     -3597.3573      31945.371    
     10000   260.92316     -3629.8464      32.883791     -3596.9626      31945.371    
     11000   246.63095     -3627.6179      31.082563     -3596.5354      31945.371    
     12000   246.2392      -3627.1145      31.033192     -3596.0813      31945.371    
     13000   248.39837     -3626.9139      31.305309     -3595.6086      31945.371    
     14000   242.80579     -3625.7244      30.600484     -3595.1239      31945.371    
     15000   254.0805      -3626.6532      32.02142      -3594.6318      31945.371    
     16000   257.31905     -3626.5664      32.42957      -3594.1368      31945.371    
     17000   260.92803     -3626.5221      32.884405     -3593.6377      31945.371    
     18000   251.14801     -3624.7879      31.651842     -3593.1361      31945.371    
     19000   254.48031     -3624.7044      32.071808     -3592.6326      31945.371    
     20000   261.68488     -3625.1071      32.97979      -3592.1273      31945.371    
     21000   258.78991     -3624.2358      32.614941     -3591.6209      31945.371    
     22000   246.62399     -3622.1961      31.081686     -3591.1144      31945.371    
     23000   263.02711     -3623.7568      33.148949     -3590.6079      31945.371    
     24000   273.16658     -3624.5295      34.426813     -3590.1027      31945.371    
     25000   270.17425     -3623.6495      34.049694     -3589.5998      31945.371    
     26000   273.55131     -3623.5773      34.4753       -3589.102       31945.371    
     27000   278.5643      -3623.7128      35.107081     -3588.6057      31945.371    
     28000   263.17376     -3621.2803      33.167431     -3588.1128      31945.371    
     29000   288.16066     -3623.9433      36.316497     -3587.6268      31945.371    
     30000   284.6456      -3623.0195      35.873499     -3587.146       31945.371    
     31000   283.76062     -3622.4332      35.761965     -3586.6712      31945.371    
     32000   281.62105     -3621.6973      35.492319     -3586.205       31945.371    
     33000   279.13801     -3620.9237      35.179384     -3585.7443      31945.371    
     34000   287.13452     -3621.481       36.187174     -3585.2938      31945.371    
     35000   290.53032     -3621.4678      36.615142     -3584.8526      29197.714    
     36000   286.67077     -3620.5481      36.128728     -3584.4193      30204.36     
     37000   291.3072      -3620.7098      36.713051     -3583.9968      30204.36     
     38000   291.52933     -3620.3272      36.741045     -3583.5861      30204.36     
     39000   297.83369     -3620.7225      37.535576     -3583.1869      29901.715    
     40000   297.81141     -3620.3357      37.532768     -3582.803       29904.976    
     41000   298.25857     -3620.0216      37.589122     -3582.4324      29448.444    
     42000   307.17906     -3620.7872      38.71336      -3582.0738      29448.444    
     43000   303.49943     -3619.9799      38.249621     -3581.7303      29943.12     
     44000   290.53516     -3618.019       36.615751     -3581.4032      29943.12     
     45000   312.32032     -3620.4559      39.361305     -3581.0946      29943.12     
     46000   299.75032     -3618.5791      37.777126     -3580.802       29940.209    
     47000   307.72538     -3619.3115      38.782212     -3580.5293      30067.12     
     48000   312.82231     -3619.699       39.424571     -3580.2744      29356.469    
     49000   310.18833     -3619.1336      39.092614     -3580.041       29356.469    
     50000   309.08271     -3618.7812      38.953274     -3579.828       29356.469    
Loop time of 51.8003 on 1 procs for 50000 steps with 976 atoms

Performance: 83.397 ns/day, 0.288 hours/ns, 965.245 timesteps/s
100.0% CPU use with 1 MPI tasks x 1 OpenMP threads

MPI task timing breakdown:
Section |  min time  |  avg time  |  max time  |%varavg| %total
---------------------------------------------------------------
Pair    | 50.688     | 50.688     | 50.688     |   0.0 | 97.85
Neigh   | 0.009514   | 0.009514   | 0.009514   |   0.0 |  0.02
Comm    | 0.007287   | 0.007287   | 0.007287   |   0.0 |  0.01
Output  | 0.15674    | 0.15674    | 0.15674    |   0.0 |  0.30
Modify  | 0.79258    | 0.79258    | 0.79258    |   0.0 |  1.53
Other   |            | 0.1461     |            |       |  0.28

Nlocal:            976 ave         976 max         976 min
Histogram: 1 0 0 0 0 0 0 0 0 0
Nghost:              0 ave           0 max           0 min
Histogram: 1 0 0 0 0 0 0 0 0 0
Neighs:          36958 ave       36958 max       36958 min
Histogram: 1 0 0 0 0 0 0 0 0 0

Total # of neighbors = 36958
Ave neighs/atom = 37.866803
Neighbor list builds = 9
Dangerous builds = 0
Total wall time: 0:00:51
