LAMMPS (15 Sep 2022)
OMP_NUM_THREADS environment is not set. Defaulting to 1 thread. (src/comm.cpp:98)
  using 1 OpenMP thread(s) per MPI task
Loaded 1 plugins from C:\Users\becat\AppData\Local\LAMMPS 64-bit 15Sep2022\plugins
Lattice spacing in x,y,z = 4.079 4.079 4.079
Created orthogonal box = (0 0 0) to (40.79 40.79 40.79)
  1 by 1 by 1 MPI processor grid
Read molecule template np:
  1 molecules
  0 fragments
  807 atoms with max type 1
  0 bonds with max type 0
  0 angles with max type 0
  0 dihedrals with max type 0
  0 impropers with max type 0
Created 807 atoms
  using lattice units in orthogonal box = (5.5309187 5.0751588 4.8944043) to (35.259081 35.714841 35.895596)
  create_atoms CPU = 0.000 seconds
Neighbor list info ...
  update: every = 1 steps, delay = 10 steps, check = yes
  max neighbors/atom: 2000, page size: 100000
  master list distance cutoff = 7.55
  ghost atom cutoff = 7.55
  binsize = 3.775, bins = 8 9 9
  1 neighbor lists, perpetual/occasional/extra = 1 0 0
  (1) pair eam, perpetual
      attributes: half, newton on
      pair build: half/bin/atomonly/newton
      stencil: half/bin/3d
      bin: standard
Setting up Verlet run ...
  Unit style    : metal
  Current step  : 0
  Time step     : 0.001
Per MPI rank memory allocation (min/avg/max) = 4.586 | 4.586 | 4.586 Mbytes
   Step          Temp          PotEng         KinEng         TotEng         Volume    
         0   300           -2997.3443      31.255103     -2966.0892      28237.791    
      1000   224.80648     -2989.4625      23.421166     -2966.0413      28237.791    
      2000   234.35689     -2990.3051      24.416163     -2965.889       28237.791    
      3000   235.60215     -2990.1838      24.545899     -2965.6379      28237.791    
      4000   234.89751     -2989.7802      24.472487     -2965.3077      28237.791    
      5000   240.83936     -2990.0256      25.09153      -2964.934       28237.791    
      6000   235.40734     -2989.0926      24.525603     -2964.567       28237.791    
      7000   242.61337     -2989.5087      25.276353     -2964.2323      28237.791    
      8000   249.73465     -2989.9495      26.018274     -2963.9312      28237.791    
      9000   235.17359     -2988.1418      24.501249     -2963.6406      28237.791    
     10000   245.17781     -2988.8869      25.543526     -2963.3434      28237.791    
     11000   254.82781     -2989.5748      26.548898     -2963.0259      28237.791    
     12000   233.44942     -2987.0073      24.321619     -2962.6857      28237.791    
     13000   249.48837     -2988.3182      25.992616     -2962.3255      26188.349    
     14000   243.56055     -2987.3248      25.375033     -2961.9497      26188.349    
     15000   262.10195     -2988.8684      27.306745     -2961.5616      25921.07     
     16000   256.76279     -2987.9166      26.750492     -2961.1661      25921.07     
     17000   254.90985     -2987.3292      26.557446     -2960.7718      25921.07     
     18000   255.33571     -2986.9768      26.601813     -2960.375       25921.07     
     19000   261.56164     -2987.2303      27.250454     -2959.9799      25921.07     
     20000   263.74377     -2987.0609      27.477796     -2959.5831      25921.07     
     21000   260.35496     -2986.3143      27.124737     -2959.1895      25921.07     
     22000   260.20547     -2985.9054      27.109162     -2958.7962      26134.139    
     23000   270.57775     -2986.5955      28.189785     -2958.4057      26134.139    
     24000   271.40341     -2986.2948      28.275805     -2958.019       26134.139    
     25000   285.41996     -2987.3674      29.736101     -2957.6313      26134.139    
     26000   276.77775     -2986.0861      28.835723     -2957.2504      26134.139    
     27000   265.6913      -2984.5536      27.680696     -2956.8729      26134.139    
     28000   281.16603     -2985.795       29.29291      -2956.502       26134.139    
     29000   278.19517     -2985.1177      28.983396     -2956.1343      26134.139    
     30000   280.9925      -2985.049       29.274832     -2955.7741      26134.139    
     31000   290.36189     -2985.6705      30.250969     -2955.4195      26134.139    
     32000   281.80299     -2984.4335      29.359271     -2955.0742      26134.139    
     33000   285.73679     -2984.5039      29.769109     -2954.7348      26134.139    
     34000   288.19146     -2984.4299      30.024846     -2954.4051      26134.139    
     35000   294.43673     -2984.759       30.675501     -2954.0835      26134.139    
     36000   293.12154     -2984.3099      30.53848      -2953.7714      26134.139    
     37000   307.19818     -2985.4745      32.005036     -2953.4695      26134.139    
     38000   302.03684     -2984.6437      31.467308     -2953.1764      26134.139    
     39000   294.86713     -2983.6176      30.720342     -2952.8972      26134.139    
     40000   306.33738     -2984.5437      31.915354     -2952.6284      26134.139    
     41000   293.92415     -2982.9953      30.622099     -2952.3732      26134.139    
     42000   299.84992     -2983.3702      31.239467     -2952.1307      26240.787    
     43000   313.42001     -2984.5563      32.653249     -2951.9031      25949.609    
     44000   293.15962     -2982.2319      30.542447     -2951.6895      25949.609    
     45000   302.37806     -2982.9945      31.502858     -2951.4916      26306.244    
     46000   302.74489     -2982.8519      31.541075     -2951.3108      25962.058    
     47000   316.47011     -2984.1185      32.971019     -2951.1475      25962.058    
     48000   307.31623     -2983.0198      32.017335     -2951.0025      26238.428    
     49000   314.01157     -2983.5898      32.71488      -2950.8749      26238.428    
     50000   318.6035      -2983.9598      33.193284     -2950.7665      26238.428    
Loop time of 41.5329 on 1 procs for 50000 steps with 807 atoms

Performance: 104.014 ns/day, 0.231 hours/ns, 1203.864 timesteps/s
100.0% CPU use with 1 MPI tasks x 1 OpenMP threads

MPI task timing breakdown:
Section |  min time  |  avg time  |  max time  |%varavg| %total
---------------------------------------------------------------
Pair    | 40.628     | 40.628     | 40.628     |   0.0 | 97.82
Neigh   | 0.007102   | 0.007102   | 0.007102   |   0.0 |  0.02
Comm    | 0.006263   | 0.006263   | 0.006263   |   0.0 |  0.02
Output  | 0.12191    | 0.12191    | 0.12191    |   0.0 |  0.29
Modify  | 0.64983    | 0.64983    | 0.64983    |   0.0 |  1.56
Other   |            | 0.1193     |            |       |  0.29

Nlocal:            807 ave         807 max         807 min
Histogram: 1 0 0 0 0 0 0 0 0 0
Nghost:              0 ave           0 max           0 min
Histogram: 1 0 0 0 0 0 0 0 0 0
Neighs:          29863 ave       29863 max       29863 min
Histogram: 1 0 0 0 0 0 0 0 0 0

Total # of neighbors = 29863
Ave neighs/atom = 37.004957
Neighbor list builds = 9
Dangerous builds = 0
Total wall time: 0:00:41
