LAMMPS (15 Sep 2022)
OMP_NUM_THREADS environment is not set. Defaulting to 1 thread. (src/comm.cpp:98)
  using 1 OpenMP thread(s) per MPI task
Loaded 1 plugins from C:\Users\becat\AppData\Local\LAMMPS 64-bit 15Sep2022\plugins
Lattice spacing in x,y,z = 4.079 4.079 4.079
Created orthogonal box = (0 0 0) to (40.79 40.79 40.79)
  1 by 1 by 1 MPI processor grid
Read molecule template np:
  1 molecules
  0 fragments
  686 atoms with max type 1
  0 bonds with max type 0
  0 angles with max type 0
  0 dihedrals with max type 0
  0 impropers with max type 0
Created 686 atoms
  using lattice units in orthogonal box = (6.5916221 5.8364813 7.3049038) to (33.162717 34.903622 33.485097)
  create_atoms CPU = 0.000 seconds
Neighbor list info ...
  update: every = 1 steps, delay = 10 steps, check = yes
  max neighbors/atom: 2000, page size: 100000
  master list distance cutoff = 7.55
  ghost atom cutoff = 7.55
  binsize = 3.775, bins = 8 8 7
  1 neighbor lists, perpetual/occasional/extra = 1 0 0
  (1) pair eam, perpetual
      attributes: half, newton on
      pair build: half/bin/atomonly/newton
      stencil: half/bin/3d
      bin: standard
Setting up Verlet run ...
  Unit style    : metal
  Current step  : 0
  Time step     : 0.001
Per MPI rank memory allocation (min/avg/max) = 4.577 | 4.577 | 4.577 Mbytes
   Step          Temp          PotEng         KinEng         TotEng         Volume    
         0   300           -2532.9564      26.56296      -2506.3934      20220.161    
      1000   261.88189     -2529.561       23.18786      -2506.3732      20220.161    
      2000   259.22195     -2529.2573      22.952341     -2506.3049      20220.161    
      3000   280.47988     -2531.0246      24.834586     -2506.19        20220.161    
      4000   271.19153     -2530.0404      24.012165     -2506.0282      20220.161    
      5000   269.0887      -2529.6467      23.825975     -2505.8207      20220.161    
      6000   269.08225     -2529.4019      23.825404     -2505.5765      20220.161    
      7000   276.92339     -2529.8301      24.519683     -2505.3104      20220.161    
      8000   284.03134     -2530.1876      25.149043     -2505.0385      20220.161    
      9000   275.16947     -2529.1445      24.364385     -2504.7801      20220.161    
     10000   277.73554     -2529.1365      24.591593     -2504.5449      20220.161    
     11000   284.62846     -2529.5372      25.201914     -2504.3353      20220.161    
     12000   293.80039     -2530.1631      26.014026     -2504.1491      20220.161    
     13000   285.32442     -2529.2422      25.263537     -2503.9786      20220.161    
     14000   274.15443     -2528.0903      24.27451      -2503.8158      20220.161    
     15000   293.25547     -2529.62        25.965778     -2503.6543      20220.161    
     16000   295.18485     -2529.6297      26.136611     -2503.4931      20220.161    
     17000   280.67543     -2528.1799      24.8519       -2503.328       20220.161    
     18000   291.37321     -2528.9536      25.799116     -2503.1545      20220.161    
     19000   291.84325     -2528.8178      25.840735     -2502.977       20220.161    
     20000   300.5213      -2529.4043      26.609117     -2502.7952      18506.286    
     21000   284.92981     -2527.8374      25.228597     -2502.6088      19273.069    
     22000   285.98781     -2527.7421      25.322276     -2502.4199      19273.069    
     23000   302.34903     -2529.0003      26.77095      -2502.2293      19046.673    
     24000   295.35044     -2528.1899      26.151273     -2502.0386      19046.673    
     25000   305.61834     -2528.9131      27.060426     -2501.8526      19046.673    
     26000   304.3159      -2528.6125      26.945103     -2501.6674      19046.673    
     27000   289.20016     -2527.0945      25.606707     -2501.4878      19046.673    
     28000   302.39059     -2528.0871      26.77463      -2501.3125      19046.673    
     29000   299.38535     -2527.6531      26.508537     -2501.1446      19046.673    
     30000   306.46353     -2528.1202      27.135262     -2500.985       19046.673    
     31000   304.97208     -2527.836       27.003204     -2500.8328      19046.673    
     32000   297.7373      -2527.0507      26.362613     -2500.6881      19046.673    
     33000   295.49728     -2526.7153      26.164275     -2500.5511      19046.673    
     34000   289.33469     -2526.0429      25.618619     -2500.4243      19046.673    
     35000   298.02838     -2526.6945      26.388386     -2500.3061      19046.673    
     36000   300.11009     -2526.7699      26.572708     -2500.1972      19046.673    
     37000   316.06633     -2528.0825      27.985524     -2500.097       19046.673    
     38000   298.78118     -2526.4628      26.455042     -2500.0077      19046.673    
     39000   300.4555      -2526.5316      26.603292     -2499.9283      19046.673    
     40000   316.69396     -2527.8999      28.041096     -2499.8588      19046.673    
     41000   307.97385     -2527.0683      27.26899      -2499.7993      19046.673    
     42000   300.83866     -2526.387       26.637217     -2499.7498      19046.673    
     43000   309.35705     -2527.1015      27.391463     -2499.7101      19046.673    
     44000   309.18796     -2527.0579      27.376491     -2499.6814      19037.185    
     45000   310.4032      -2527.1489      27.484093     -2499.6648      18370.373    
     46000   313.66413     -2527.4316      27.772826     -2499.6587      18370.373    
     47000   311.80507     -2527.2738      27.608218     -2499.6656      18370.373    
     48000   290.07357     -2525.3693      25.684042     -2499.6852      18370.373    
     49000   297.63875     -2526.0721      26.353887     -2499.7182      18857.696    
     50000   300.29396     -2526.3533      26.588988     -2499.7643      19342.461    
Loop time of 35.2401 on 1 procs for 50000 steps with 686 atoms

Performance: 122.587 ns/day, 0.196 hours/ns, 1418.836 timesteps/s
99.9% CPU use with 1 MPI tasks x 1 OpenMP threads

MPI task timing breakdown:
Section |  min time  |  avg time  |  max time  |%varavg| %total
---------------------------------------------------------------
Pair    | 34.482     | 34.482     | 34.482     |   0.0 | 97.85
Neigh   | 0.006597   | 0.006597   | 0.006597   |   0.0 |  0.02
Comm    | 0.00577    | 0.00577    | 0.00577    |   0.0 |  0.02
Output  | 0.10163    | 0.10163    | 0.10163    |   0.0 |  0.29
Modify  | 0.54338    | 0.54338    | 0.54338    |   0.0 |  1.54
Other   |            | 0.1006     |            |       |  0.29

Nlocal:            686 ave         686 max         686 min
Histogram: 1 0 0 0 0 0 0 0 0 0
Nghost:              0 ave           0 max           0 min
Histogram: 1 0 0 0 0 0 0 0 0 0
Neighs:          25482 ave       25482 max       25482 min
Histogram: 1 0 0 0 0 0 0 0 0 0

Total # of neighbors = 25482
Ave neighs/atom = 37.145773
Neighbor list builds = 10
Dangerous builds = 0
Total wall time: 0:00:35
