LAMMPS (15 Sep 2022)
OMP_NUM_THREADS environment is not set. Defaulting to 1 thread. (src/comm.cpp:98)
  using 1 OpenMP thread(s) per MPI task
Loaded 1 plugins from C:\Users\becat\AppData\Local\LAMMPS 64-bit 15Sep2022\plugins
Lattice spacing in x,y,z = 4.079 4.079 4.079
Created orthogonal box = (0 0 0) to (40.79 40.79 40.79)
  1 by 1 by 1 MPI processor grid
Read molecule template np:
  1 molecules
  0 fragments
  36 atoms with max type 1
  0 bonds with max type 0
  0 angles with max type 0
  0 dihedrals with max type 0
  0 impropers with max type 0
Created 36 atoms
  using lattice units in orthogonal box = (16.192941 16.352939 16.501092) to (24.617575 24.411349 24.810347)
  create_atoms CPU = 0.000 seconds
Neighbor list info ...
  update: every = 1 steps, delay = 10 steps, check = yes
  max neighbors/atom: 2000, page size: 100000
  master list distance cutoff = 7.55
  ghost atom cutoff = 7.55
  binsize = 3.775, bins = 3 3 3
  1 neighbor lists, perpetual/occasional/extra = 1 0 0
  (1) pair eam, perpetual
      attributes: half, newton on
      pair build: half/bin/atomonly/newton
      stencil: half/bin/3d
      bin: standard
Setting up Verlet run ...
  Unit style    : metal
  Current step  : 0
  Time step     : 0.001
Per MPI rank memory allocation (min/avg/max) = 4.537 | 4.537 | 4.537 Mbytes
   Step          Temp          PotEng         KinEng         TotEng         Volume    
         0   300           -120.83419      1.3572315     -119.47696      564.10831    
      1000   164.10083     -120.21634      0.74240942    -119.47394      564.10831    
      2000   213.68107     -120.4313       0.96671561    -119.46458      564.10831    
      3000   208.19162     -120.39105      0.94188078    -119.44917      564.10831    
      4000   270.16449     -120.65005      1.2222525     -119.42779      564.10831    
      5000   202.14245     -120.31427      0.91451368    -119.39975      564.10831    
      6000   208.88646     -120.31036      0.94502429    -119.36534      551.37677    
      7000   211.57815     -120.28283      0.95720178    -119.32563      551.37677    
      8000   213.09614     -120.24591      0.96406932    -119.28184      551.37677    
      9000   211.51304     -120.19345      0.95690721    -119.23654      551.37677    
     10000   235.24551     -120.25609      1.0642754     -119.19182      551.37677    
     11000   285.57371     -120.44257      1.2919655     -119.1506       551.37677    
     12000   257.9016      -120.2799       1.1667739     -119.11313      515.67385    
     13000   274.61298     -120.32243      1.242378      -119.08005      515.67385    
     14000   217.14183     -120.03235      0.98237247    -119.04998      515.67385    
     15000   274.46684     -120.26341      1.2417168     -119.02169      515.67385    
     16000   204.84657     -119.92207      0.92674742    -118.99532      515.67385    
     17000   288.12516     -120.27264      1.3035085     -118.96913      515.67385    
     18000   225.31285     -119.96293      1.019339      -118.94359      515.67385    
     19000   245.69462     -120.0285       1.1115483     -118.91696      515.67385    
     20000   228.21426     -119.9222       1.0324653     -118.88973      554.2327     
     21000   331.51314     -120.36145      1.4998003     -118.86165      554.2327     
     22000   240.57043     -119.92132      1.0883659     -118.83296      499.23518    
     23000   266.69515     -120.00966      1.2065569     -118.8031       515.15734    
     24000   266.5293      -119.97894      1.2058065     -118.77313      515.15734    
     25000   240.28333     -119.82862      1.087067      -118.74155      515.15734    
     26000   301.49933     -120.07408      1.3640146     -118.71007      515.15734    
     27000   343.99415     -120.23329      1.5562657     -118.67702      515.15734    
     28000   264.84452     -119.84176      1.1981844     -118.64358      526.6256     
     29000   342.81554     -120.16242      1.5509335     -118.61148      552.79335    
     30000   266.30243     -119.78369      1.2047802     -118.57891      552.79335    
     31000   318.33319     -119.98863      1.4401728     -118.54846      577.48392    
     32000   280.829       -119.78965      1.2704999     -118.51915      577.48392    
     33000   306.65113     -119.87626      1.3873219     -118.48894      546.50781    
     34000   262.17121     -119.64679      1.1860901     -118.4607       528.90935    
     35000   279.81052     -119.69931      1.2658922     -118.43342      528.90935    
     36000   305.56844     -119.79048      1.3824238     -118.40806      528.90935    
     37000   321.11256     -119.83594      1.4527469     -118.38319      565.44631    
     38000   351.38184     -119.95068      1.5896884     -118.36099      565.44631    
     39000   244.27874     -119.44524      1.1051427     -118.3401       565.44631    
     40000   326.76176     -119.79943      1.4783046     -118.32113      565.44631    
     41000   351.08534     -119.89314      1.588347      -118.3048       551.99456    
     42000   314.74271     -119.71503      1.4239291     -118.2911       480.68173    
     43000   336.91304     -119.80362      1.52423       -118.27939      550.84228    
     44000   288.15455     -119.5729       1.3036415     -118.26926      550.84228    
     45000   346.09747     -119.82767      1.5657813     -118.26189      538.8669     
     46000   329.83646     -119.74963      1.4922148     -118.25741      538.8669     
     47000   286.21305     -119.55108      1.2948579     -118.25622      538.8669     
     48000   346.82084     -119.82748      1.5690539     -118.25842      584.20269    
     49000   358.11622     -119.88441      1.6201554     -118.26426      563.17153    
     50000   305.37041     -119.6555       1.3815278     -118.27397      519.19519    
Loop time of 0.996792 on 1 procs for 50000 steps with 36 atoms

Performance: 4333.903 ns/day, 0.006 hours/ns, 50160.916 timesteps/s
100.3% CPU use with 1 MPI tasks x 1 OpenMP threads

MPI task timing breakdown:
Section |  min time  |  avg time  |  max time  |%varavg| %total
---------------------------------------------------------------
Pair    | 0.89898    | 0.89898    | 0.89898    |   0.0 | 90.19
Neigh   | 0.000203   | 0.000203   | 0.000203   |   0.0 |  0.02
Comm    | 0.005066   | 0.005066   | 0.005066   |   0.0 |  0.51
Output  | 0.009229   | 0.009229   | 0.009229   |   0.0 |  0.93
Modify  | 0.069357   | 0.069357   | 0.069357   |   0.0 |  6.96
Other   |            | 0.01395    |            |       |  1.40

Nlocal:             36 ave          36 max          36 min
Histogram: 1 0 0 0 0 0 0 0 0 0
Nghost:              0 ave           0 max           0 min
Histogram: 1 0 0 0 0 0 0 0 0 0
Neighs:            569 ave         569 max         569 min
Histogram: 1 0 0 0 0 0 0 0 0 0

Total # of neighbors = 569
Ave neighs/atom = 15.805556
Neighbor list builds = 18
Dangerous builds = 0
Total wall time: 0:00:01
