LAMMPS (15 Sep 2022)
OMP_NUM_THREADS environment is not set. Defaulting to 1 thread. (src/comm.cpp:98)
  using 1 OpenMP thread(s) per MPI task
Loaded 1 plugins from C:\Users\becat\AppData\Local\LAMMPS 64-bit 15Sep2022\plugins
Lattice spacing in x,y,z = 4.079 4.079 4.079
Created orthogonal box = (0 0 0) to (40.79 40.79 40.79)
  1 by 1 by 1 MPI processor grid
Read molecule template np:
  1 molecules
  0 fragments
  34 atoms with max type 1
  0 bonds with max type 0
  0 angles with max type 0
  0 dihedrals with max type 0
  0 impropers with max type 0
Created 34 atoms
  using lattice units in orthogonal box = (16.34798 15.59254 16.608383) to (23.952523 24.703541 24.17401)
  create_atoms CPU = 0.000 seconds
Neighbor list info ...
  update: every = 1 steps, delay = 10 steps, check = yes
  max neighbors/atom: 2000, page size: 100000
  master list distance cutoff = 7.55
  ghost atom cutoff = 7.55
  binsize = 3.775, bins = 3 3 3
  1 neighbor lists, perpetual/occasional/extra = 1 0 0
  (1) pair eam, perpetual
      attributes: half, newton on
      pair build: half/bin/atomonly/newton
      stencil: half/bin/3d
      bin: standard
Setting up Verlet run ...
  Unit style    : metal
  Current step  : 0
  Time step     : 0.001
Per MPI rank memory allocation (min/avg/max) = 4.537 | 4.537 | 4.537 Mbytes
   Step          Temp          PotEng         KinEng         TotEng         Volume    
         0   300           -113.66579      1.2796754     -112.38612      524.18441    
      1000   187.20589     -113.18176      0.79854259    -112.38321      524.18441    
      2000   166.27897     -113.08353      0.70927705    -112.37425      524.18441    
      3000   228.6099      -113.33452      0.97515491    -112.35936      524.18441    
      4000   208.97543     -113.22977      0.89140243    -112.33837      524.18441    
      5000   199.92095     -113.16351      0.85277977    -112.31073      524.18441    
      6000   208.46157     -113.16635      0.88921051    -112.27714      524.18441    
      7000   200.74596     -113.09417      0.85629892    -112.23788      524.18441    
      8000   195.65988     -113.03253      0.83460382    -112.19793      524.18441    
      9000   194.53375     -112.98552      0.82980021    -112.15572      532.09106    
     10000   237.74915     -113.12942      1.0141392     -112.11528      532.09106    
     11000   213.68467     -112.98855      0.91149009    -112.07706      532.09106    
     12000   269.88641     -113.19112      1.1512234     -112.0399       488.87418    
     13000   270.1676      -113.15865      1.1524228     -112.00623      488.87418    
     14000   282.51923     -113.18125      1.2051097     -111.97614      488.87418    
     15000   262.62326     -113.06976      1.1202418     -111.94952      488.87418    
     16000   224.35315     -112.88169      0.95699739    -111.92469      488.87418    
     17000   279.4094      -113.09259      1.1918445     -111.90075      488.87418    
     18000   304.10503     -113.1729       1.2971858     -111.87571      488.87418    
     19000   279.76046     -113.04476      1.193342      -111.85142      488.87418    
     20000   312.40931     -113.15865      1.3326084     -111.82604      488.87418    
     21000   250.98944     -112.87015      1.0706168     -111.79953      488.87418    
     22000   320.23581     -113.13835      1.365993      -111.77236      488.87418    
     23000   291.65557     -112.98857      1.2440816     -111.74449      488.87418    
     24000   309.90061     -113.03797      1.3219073     -111.71606      488.87418    
     25000   257.67054     -112.78713      1.0991156     -111.68802      488.87418    
     26000   273.92629     -112.82753      1.1684558     -111.65908      488.87418    
     27000   275.92314     -112.80693      1.1769735     -111.62996      488.87418    
     28000   298.61397     -112.87393      1.2737632     -111.60016      488.87418    
     29000   319.33237     -112.93381      1.3621393     -111.57167      488.87418    
     30000   340.86511     -112.9974       1.453989      -111.54341      488.87418    
     31000   355.49146     -113.03249      1.516379      -111.51611      488.87418    
     32000   324.9917      -112.8758       1.3862796     -111.48952      488.87418    
     33000   342.16494     -112.92464      1.4595336     -111.46511      488.87418    
     34000   364.39703     -112.99719      1.5543664     -111.44282      488.87418    
     35000   318.01587     -112.77875      1.3565237     -111.42223      488.87418    
     36000   410.37703     -113.15308      1.750498      -111.40258      488.87418    
     37000   319.3886      -112.74726      1.3623791     -111.38488      488.87418    
     38000   347.64981     -112.85268      1.4829297     -111.36975      488.87418    
     39000   317.8268      -112.7124       1.3557172     -111.35668      488.87418    
     40000   319.11394     -112.70613      1.3612076     -111.34492      488.87418    
     41000   313.7339      -112.6738       1.3382585     -111.33555      488.87418    
     42000   394.74214     -113.01275      1.6838061     -111.32895      488.87418    
     43000   333.22388     -112.74617      1.4213947     -111.32478      489.34114    
     44000   388.68133     -112.98016      1.6579532     -111.32221      502.9913     
     45000   294.44954     -112.57868      1.2559995     -111.32268      502.9913     
     46000   355.22119     -112.84153      1.5152261     -111.3263       502.9913     
     47000   440.47199     -113.2113       1.8788706     -111.33243      502.9913     
     48000   318.68732     -112.70136      1.3593878     -111.34197      502.9913     
     49000   312.12902     -112.68684      1.3314128     -111.35543      502.9913     
     50000   305.9688      -112.67782      1.3051358     -111.37269      502.9913     
Loop time of 1.15635 on 1 procs for 50000 steps with 34 atoms

Performance: 3735.887 ns/day, 0.006 hours/ns, 43239.429 timesteps/s
98.6% CPU use with 1 MPI tasks x 1 OpenMP threads

MPI task timing breakdown:
Section |  min time  |  avg time  |  max time  |%varavg| %total
---------------------------------------------------------------
Pair    | 1.0399     | 1.0399     | 1.0399     |   0.0 | 89.93
Neigh   | 5.9e-05    | 5.9e-05    | 5.9e-05    |   0.0 |  0.01
Comm    | 0.00615    | 0.00615    | 0.00615    |   0.0 |  0.53
Output  | 0.008563   | 0.008563   | 0.008563   |   0.0 |  0.74
Modify  | 0.084926   | 0.084926   | 0.084926   |   0.0 |  7.34
Other   |            | 0.0168     |            |       |  1.45

Nlocal:             34 ave          34 max          34 min
Histogram: 1 0 0 0 0 0 0 0 0 0
Nghost:              0 ave           0 max           0 min
Histogram: 1 0 0 0 0 0 0 0 0 0
Neighs:            510 ave         510 max         510 min
Histogram: 1 0 0 0 0 0 0 0 0 0

Total # of neighbors = 510
Ave neighs/atom = 15
Neighbor list builds = 5
Dangerous builds = 0
Total wall time: 0:00:01
