LAMMPS (15 Sep 2022)
OMP_NUM_THREADS environment is not set. Defaulting to 1 thread. (src/comm.cpp:98)
  using 1 OpenMP thread(s) per MPI task
Loaded 1 plugins from C:\Users\becat\AppData\Local\LAMMPS 64-bit 15Sep2022\plugins
Lattice spacing in x,y,z = 4.079 4.079 4.079
Created orthogonal box = (0 0 0) to (40.79 40.79 40.79)
  1 by 1 by 1 MPI processor grid
Read molecule template np:
  1 molecules
  0 fragments
  36 atoms with max type 1
  0 bonds with max type 0
  0 angles with max type 0
  0 dihedrals with max type 0
  0 impropers with max type 0
Created 36 atoms
  using lattice units in orthogonal box = (16.069594 16.009316 16.048101) to (24.21457 23.865286 24.90947)
  create_atoms CPU = 0.000 seconds
Neighbor list info ...
  update: every = 1 steps, delay = 10 steps, check = yes
  max neighbors/atom: 2000, page size: 100000
  master list distance cutoff = 7.55
  ghost atom cutoff = 7.55
  binsize = 3.775, bins = 3 3 3
  1 neighbor lists, perpetual/occasional/extra = 1 0 0
  (1) pair eam, perpetual
      attributes: half, newton on
      pair build: half/bin/atomonly/newton
      stencil: half/bin/3d
      bin: standard
Setting up Verlet run ...
  Unit style    : metal
  Current step  : 0
  Time step     : 0.001
Per MPI rank memory allocation (min/avg/max) = 4.537 | 4.537 | 4.537 Mbytes
   Step          Temp          PotEng         KinEng         TotEng         Volume    
         0   300           -120.87475      1.3572315     -119.51752      567.00958    
      1000   194.30483     -120.39358      0.87905546    -119.51452      567.00958    
      2000   234.63066     -120.56655      1.0614938     -119.50506      567.00958    
      3000   185.98615     -120.33072      0.84142089    -119.4893       567.00958    
      4000   203.87733     -120.38998      0.92236248    -119.46762      499.64546    
      5000   242.77129     -120.5376       1.0983228     -119.43928      499.64546    
      6000   200.59369     -120.31121      0.90750692    -119.4037       499.64546    
      7000   168.29676     -120.12657      0.76139222    -119.36517      533.11412    
      8000   211.67685     -120.27883      0.9576483     -119.32118      533.11412    
      9000   204.79858     -120.20368      0.92653028    -119.27715      533.11412    
     10000   235.65669     -120.29888      1.0661356     -119.23274      501.90793    
     11000   240.94395     -120.2812       1.0900557     -119.19114      501.90793    
     12000   201.88053     -120.06944      0.91332873    -119.15611      482.73574    
     13000   258.11691     -120.29062      1.167748      -119.12287      482.73574    
     14000   255.94773     -120.25102      1.1579344     -119.09308      482.73574    
     15000   249.10905     -120.19206      1.1269955     -119.06507      482.73574    
     16000   280.96103     -120.30846      1.2710972     -119.03736      475.1934     
     17000   262.33248     -120.19628      1.1868197     -119.00946      487.53148    
     18000   227.89512     -120.01291      1.0310215     -118.98189      487.53148    
     19000   272.13026     -120.18478      1.2311459     -118.95363      487.53148    
     20000   234.31387     -119.98442      1.0600606     -118.92436      487.53148    
     21000   238.63328     -119.97418      1.079602      -118.89458      571.71835    
     22000   268.87427     -120.07915      1.2164155     -118.86273      571.71835    
     23000   295.91508     -120.16737      1.3387509     -118.82862      540.0477     
     24000   282.05826     -120.06941      1.2760612     -118.79335      540.0477     
     25000   300.34708     -120.11729      1.3588017     -118.75849      540.0477     
     26000   331.54104     -120.22252      1.4999265     -118.7226       540.0477     
     27000   277.02805     -119.93993      1.253304      -118.68663      524.9642     
     28000   247.93058     -119.77235      1.121664      -118.65069      524.9642     
     29000   316.91444     -120.04971      1.4337542     -118.61596      524.9642     
     30000   315.41513     -120.00843      1.4269712     -118.58146      524.9642     
     31000   274.67783     -119.79111      1.2426714     -118.54844      527.76499    
     32000   292.30356     -119.83902      1.322412      -118.51661      562.94407    
     33000   316.63912     -119.91815      1.4325086     -118.48564      562.94407    
     34000   329.73014     -119.948        1.4917338     -118.45626      543.19229    
     35000   301.1386      -119.79152      1.3623827     -118.42914      503.36042    
     36000   285.21465     -119.69334      1.2903411     -118.403        503.36042    
     37000   323.65795     -119.84363      1.4642626     -118.37937      503.36042    
     38000   327.93022     -119.84125      1.4835908     -118.35766      503.36042    
     39000   304.96955     -119.71796      1.3797143     -118.33825      503.36042    
     40000   360.84798     -119.95355      1.6325142     -118.32103      503.36042    
     41000   309.59408     -119.70691      1.4006361     -118.30627      545.00217    
     42000   362.15269     -119.93241      1.6384168     -118.29399      500.90399    
     43000   324.9048      -119.75435      1.4699035     -118.28444      500.90399    
     44000   291.36929     -119.59552      1.3181853     -118.27734      500.90399    
     45000   326.52481     -119.74998      1.4772326     -118.27274      531.84028    
     46000   331.3714      -119.76869      1.499159      -118.26953      531.84028    
     47000   343.01221     -119.81898      1.5518233     -118.26716      526.51837    
     48000   306.65245     -119.65419      1.3873279     -118.26687      536.34223    
     49000   308.5566      -119.66519      1.3959425     -118.26925      536.34223    
     50000   307.6558      -119.66664      1.3918672     -118.27477      536.34223    
Loop time of 1.20779 on 1 procs for 50000 steps with 36 atoms

Performance: 3576.772 ns/day, 0.007 hours/ns, 41397.822 timesteps/s
99.6% CPU use with 1 MPI tasks x 1 OpenMP threads

MPI task timing breakdown:
Section |  min time  |  avg time  |  max time  |%varavg| %total
---------------------------------------------------------------
Pair    | 1.0941     | 1.0941     | 1.0941     |   0.0 | 90.59
Neigh   | 0.000217   | 0.000217   | 0.000217   |   0.0 |  0.02
Comm    | 0.005937   | 0.005937   | 0.005937   |   0.0 |  0.49
Output  | 0.010896   | 0.010896   | 0.010896   |   0.0 |  0.90
Modify  | 0.07946    | 0.07946    | 0.07946    |   0.0 |  6.58
Other   |            | 0.01719    |            |       |  1.42

Nlocal:             36 ave          36 max          36 min
Histogram: 1 0 0 0 0 0 0 0 0 0
Nghost:              0 ave           0 max           0 min
Histogram: 1 0 0 0 0 0 0 0 0 0
Neighs:            564 ave         564 max         564 min
Histogram: 1 0 0 0 0 0 0 0 0 0

Total # of neighbors = 564
Ave neighs/atom = 15.666667
Neighbor list builds = 19
Dangerous builds = 0
Total wall time: 0:00:01
