LAMMPS (15 Sep 2022)
OMP_NUM_THREADS environment is not set. Defaulting to 1 thread. (src/comm.cpp:98)
  using 1 OpenMP thread(s) per MPI task
Loaded 1 plugins from C:\Users\becat\AppData\Local\LAMMPS 64-bit 15Sep2022\plugins
Lattice spacing in x,y,z = 4.079 4.079 4.079
Created orthogonal box = (0 0 0) to (40.79 40.79 40.79)
  1 by 1 by 1 MPI processor grid
Read molecule template np:
  1 molecules
  0 fragments
  454 atoms with max type 1
  0 bonds with max type 0
  0 angles with max type 0
  0 dihedrals with max type 0
  0 impropers with max type 0
Created 454 atoms
  using lattice units in orthogonal box = (7.8187256 7.1461105 9.9221073) to (34.647 33.724627 30.867893)
  create_atoms CPU = 0.000 seconds
Neighbor list info ...
  update: every = 1 steps, delay = 10 steps, check = yes
  max neighbors/atom: 2000, page size: 100000
  master list distance cutoff = 7.55
  ghost atom cutoff = 7.55
  binsize = 3.775, bins = 8 8 6
  1 neighbor lists, perpetual/occasional/extra = 1 0 0
  (1) pair eam, perpetual
      attributes: half, newton on
      pair build: half/bin/atomonly/newton
      stencil: half/bin/3d
      bin: standard
Setting up Verlet run ...
  Unit style    : metal
  Current step  : 0
  Time step     : 0.001
Per MPI rank memory allocation (min/avg/max) = 4.564 | 4.564 | 4.564 Mbytes
   Step          Temp          PotEng         KinEng         TotEng         Volume    
         0   300           -1659.0193      17.566454     -1641.4528      14935.513    
      1000   299.16016     -1658.9746      17.517277     -1641.4573      13423.864    
      2000   314.45679     -1659.8776      18.412969     -1641.4646      13423.864    
      3000   332.79206     -1660.9656      19.486588     -1641.479       13820.601    
      4000   289.56142     -1658.4545      16.955224     -1641.4992      13259.02     
      5000   302.82482     -1659.2548      17.731861     -1641.523       13301.855    
      6000   299.02875     -1659.0635      17.509582     -1641.5539      13008.96     
      7000   317.33795     -1660.17        18.581675     -1641.5883      13417.047    
      8000   304.84586     -1659.4807      17.850202     -1641.6305      13417.047    
      9000   300.39967     -1659.2697      17.589856     -1641.6799      13434.762    
     10000   309.11115     -1659.839       18.099956     -1641.7391      13434.762    
     11000   293.17749     -1658.9756      17.166963     -1641.8086      13434.762    
     12000   300.42842     -1659.4797      17.59154      -1641.8882      13434.762    
     13000   302.04174     -1659.6661      17.686008     -1641.98        13434.762    
     14000   303.70635     -1659.8693      17.783478     -1642.0858      13059.822    
     15000   295.18743     -1659.4915      17.284654     -1642.2068      13059.822    
     16000   303.93733     -1660.1403      17.797003     -1642.3432      13059.822    
     17000   300.04723     -1660.0623      17.569219     -1642.4931      13059.822    
     18000   306.28674     -1660.5915      17.934573     -1642.6569      13059.822    
     19000   292.51104     -1659.957       17.127939     -1642.829       13059.822    
     20000   289.16596     -1659.9378      16.932068     -1643.0057      13059.822    
     21000   281.52526     -1659.6638      16.484668     -1643.1791      13059.822    
     22000   291.63045     -1660.422       17.076376     -1643.3456      13059.822    
     23000   290.0282      -1660.4816      16.982557     -1643.4991      13059.822    
     24000   276.98218     -1659.8543      16.218649     -1643.6356      13059.822    
     25000   272.34892     -1659.7001      15.947349     -1643.7528      13059.822    
     26000   271.23819     -1659.7313      15.882311     -1643.8489      13059.822    
     27000   287.94811     -1660.7845      16.860757     -1643.9237      13059.822    
     28000   293.55942     -1661.1672      17.189327     -1643.9779      13059.822    
     29000   294.3046      -1661.2452      17.23296      -1644.0123      13059.822    
     30000   283.17339     -1660.6086      16.581174     -1644.0275      13059.822    
     31000   258.48625     -1659.1596      15.135623     -1644.024       13059.822    
     32000   292.15963     -1661.11        17.107362     -1644.0026      13059.822    
     33000   291.2432      -1661.0174      17.053701     -1643.9637      13059.822    
     34000   285.24622     -1660.6098      16.702549     -1643.9072      13059.822    
     35000   298.94444     -1661.3385      17.504646     -1643.8338      13059.822    
     36000   286.80048     -1660.537       16.793558     -1643.7434      13059.822    
     37000   290.57555     -1660.6504      17.014606     -1643.6358      13059.822    
     38000   291.55899     -1660.5861      17.072192     -1643.5139      13059.822    
     39000   285.92263     -1660.1217      16.742155     -1643.3795      13059.822    
     40000   285.85053     -1659.9733      16.737934     -1643.2353      13059.822    
     41000   298.68358     -1660.5756      17.489371     -1643.0862      13059.822    
     42000   298.34478     -1660.4063      17.469533     -1642.9368      13059.822    
     43000   292.23548     -1659.906       17.111803     -1642.7942      13059.822    
     44000   288.52308     -1659.5585      16.894424     -1642.6641      13059.822    
     45000   303.21204     -1660.3053      17.754534     -1642.5508      13059.822    
     46000   285.7027      -1659.1839      16.729277     -1642.4546      13059.822    
     47000   285.32193     -1659.0836      16.706982     -1642.3767      13059.822    
     48000   299.50798     -1659.8511      17.537643     -1642.3135      13059.822    
     49000   309.26909     -1660.3706      18.109204     -1642.2614      13059.822    
     50000   305.48707     -1660.1062      17.887748     -1642.2185      13059.822    
Loop time of 28.4902 on 1 procs for 50000 steps with 454 atoms

Performance: 151.631 ns/day, 0.158 hours/ns, 1754.988 timesteps/s
99.8% CPU use with 1 MPI tasks x 1 OpenMP threads

MPI task timing breakdown:
Section |  min time  |  avg time  |  max time  |%varavg| %total
---------------------------------------------------------------
Pair    | 27.807     | 27.807     | 27.807     |   0.0 | 97.60
Neigh   | 0.005353   | 0.005353   | 0.005353   |   0.0 |  0.02
Comm    | 0.009272   | 0.009272   | 0.009272   |   0.0 |  0.03
Output  | 0.086623   | 0.086623   | 0.086623   |   0.0 |  0.30
Modify  | 0.48425    | 0.48425    | 0.48425    |   0.0 |  1.70
Other   |            | 0.0978     |            |       |  0.34

Nlocal:            454 ave         454 max         454 min
Histogram: 1 0 0 0 0 0 0 0 0 0
Nghost:              0 ave           0 max           0 min
Histogram: 1 0 0 0 0 0 0 0 0 0
Neighs:          15925 ave       15925 max       15925 min
Histogram: 1 0 0 0 0 0 0 0 0 0

Total # of neighbors = 15925
Ave neighs/atom = 35.077093
Neighbor list builds = 9
Dangerous builds = 0
Total wall time: 0:00:28
