LAMMPS (15 Sep 2022)
OMP_NUM_THREADS environment is not set. Defaulting to 1 thread. (src/comm.cpp:98)
  using 1 OpenMP thread(s) per MPI task
Loaded 1 plugins from C:\Users\becat\AppData\Local\LAMMPS 64-bit 15Sep2022\plugins
Lattice spacing in x,y,z = 4.079 4.079 4.079
Created orthogonal box = (0 0 0) to (40.79 40.79 40.79)
  1 by 1 by 1 MPI processor grid
Read molecule template np:
  1 molecules
  0 fragments
  586 atoms with max type 1
  0 bonds with max type 0
  0 angles with max type 0
  0 dihedrals with max type 0
  0 impropers with max type 0
Created 586 atoms
  using lattice units in orthogonal box = (7.5412757 6.9082727 6.7450398) to (33.248724 33.881727 34.04496)
  create_atoms CPU = 0.000 seconds
Neighbor list info ...
  update: every = 1 steps, delay = 10 steps, check = yes
  max neighbors/atom: 2000, page size: 100000
  master list distance cutoff = 7.55
  ghost atom cutoff = 7.55
  binsize = 3.775, bins = 7 8 8
  1 neighbor lists, perpetual/occasional/extra = 1 0 0
  (1) pair eam, perpetual
      attributes: half, newton on
      pair build: half/bin/atomonly/newton
      stencil: half/bin/3d
      bin: standard
Setting up Verlet run ...
  Unit style    : metal
  Current step  : 0
  Time step     : 0.001
Per MPI rank memory allocation (min/avg/max) = 4.572 | 4.572 | 4.572 Mbytes
   Step          Temp          PotEng         KinEng         TotEng         Volume    
         0   300           -2160.9919      22.685155     -2138.3067      18930.275    
      1000   281.53818     -2159.5686      21.289125     -2138.2795      18930.275    
      2000   252.32911     -2157.2727      19.080417     -2138.1923      18930.275    
      3000   264.86956     -2158.0754      20.02869      -2138.0467      18930.275    
      4000   265.42058     -2157.9141      20.070357     -2137.8438      18930.275    
      5000   251.10718     -2156.584       18.988018     -2137.5959      18930.275    
      6000   281.49697     -2158.6063      21.286008     -2137.3203      18930.275    
      7000   268.22788     -2157.3264      20.282637     -2137.0438      18930.275    
      8000   242.71378     -2155.1424      18.353333     -2136.789       18930.275    
      9000   264.4872      -2156.5582      19.999777     -2136.5584      18930.275    
     10000   268.83655     -2156.6787      20.328663     -2136.3501      18930.275    
     11000   271.5259      -2156.6857      20.532024     -2136.1536      18930.275    
     12000   280.65539     -2157.1811      21.222371     -2135.9587      17713.194    
     13000   279.20519     -2156.8721      21.11271      -2135.7594      17110.97     
     14000   281.92384     -2156.8695      21.318287     -2135.5512      17110.97     
     15000   268.51505     -2155.6359      20.304353     -2135.3315      17110.97     
     16000   263.11581     -2154.9987      19.896077     -2135.1026      17110.97     
     17000   267.57182     -2155.0975      20.233028     -2134.8645      17110.97     
     18000   275.09242     -2155.4225      20.801714     -2134.6208      17110.97     
     19000   298.23627     -2156.9241      22.551787     -2134.3723      17110.97     
     20000   289.327       -2156.0013      21.878093     -2134.1232      17110.97     
     21000   262.53272     -2153.7252      19.851985     -2133.8732      17110.97     
     22000   289.90942     -2155.5492      21.922134     -2133.627       17110.97     
     23000   287.13035     -2155.0951      21.711989     -2133.3831      17110.97     
     24000   290.43166     -2155.1056      21.961625     -2133.144       17110.97     
     25000   286.54397     -2154.5781      21.667649     -2132.9104      17366.503    
     26000   287.05689     -2154.3891      21.706434     -2132.6826      17366.503    
     27000   289.55346     -2154.3534      21.895217     -2132.4581      17366.503    
     28000   288.80877     -2154.0805      21.838906     -2132.2416      17366.503    
     29000   292.50024     -2154.1468      22.118044     -2132.0287      17366.503    
     30000   301.85973     -2154.6494      22.825783     -2131.8236      17245.258    
     31000   303.81561     -2154.5972      22.973681     -2131.6235      17245.258    
     32000   300.67639     -2154.1684      22.736302     -2131.4321      17318.292    
     33000   299.14705     -2153.8673      22.620658     -2131.2466      17119.451    
     34000   305.62606     -2154.1796      23.110582     -2131.069       17119.451    
     35000   302.96307     -2153.8086      22.909215     -2130.8994      17119.451    
     36000   303.73212     -2153.7063      22.967368     -2130.739       17119.451    
     37000   320.55732     -2154.8266      24.239642     -2130.587       17119.451    
     38000   307.66604     -2153.7092      23.26484      -2130.4444      17119.451    
     39000   311.63769     -2153.8762      23.565165     -2130.3111      17119.451    
     40000   301.4969      -2152.9857      22.798347     -2130.1874      17359.15     
     41000   300.79058     -2152.8196      22.744937     -2130.0746      17359.15     
     42000   307.96224     -2153.2597      23.287237     -2129.9725      17359.15     
     43000   308.75361     -2153.2281      23.347079     -2129.881       17398.929    
     44000   303.40894     -2152.7439      22.94293      -2129.801       17398.929    
     45000   325.16631     -2154.3206      24.588161     -2129.7324      17398.929    
     46000   304.97579     -2152.738       23.06141      -2129.6766      17398.929    
     47000   306.40087     -2152.803       23.169171     -2129.6339      17398.929    
     48000   301.35918     -2152.3918      22.787933     -2129.6039      17398.929    
     49000   308.75388     -2152.9353      23.347099     -2129.5882      17398.929    
     50000   311.3943      -2153.1325      23.546761     -2129.5857      17398.929    
Loop time of 28.9119 on 1 procs for 50000 steps with 586 atoms

Performance: 149.419 ns/day, 0.161 hours/ns, 1729.391 timesteps/s
100.0% CPU use with 1 MPI tasks x 1 OpenMP threads

MPI task timing breakdown:
Section |  min time  |  avg time  |  max time  |%varavg| %total
---------------------------------------------------------------
Pair    | 28.254     | 28.254     | 28.254     |   0.0 | 97.72
Neigh   | 0.005422   | 0.005422   | 0.005422   |   0.0 |  0.02
Comm    | 0.005867   | 0.005867   | 0.005867   |   0.0 |  0.02
Output  | 0.087466   | 0.087466   | 0.087466   |   0.0 |  0.30
Modify  | 0.4709     | 0.4709     | 0.4709     |   0.0 |  1.63
Other   |            | 0.0886     |            |       |  0.31

Nlocal:            586 ave         586 max         586 min
Histogram: 1 0 0 0 0 0 0 0 0 0
Nghost:              0 ave           0 max           0 min
Histogram: 1 0 0 0 0 0 0 0 0 0
Neighs:          21045 ave       21045 max       21045 min
Histogram: 1 0 0 0 0 0 0 0 0 0

Total # of neighbors = 21045
Ave neighs/atom = 35.912969
Neighbor list builds = 10
Dangerous builds = 0
Total wall time: 0:00:28
