LAMMPS (15 Sep 2022)
OMP_NUM_THREADS environment is not set. Defaulting to 1 thread. (src/comm.cpp:98)
  using 1 OpenMP thread(s) per MPI task
Loaded 1 plugins from C:\Users\becat\AppData\Local\LAMMPS 64-bit 15Sep2022\plugins
Lattice spacing in x,y,z = 4.079 4.079 4.079
Created orthogonal box = (0 0 0) to (40.79 40.79 40.79)
  1 by 1 by 1 MPI processor grid
Read molecule template np:
  1 molecules
  0 fragments
  28 atoms with max type 1
  0 bonds with max type 0
  0 angles with max type 0
  0 dihedrals with max type 0
  0 impropers with max type 0
Created 28 atoms
  using lattice units in orthogonal box = (16.245073 16.340201 16.851441) to (24.761606 24.827693 23.639099)
  create_atoms CPU = 0.000 seconds
Neighbor list info ...
  update: every = 1 steps, delay = 10 steps, check = yes
  max neighbors/atom: 2000, page size: 100000
  master list distance cutoff = 7.55
  ghost atom cutoff = 7.55
  binsize = 3.775, bins = 3 3 2
  1 neighbor lists, perpetual/occasional/extra = 1 0 0
  (1) pair eam, perpetual
      attributes: half, newton on
      pair build: half/bin/atomonly/newton
      stencil: half/bin/3d
      bin: standard
Setting up Verlet run ...
  Unit style    : metal
  Current step  : 0
  Time step     : 0.001
Per MPI rank memory allocation (min/avg/max) = 4.536 | 4.536 | 4.536 Mbytes
   Step          Temp          PotEng         KinEng         TotEng         Volume    
         0   300           -82.12247       1.0470072     -81.075463      490.63912    
      1000   1079.2381     -84.949092      3.7665667     -81.182525      443.04462    
      2000   1318.8931     -86.18837       4.6029683     -81.585401      368.6795     
      3000   1147.1942     -86.163973      4.0037351     -82.160238      451.66055    
      4000   1212.043      -86.890049      4.2300589     -82.65999       465.02942    
      5000   1287.1063     -87.598771      4.4920317     -83.106739      399.67977    
      6000   1130.848      -87.512177      3.9466866     -83.565491      463.00123    
      7000   1001.7162     -87.502284      3.4960135     -84.006271      400.74595    
      8000   957.39428     -87.798398      3.3413289     -84.457069      403.07365    
      9000   880.34797     -87.920419      3.0724355     -84.847983      438.03282    
     10000   1084.8878     -89.083154      3.7862842     -85.29687       372.39867    
     11000   740.06834     -88.360294      2.5828562     -85.777438      431.4728     
     12000   677.3992      -88.592471      2.3641394     -86.228332      424.94686    
     13000   788.25407     -89.3789        2.7510255     -86.627875      366.91154    
     14000   652.97431     -89.284186      2.278896      -87.00529       391.76116    
     15000   859.65108     -90.341381      3.0002028     -87.341179      309.96264    
     16000   781.39334     -90.388354      2.7270814     -87.661273      351.20309    
     17000   572.42995     -89.965948      1.9977942     -87.968154      333.00009    
     18000   607.03337     -90.360399      2.118561      -88.241838      320.82809    
     19000   643.81081     -90.736556      2.2469151     -88.489641      389.35123    
     20000   511.15276     -90.509556      1.7839353     -88.725621      353.86203    
     21000   576.20185     -90.951019      2.0109582     -88.940061      346.95024    
     22000   406.00829     -90.554479      1.4169786     -89.137501      338.55116    
     23000   600.14347     -91.416559      2.0945151     -89.322044      338.55116    
     24000   327.98181     -90.638902      1.1446644     -89.494238      372.87478    
     25000   411.56491     -91.083016      1.4363714     -89.646645      425.34735    
     26000   385.41451     -91.138275      1.3451059     -89.793169      398.03655    
     27000   418.76645     -91.398973      1.4615049     -89.937468      398.03655    
     28000   465.45177     -91.691023      1.6244378     -90.066585      373.84936    
     29000   367.42874     -91.469356      1.2823351     -90.187021      373.84936    
     30000   299.32572     -91.342751      1.0446539     -90.298097      373.84936    
     31000   351.10541     -91.629931      1.2253663     -90.404565      425.70312    
     32000   337.29036     -91.678374      1.1771514     -90.501222      402.47935    
     33000   400.20326     -91.992274      1.3967189     -90.595556      402.47935    
     34000   369.9392      -91.972324      1.2910967     -90.681227      382.58552    
     35000   316.37301     -91.865318      1.1041494     -90.761168      382.58552    
     36000   324.4272      -91.967676      1.1322587     -90.835417      382.58552    
     37000   297.48419     -91.940923      1.0382269     -90.902696      400.98675    
     38000   269.43555     -91.904479      0.9403365     -90.964143      400.98675    
     39000   268.30311     -91.957863      0.93638425    -91.021479      400.98675    
     40000   249.06881     -91.942128      0.86925611    -91.072872      400.98675    
     41000   197.09414     -91.807867      0.68786326    -91.120004      392.90609    
     42000   226.13256     -91.951003      0.78920803    -91.161795      392.90609    
     43000   221.59536     -91.973766      0.77337311    -91.200393      392.90609    
     44000   217.28021     -91.992413      0.75831312    -91.2341        392.90609    
     45000   245.64198     -92.121389      0.8572964     -91.264092      392.90609    
     46000   230.71116     -92.095352      0.80518747    -91.290164      392.90609    
     47000   235.70562     -92.134226      0.82261824    -91.311607      392.90609    
     48000   212.7169      -92.071699      0.74238706    -91.329312      392.90609    
     49000   168.92884     -91.932769      0.58956571    -91.343203      392.90609    
     50000   189.29674     -92.013788      0.66065015    -91.353138      392.90609    
Loop time of 0.946114 on 1 procs for 50000 steps with 28 atoms

Performance: 4566.046 ns/day, 0.005 hours/ns, 52847.754 timesteps/s
99.1% CPU use with 1 MPI tasks x 1 OpenMP threads

MPI task timing breakdown:
Section |  min time  |  avg time  |  max time  |%varavg| %total
---------------------------------------------------------------
Pair    | 0.82869    | 0.82869    | 0.82869    |   0.0 | 87.59
Neigh   | 0.000691   | 0.000691   | 0.000691   |   0.0 |  0.07
Comm    | 0.006559   | 0.006559   | 0.006559   |   0.0 |  0.69
Output  | 0.009965   | 0.009965   | 0.009965   |   0.0 |  1.05
Modify  | 0.081471   | 0.081471   | 0.081471   |   0.0 |  8.61
Other   |            | 0.01874    |            |       |  1.98

Nlocal:             28 ave          28 max          28 min
Histogram: 1 0 0 0 0 0 0 0 0 0
Nghost:              0 ave           0 max           0 min
Histogram: 1 0 0 0 0 0 0 0 0 0
Neighs:            360 ave         360 max         360 min
Histogram: 1 0 0 0 0 0 0 0 0 0

Total # of neighbors = 360
Ave neighs/atom = 12.857143
Neighbor list builds = 93
Dangerous builds = 0
Total wall time: 0:00:00
