LAMMPS (15 Sep 2022)
OMP_NUM_THREADS environment is not set. Defaulting to 1 thread. (src/comm.cpp:98)
  using 1 OpenMP thread(s) per MPI task
Loaded 1 plugins from C:\Users\becat\AppData\Local\LAMMPS 64-bit 15Sep2022\plugins
Lattice spacing in x,y,z = 4.079 4.079 4.079
Created orthogonal box = (0 0 0) to (40.79 40.79 40.79)
  1 by 1 by 1 MPI processor grid
Read molecule template np:
  1 molecules
  0 fragments
  33 atoms with max type 1
  0 bonds with max type 0
  0 angles with max type 0
  0 dihedrals with max type 0
  0 impropers with max type 0
Created 33 atoms
  using lattice units in orthogonal box = (16.877676 16.053246 16.766838) to (24.56783 24.33877 24.205027)
  create_atoms CPU = 0.000 seconds
Neighbor list info ...
  update: every = 1 steps, delay = 10 steps, check = yes
  max neighbors/atom: 2000, page size: 100000
  master list distance cutoff = 7.55
  ghost atom cutoff = 7.55
  binsize = 3.775, bins = 3 3 2
  1 neighbor lists, perpetual/occasional/extra = 1 0 0
  (1) pair eam, perpetual
      attributes: half, newton on
      pair build: half/bin/atomonly/newton
      stencil: half/bin/3d
      bin: standard
Setting up Verlet run ...
  Unit style    : metal
  Current step  : 0
  Time step     : 0.001
Per MPI rank memory allocation (min/avg/max) = 4.536 | 4.536 | 4.536 Mbytes
   Step          Temp          PotEng         KinEng         TotEng         Volume    
         0   300           -110.07064      1.2408974     -108.82974      473.93877    
      1000   192.41153     -109.6229       0.79587653    -108.82702      473.93877    
      2000   172.72866     -109.53319      0.71446181    -108.81873      473.93877    
      3000   149.97204     -109.42478      0.62033305    -108.80445      473.93877    
      4000   224.39599     -109.71246      0.92817465    -108.78428      473.93877    
      5000   189.71303     -109.54319      0.78471466    -108.75847      473.93877    
      6000   218.61121     -109.62936      0.90424695    -108.72512      486.78633    
      7000   223.69434     -109.6123       0.92527241    -108.68702      486.78633    
      8000   223.08253     -109.56732      0.92274178    -108.64458      486.78633    
      9000   253.9979      -109.65221      1.0506178     -108.6016       485.43326    
     10000   253.36849     -109.60801      1.0480143     -108.56         485.43326    
     11000   217.45812     -109.41916      0.8994774     -108.51969      485.43326    
     12000   247.41148     -109.50572      1.0233742     -108.48235      477.33241    
     13000   254.47109     -109.50296      1.052575      -108.45038      477.33241    
     14000   288.14342     -109.61485      1.1918547     -108.423        477.33241    
     15000   291.22775     -109.60323      1.2046125     -108.39862      477.33241    
     16000   303.80263     -109.63286      1.2566263     -108.37623      477.33241    
     17000   241.64324     -109.35542      0.9995149     -108.35591      477.33241    
     18000   275.65484     -109.47676      1.1401979     -108.33656      477.33241    
     19000   309.76788     -109.5988       1.2813005     -108.31749      477.33241    
     20000   266.75913     -109.40219      1.1034024     -108.29879      477.33241    
     21000   292.30909     -109.489        1.2090853     -108.27992      477.33241    
     22000   314.0435      -109.55998      1.2989859     -108.26099      477.33241    
     23000   296.56348     -109.46885      1.2266828     -108.24217      477.33241    
     24000   292.76948     -109.43401      1.2109896     -108.22302      477.33241    
     25000   292.02178     -109.41134      1.2078969     -108.20345      477.33241    
     26000   288.22186     -109.37618      1.1921792     -108.184        477.33241    
     27000   289.90857     -109.36309      1.199156      -108.16393      477.33241    
     28000   333.21915     -109.52249      1.3783026     -108.14419      477.33241    
     29000   253.15661     -109.17242      1.0471379     -108.12528      477.33241    
     30000   280.60686     -109.26558      1.1606811     -108.1049       477.33241    
     31000   283.88185     -109.25986      1.1742275     -108.08564      477.33241    
     32000   295.62655     -109.28704      1.2228074     -108.06424      477.33241    
     33000   389.40875     -109.65463      1.610721      -108.04391      477.33241    
     34000   349.75431     -109.4711       1.4466974     -108.0244       477.33241    
     35000   352.58172     -109.46416      1.4583925     -108.00576      477.33241    
     36000   332.98194     -109.3657       1.3773214     -107.98838      477.33241    
     37000   270.66745     -109.09196      1.1195685     -107.97239      477.33241    
     38000   354.39241     -109.4237       1.4658821     -107.95782      477.33241    
     39000   327.90721     -109.30101      1.3563307     -107.94468      477.33241    
     40000   353.28682     -109.39408      1.461309      -107.93277      477.33241    
     41000   312.24798     -109.21446      1.291559      -107.9229       477.33241    
     42000   332.56092     -109.29061      1.3755799     -107.91503      477.33241    
     43000   331.62334     -109.28134      1.3717018     -107.90963      477.33241    
     44000   365.1348      -109.417        1.5103161     -107.90668      477.33241    
     45000   292.80148     -109.11767      1.211122      -107.90655      477.33241    
     46000   294.50476     -109.12747      1.2181673     -107.90931      477.33241    
     47000   323.07382     -109.25099      1.3363382     -107.91466      477.33241    
     48000   359.98957     -109.41276      1.4890337     -107.92372      477.33241    
     49000   369.73228     -109.46617      1.5293327     -107.93683      477.33241    
     50000   313.20625     -109.25037      1.2955227     -107.95484      477.33241    
Loop time of 1.19311 on 1 procs for 50000 steps with 33 atoms

Performance: 3620.795 ns/day, 0.007 hours/ns, 41907.355 timesteps/s
99.5% CPU use with 1 MPI tasks x 1 OpenMP threads

MPI task timing breakdown:
Section |  min time  |  avg time  |  max time  |%varavg| %total
---------------------------------------------------------------
Pair    | 1.0671     | 1.0671     | 1.0671     |   0.0 | 89.44
Neigh   | 3.9e-05    | 3.9e-05    | 3.9e-05    |   0.0 |  0.00
Comm    | 0.006778   | 0.006778   | 0.006778   |   0.0 |  0.57
Output  | 0.012535   | 0.012535   | 0.012535   |   0.0 |  1.05
Modify  | 0.088708   | 0.088708   | 0.088708   |   0.0 |  7.44
Other   |            | 0.01794    |            |       |  1.50

Nlocal:             33 ave          33 max          33 min
Histogram: 1 0 0 0 0 0 0 0 0 0
Nghost:              0 ave           0 max           0 min
Histogram: 1 0 0 0 0 0 0 0 0 0
Neighs:            491 ave         491 max         491 min
Histogram: 1 0 0 0 0 0 0 0 0 0

Total # of neighbors = 491
Ave neighs/atom = 14.878788
Neighbor list builds = 3
Dangerous builds = 0
Total wall time: 0:00:01
