LAMMPS (15 Sep 2022)
OMP_NUM_THREADS environment is not set. Defaulting to 1 thread. (src/comm.cpp:98)
  using 1 OpenMP thread(s) per MPI task
Loaded 1 plugins from C:\Users\becat\AppData\Local\LAMMPS 64-bit 15Sep2022\plugins
Lattice spacing in x,y,z = 4.079 4.079 4.079
Created orthogonal box = (0 0 0) to (40.79 40.79 40.79)
  1 by 1 by 1 MPI processor grid
Read molecule template np:
  1 molecules
  0 fragments
  19 atoms with max type 1
  0 bonds with max type 0
  0 angles with max type 0
  0 dihedrals with max type 0
  0 impropers with max type 0
Created 19 atoms
  using lattice units in orthogonal box = (18.105977 17.430055 17.39639) to (22.835902 23.305532 23.239939)
  create_atoms CPU = 0.000 seconds
Neighbor list info ...
  update: every = 1 steps, delay = 10 steps, check = yes
  max neighbors/atom: 2000, page size: 100000
  master list distance cutoff = 7.55
  ghost atom cutoff = 7.55
  binsize = 3.775, bins = 2 2 2
  1 neighbor lists, perpetual/occasional/extra = 1 0 0
  (1) pair eam, perpetual
      attributes: half, newton on
      pair build: half/bin/atomonly/newton
      stencil: half/bin/3d
      bin: standard
Setting up Verlet run ...
  Unit style    : metal
  Current step  : 0
  Time step     : 0.001
Per MPI rank memory allocation (min/avg/max) = 4.41 | 4.41 | 4.41 Mbytes
   Step          Temp          PotEng         KinEng         TotEng         Volume    
         0   300           -54.092227      0.69800478    -53.394222      162.39555    
      1000   1357.5427     -56.688135      3.1585709     -53.529564      258.9944     
      2000   1103.475      -56.40799       2.5674361     -53.840554      260.28199    
      3000   1155.9637     -56.904046      2.6895606     -54.214486      277.12597    
      4000   1124.7637     -57.200989      2.6169682     -54.584021      266.98448    
      5000   1280.9692     -57.852739      2.9804087     -54.87233       243.23955    
      6000   1023.8979     -57.536284      2.3822855     -55.153999      257.88013    
      7000   881.47746     -57.494155      2.0509183     -55.443237      249.19074    
      8000   1016.2647     -58.10975       2.3645254     -55.745224      236.29905    
      9000   859.28312     -58.050566      1.9992791     -56.051287      228.23331    
     10000   961.40355     -58.596868      2.2368809     -56.359987      225.34805    
     11000   732.87718     -58.388727      1.7051726     -56.683554      240.54523    
     12000   816.72676     -58.874322      1.900264      -56.974058      251.58761    
     13000   604.44747     -58.644074      1.4063574     -57.237716      211.0398     
     14000   733.63604     -59.1921        1.7069382     -57.485162      197.09368    
     15000   706.07817     -59.349677      1.6428198     -57.706858      195.88816    
     16000   593.3613      -59.300434      1.3805634     -57.919871      225.04782    
     17000   769.90116     -59.907589      1.7913156     -58.116273      225.04782    
     18000   496.51726     -59.457583      1.1552381     -58.302345      216.18731    
     19000   542.17301     -59.720773      1.2614645     -58.459309      227.85088    
     20000   564.17453     -59.925468      1.3126551     -58.612813      205.87171    
     21000   469.2682      -59.858089      1.0918382     -58.76625       239.16194    
     22000   588.00208     -60.272151      1.3680942     -58.904057      226.51783    
     23000   373.23172     -59.901824      0.86839176    -59.033432      230.92127    
     24000   480.11686     -60.260799      1.1170795     -59.143719      230.92127    
     25000   524.91843     -60.467574      1.2213186     -59.246256      248.77031    
     26000   369.58656     -60.202133      0.85991062    -59.342223      248.77031    
     27000   405.75991     -60.373892      0.94407452    -59.429817      248.77031    
     28000   336.42612     -60.293728      0.7827568     -59.510972      248.77031    
     29000   383.56702     -60.476755      0.89243871    -59.584317      248.77031    
     30000   395.13907     -60.57245       0.91936321    -59.653087      221.77611    
     31000   262.20306     -60.323061      0.61006329    -59.712998      229.42301    
     32000   372.41924     -60.633296      0.86650136    -59.766795      229.42301    
     33000   237.40402     -60.370355      0.55236381    -59.817991      233.9838     
     34000   296.78764     -60.555303      0.69053064    -59.864773      233.9838     
     35000   261.3305      -60.515232      0.60803314    -59.907199      233.9838     
     36000   240.02101     -60.504753      0.5584527     -59.9463        233.9838     
     37000   214.46067     -60.481423      0.4989819     -59.982441      233.9838     
     38000   205.70698     -60.493454      0.47861484    -60.014839      233.9838     
     39000   276.39995     -60.686583      0.64309495    -60.043488      233.9838     
     40000   290.09221     -60.742119      0.6749525     -60.067167      233.9838     
     41000   304.60959     -60.798092      0.70872983    -60.089362      233.9838     
     42000   248.1228      -60.685953      0.577303      -60.10865       233.9838     
     43000   251.68925     -60.71075       0.58560099    -60.125149      233.9838     
     44000   231.79388     -60.678599      0.53931079    -60.139288      233.9838     
     45000   292.08552     -60.829974      0.6795903     -60.150383      233.9838     
     46000   226.7929      -60.68655       0.5276751     -60.158875      233.9838     
     47000   225.85223     -60.690154      0.52548645    -60.164668      233.9838     
     48000   185.9473      -60.599995      0.43264034    -60.167354      233.9838     
     49000   173.15276     -60.570133      0.40287151    -60.167261      233.9838     
     50000   175.16266     -60.572002      0.40754792    -60.164454      233.9838     
Loop time of 0.604549 on 1 procs for 50000 steps with 19 atoms

Performance: 7145.823 ns/day, 0.003 hours/ns, 82706.282 timesteps/s
100.8% CPU use with 1 MPI tasks x 1 OpenMP threads

MPI task timing breakdown:
Section |  min time  |  avg time  |  max time  |%varavg| %total
---------------------------------------------------------------
Pair    | 0.49712    | 0.49712    | 0.49712    |   0.0 | 82.23
Neigh   | 0.000347   | 0.000347   | 0.000347   |   0.0 |  0.06
Comm    | 0.00675    | 0.00675    | 0.00675    |   0.0 |  1.12
Output  | 0.009      | 0.009      | 0.009      |   0.0 |  1.49
Modify  | 0.073864   | 0.073864   | 0.073864   |   0.0 | 12.22
Other   |            | 0.01747    |            |       |  2.89

Nlocal:             19 ave          19 max          19 min
Histogram: 1 0 0 0 0 0 0 0 0 0
Nghost:              0 ave           0 max           0 min
Histogram: 1 0 0 0 0 0 0 0 0 0
Neighs:            170 ave         170 max         170 min
Histogram: 1 0 0 0 0 0 0 0 0 0

Total # of neighbors = 170
Ave neighs/atom = 8.9473684
Neighbor list builds = 74
Dangerous builds = 0
Total wall time: 0:00:00
