LAMMPS (15 Sep 2022)
OMP_NUM_THREADS environment is not set. Defaulting to 1 thread. (src/comm.cpp:98)
  using 1 OpenMP thread(s) per MPI task
Loaded 1 plugins from C:\Users\becat\AppData\Local\LAMMPS 64-bit 15Sep2022\plugins
Lattice spacing in x,y,z = 4.079 4.079 4.079
Created orthogonal box = (0 0 0) to (40.79 40.79 40.79)
  1 by 1 by 1 MPI processor grid
Read molecule template np:
  1 molecules
  0 fragments
  100 atoms with max type 1
  0 bonds with max type 0
  0 angles with max type 0
  0 dihedrals with max type 0
  0 impropers with max type 0
Created 100 atoms
  using lattice units in orthogonal box = (12.103798 12.538072 15.156514) to (28.520127 28.243926 25.633486)
  create_atoms CPU = 0.000 seconds
Neighbor list info ...
  update: every = 1 steps, delay = 10 steps, check = yes
  max neighbors/atom: 2000, page size: 100000
  master list distance cutoff = 7.55
  ghost atom cutoff = 7.55
  binsize = 3.775, bins = 5 5 3
  1 neighbor lists, perpetual/occasional/extra = 1 0 0
  (1) pair eam, perpetual
      attributes: half, newton on
      pair build: half/bin/atomonly/newton
      stencil: half/bin/3d
      bin: standard
Setting up Verlet run ...
  Unit style    : metal
  Current step  : 0
  Time step     : 0.001
Per MPI rank memory allocation (min/avg/max) = 4.541 | 4.541 | 4.541 Mbytes
   Step          Temp          PotEng         KinEng         TotEng         Volume    
         0   300           -343.13322      3.8390263     -339.29419      2701.3035    
      1000   401.38504     -344.48385      5.1364257     -339.34743      2282.9071    
      2000   445.49657     -345.177        5.7009102     -339.47609      2172.5751    
      3000   494.3694      -345.99976      6.3263237     -339.67344      2234.3124    
      4000   545.19693     -346.90053      6.9767511     -339.92378      2305.6438    
      5000   498.76387     -346.57326      6.3825587     -340.1907       2243.5038    
      6000   459.53927     -346.31281      5.8806112     -340.4322       2106.4159    
      7000   412.6942      -345.91683      5.2811463     -340.63569      2247.8979    
      8000   434.02294     -346.37877      5.554085      -340.82469      2200.4343    
      9000   434.78173     -346.5731       5.563795      -341.00931      2286.4176    
     10000   375.13836     -345.9997       4.8005535     -341.19914      2310.0544    
     11000   374.59642     -346.18709      4.7936183     -341.39347      2146.2205    
     12000   439.61378     -347.22067      5.6256295     -341.59505      2146.2205    
     13000   438.34569     -347.41163      5.6094021     -341.80222      2146.2205    
     14000   429.06196     -347.50064      5.4906005     -342.01004      2375.6028    
     15000   441.16736     -347.86346      5.6455104     -342.21795      2253.1087    
     16000   452.46014     -348.21098      5.7900213     -342.42096      2333.7269    
     17000   390.88978     -347.61751      5.0021205     -342.61539      2237.8675    
     18000   391.1567      -347.80399      5.0055362     -342.79845      2237.8675    
     19000   377.57044     -347.80616      4.8316761     -342.97448      2237.8675    
     20000   358.41338     -347.73218      4.586528      -343.14565      2268.1434    
     21000   348.91019     -347.77099      4.464918      -343.30607      2268.1434    
     22000   402.26601     -348.61228      5.1476994     -343.46458      2179.5285    
     23000   347.67629     -348.06827      4.4491281     -343.61914      2215.0895    
     24000   346.56291     -348.20196      4.4348804     -343.76708      2286.3083    
     25000   288.03998     -347.59669      3.6859769     -343.91071      2192.4277    
     26000   332.46428     -348.30287      4.2544638     -344.04841      2192.4277    
     27000   323.1753      -348.31621      4.1355949     -344.18062      2158.53      
     28000   330.18373     -348.53232      4.2252801     -344.30704      2203.6532    
     29000   297.43567     -348.23347      3.8062112     -344.42726      2203.6532    
     30000   306.822       -348.46929      3.9263257     -344.54296      2243.3644    
     31000   279.15163     -348.22303      3.5722348     -344.65079      2243.3644    
     32000   327.91322     -348.95099      4.1962249     -344.75477      2243.3644    
     33000   297.8239      -348.66268      3.8111792     -344.8515       2253.2799    
     34000   281.40439     -348.54377      3.6010629     -344.9427       2302.5285    
     35000   256.7216      -348.31319      3.2852033     -345.02799      2302.5285    
     36000   263.4764      -348.4798       3.3716428     -345.10816      2368.4874    
     37000   259.01477     -348.49784      3.3145484     -345.18329      2368.4874    
     38000   281.26147     -348.85051      3.5992339     -345.25128      2301.1372    
     39000   281.78116     -348.91994      3.6058843     -345.31405      2301.1372    
     40000   296.08146     -349.15997      3.7888818     -345.37109      2323.3511    
     41000   312.56406     -349.42252      3.9998055     -345.42272      2218.8667    
     42000   303.63183     -349.35444      3.8855019     -345.46893      2323.4872    
     43000   269.3499      -348.95668      3.4468045     -345.50987      2164.4574    
     44000   254.73058     -348.80534      3.2597247     -345.54561      2164.4574    
     45000   255.11343     -348.83948      3.2646239     -345.57486      2164.4574    
     46000   310.36519     -349.56987      3.9716671     -345.5982       2222.1458    
     47000   289.29109     -349.31717      3.701987      -345.61518      2221.6727    
     48000   272.49523     -349.11319      3.4870545     -345.62614      2221.6727    
     49000   274.18438     -349.13992      3.5086702     -345.63124      2253.3764    
     50000   275.92372     -349.1611       3.530928      -345.63017      2268.4636    
Loop time of 3.60156 on 1 procs for 50000 steps with 100 atoms

Performance: 1199.481 ns/day, 0.020 hours/ns, 13882.885 timesteps/s
98.0% CPU use with 1 MPI tasks x 1 OpenMP threads

MPI task timing breakdown:
Section |  min time  |  avg time  |  max time  |%varavg| %total
---------------------------------------------------------------
Pair    | 3.4277     | 3.4277     | 3.4277     |   0.0 | 95.17
Neigh   | 0.002376   | 0.002376   | 0.002376   |   0.0 |  0.07
Comm    | 0.005637   | 0.005637   | 0.005637   |   0.0 |  0.16
Output  | 0.018192   | 0.018192   | 0.018192   |   0.0 |  0.51
Modify  | 0.11844    | 0.11844    | 0.11844    |   0.0 |  3.29
Other   |            | 0.02922    |            |       |  0.81

Nlocal:            100 ave         100 max         100 min
Histogram: 1 0 0 0 0 0 0 0 0 0
Nghost:              0 ave           0 max           0 min
Histogram: 1 0 0 0 0 0 0 0 0 0
Neighs:           2460 ave        2460 max        2460 min
Histogram: 1 0 0 0 0 0 0 0 0 0

Total # of neighbors = 2460
Ave neighs/atom = 24.6
Neighbor list builds = 49
Dangerous builds = 0
Total wall time: 0:00:03
