LAMMPS (15 Sep 2022)
OMP_NUM_THREADS environment is not set. Defaulting to 1 thread. (src/comm.cpp:98)
  using 1 OpenMP thread(s) per MPI task
Loaded 1 plugins from C:\Users\becat\AppData\Local\LAMMPS 64-bit 15Sep2022\plugins
Lattice spacing in x,y,z = 4.079 4.079 4.079
Created orthogonal box = (0 0 0) to (40.79 40.79 40.79)
  1 by 1 by 1 MPI processor grid
Read molecule template np:
  1 molecules
  0 fragments
  923 atoms with max type 1
  0 bonds with max type 0
  0 angles with max type 0
  0 dihedrals with max type 0
  0 impropers with max type 0
Created 923 atoms
  using lattice units in orthogonal box = (6.7537728 4.4243038 4.2030171) to (34.036227 36.365696 36.586983)
  create_atoms CPU = 0.000 seconds
Neighbor list info ...
  update: every = 1 steps, delay = 10 steps, check = yes
  max neighbors/atom: 2000, page size: 100000
  master list distance cutoff = 7.55
  ghost atom cutoff = 7.55
  binsize = 3.775, bins = 8 9 9
  1 neighbor lists, perpetual/occasional/extra = 1 0 0
  (1) pair eam, perpetual
      attributes: half, newton on
      pair build: half/bin/atomonly/newton
      stencil: half/bin/3d
      bin: standard
Setting up Verlet run ...
  Unit style    : metal
  Current step  : 0
  Time step     : 0.001
Per MPI rank memory allocation (min/avg/max) = 4.592 | 4.592 | 4.592 Mbytes
   Step          Temp          PotEng         KinEng         TotEng         Volume    
         0   300           -3423.1858      35.753356     -3387.4325      28220.67     
      1000   233.69865     -3415.2277      27.851704     -3387.376       25669.67     
      2000   228.61772     -3414.4467      27.246169     -3387.2005      26501.032    
      3000   239.50894     -3415.4567      28.544161     -3386.9125      25623.299    
      4000   233.66478     -3414.384       27.847667     -3386.5364      26691.106    
      5000   247.06997     -3415.5664      29.445269     -3386.1211      25445.965    
      6000   246.63526     -3415.114       29.393461     -3385.7205      27029.004    
      7000   250.50361     -3415.2164      29.854482     -3385.3619      26554.433    
      8000   251.75091     -3415.0346      30.003133     -3385.0314      25834.4      
      9000   244.28351     -3413.8178      29.113185     -3384.7047      26360.864    
     10000   254.6692      -3414.7141      30.350929     -3384.3632      26360.864    
     11000   247.48265     -3413.4905      29.494451     -3383.996       26365.765    
     12000   249.41954     -3413.3289      29.725286     -3383.6036      25894.87     
     13000   261.33127     -3414.3327      31.1449       -3383.1878      25783.021    
     14000   252.92113     -3412.8991      30.142598     -3382.7565      25947.656    
     15000   259.8283      -3413.2827      30.965779     -3382.317       26373.745    
     16000   246.8664      -3411.294       29.421007     -3381.873       25755.425    
     17000   261.81935     -3412.6287      31.203068     -3381.4256      26182.519    
     18000   255.23149     -3411.3954      30.417941     -3380.9774      26014.226    
     19000   267.03517     -3412.354       31.824679     -3380.5294      25992.811    
     20000   264.48957     -3411.6027      31.521299     -3380.0814      26187.547    
     21000   266.61404     -3411.4078      31.774488     -3379.6333      25797.959    
     22000   276.0724      -3412.0877      32.901716     -3379.186       26464.351    
     23000   272.10908     -3411.1706      32.429376     -3378.7412      25589.325    
     24000   283.74196     -3412.1142      33.815757     -3378.2984      26350.056    
     25000   272.09817     -3410.2864      32.428076     -3377.8583      26018.239    
     26000   275.25078     -3410.2272      32.803797     -3377.4234      26033.412    
     27000   277.25119     -3410.0334      33.042202     -3376.9912      26360.577    
     28000   283.45146     -3410.3451      33.781136     -3376.564       26269.999    
     29000   282.6246      -3409.8256      33.682594     -3376.143       25591.065    
     30000   290.49239     -3410.3511      34.620259     -3375.7308      25364.776    
     31000   287.25446     -3409.5575      34.23437      -3375.3231      26068.452    
     32000   295.20571     -3410.1055      35.181983     -3374.9235      26566.141    
     33000   289.39448     -3409.0201      34.489413     -3374.5307      26259.28     
     34000   286.0759      -3408.2437      34.093911     -3374.1498      26345.037    
     35000   287.00183     -3407.9808      34.204262     -3373.7766      25714.798    
     36000   294.33154     -3408.4923      35.077801     -3373.4145      26070.502    
     37000   285.32342     -3407.0655      34.004233     -3373.0613      26210.607    
     38000   299.08041     -3408.3642      35.643761     -3372.7205      26051.462    
     39000   284.41533     -3406.2897      33.896008     -3372.3937      26129.214    
     40000   306.90339     -3408.6539      36.576088     -3372.0779      26460.114    
     41000   311.36677     -3408.8829      37.108023     -3371.7749      25941.935    
     42000   300.82502     -3407.3375      35.85168      -3371.4858      26335.907    
     43000   298.8361      -3406.8266      35.614646     -3371.212       26079.295    
     44000   296.78639     -3406.3229      35.370365     -3370.9526      25625.7      
     45000   301.71166     -3406.6664      35.957349     -3370.709       26400.171    
     46000   307.16555     -3407.0904      36.607332     -3370.483       26317.467    
     47000   302.05576     -3406.2719      35.998357     -3370.2736      25408.927    
     48000   304.75406     -3406.4046      36.319935     -3370.0847      26197.655    
     49000   304.66418     -3406.2243      36.309223     -3369.915       25949.942    
     50000   308.75746     -3406.5618      36.797052     -3369.7647      26010.303    
Loop time of 47.5568 on 1 procs for 50000 steps with 923 atoms

Performance: 90.839 ns/day, 0.264 hours/ns, 1051.374 timesteps/s
99.9% CPU use with 1 MPI tasks x 1 OpenMP threads

MPI task timing breakdown:
Section |  min time  |  avg time  |  max time  |%varavg| %total
---------------------------------------------------------------
Pair    | 46.499     | 46.499     | 46.499     |   0.0 | 97.78
Neigh   | 0.059696   | 0.059696   | 0.059696   |   0.0 |  0.13
Comm    | 0.007629   | 0.007629   | 0.007629   |   0.0 |  0.02
Output  | 0.1359     | 0.1359     | 0.1359     |   0.0 |  0.29
Modify  | 0.7201     | 0.7201     | 0.7201     |   0.0 |  1.51
Other   |            | 0.1347     |            |       |  0.28

Nlocal:            923 ave         923 max         923 min
Histogram: 1 0 0 0 0 0 0 0 0 0
Nghost:              0 ave           0 max           0 min
Histogram: 1 0 0 0 0 0 0 0 0 0
Neighs:          34716 ave       34716 max       34716 min
Histogram: 1 0 0 0 0 0 0 0 0 0

Total # of neighbors = 34716
Ave neighs/atom = 37.612134
Neighbor list builds = 68
Dangerous builds = 0
Total wall time: 0:00:47
