LAMMPS (15 Sep 2022)
OMP_NUM_THREADS environment is not set. Defaulting to 1 thread. (src/comm.cpp:98)
  using 1 OpenMP thread(s) per MPI task
Loaded 1 plugins from C:\Users\becat\AppData\Local\LAMMPS 64-bit 15Sep2022\plugins
Lattice spacing in x,y,z = 4.079 4.079 4.079
Created orthogonal box = (0 0 0) to (40.79 40.79 40.79)
  1 by 1 by 1 MPI processor grid
Read molecule template np:
  1 molecules
  0 fragments
  13 atoms with max type 1
  0 bonds with max type 0
  0 angles with max type 0
  0 dihedrals with max type 0
  0 impropers with max type 0
Created 13 atoms
  using lattice units in orthogonal box = (17.704546 17.759875 17.749171) to (23.085454 23.030125 23.040829)
  create_atoms CPU = 0.000 seconds
Neighbor list info ...
  update: every = 1 steps, delay = 10 steps, check = yes
  max neighbors/atom: 2000, page size: 100000
  master list distance cutoff = 7.55
  ghost atom cutoff = 7.55
  binsize = 3.775, bins = 2 2 2
  1 neighbor lists, perpetual/occasional/extra = 1 0 0
  (1) pair eam, perpetual
      attributes: half, newton on
      pair build: half/bin/atomonly/newton
      stencil: half/bin/3d
      bin: standard
Setting up Verlet run ...
  Unit style    : metal
  Current step  : 0
  Time step     : 0.001
Per MPI rank memory allocation (min/avg/max) = 4.41 | 4.41 | 4.41 Mbytes
   Step          Temp          PotEng         KinEng         TotEng         Volume    
         0   300           -36.068905      0.46533652    -35.603568      150.06472    
      1000   1655.2093     -38.266882      2.5674311     -35.699451      141.03089    
      2000   1400.9326     -38.106356      2.173017      -35.933339      131.80271    
      3000   996.54001     -37.724648      1.5457549     -36.178893      181.51669    
      4000   972.49975     -37.915966      1.5084655     -36.4075        138.72005    
      5000   1069.3162     -38.259315      1.6586396     -36.600676      147.64483    
      6000   1072.5576     -38.457949      1.6636674     -36.794281      121.30509    
      7000   1123.5912     -38.700678      1.7428267     -36.957851      119.47901    
      8000   862.78319     -38.452504      1.3382818     -37.114222      120.85959    
      9000   685.20037     -38.341067      1.0628292     -37.278238      129.21174    
     10000   619.02747     -38.382597      0.96018697    -37.42241       146.87205    
     11000   643.41213     -38.560652      0.99801055    -37.562641      141.41331    
     12000   674.18111     -38.760829      1.045737      -37.715092      137.30014    
     13000   675.77908     -38.914356      1.0482156     -37.86614       120.72949    
     14000   678.4721      -39.055293      1.0523928     -38.0029        133.16543    
     15000   645.05188     -39.133325      1.000554      -38.132771      140.56022    
     16000   430.0913      -38.908934      0.66712396    -38.24181       140.56022    
     17000   532.28163     -39.166568      0.8256336     -38.340934      140.56022    
     18000   497.83243     -39.211731      0.7721987     -38.439532      128.10525    
     19000   709.30606     -39.638454      1.1002201     -38.538234      153.01052    
     20000   443.10126     -39.300193      0.687304      -38.612889      153.01052    
     21000   489.86697     -39.452937      0.7598433     -38.693094      153.01052    
     22000   416.67723     -39.416528      0.64631711    -38.77021       153.01052    
     23000   419.59015     -39.489968      0.6508354     -38.839133      143.40157    
     24000   468.62358     -39.629402      0.72689222    -38.90251       137.86059    
     25000   282.85649     -39.399201      0.43874485    -38.960457      137.86059    
     26000   360.196       -39.574722      0.55870785    -39.016014      137.86059    
     27000   348.93756     -39.604971      0.54124463    -39.063726      137.86059    
     28000   275.13406     -39.538912      0.42676642    -39.112145      123.30169    
     29000   309.13764     -39.632358      0.47951011    -39.152848      123.30169    
     30000   250.16081     -39.579314      0.38802988    -39.191284      123.30169    
     31000   237.73022     -39.594917      0.36874851    -39.226168      123.30169    
     32000   368.74714     -39.832258      0.57197171    -39.260286      129.82135    
     33000   256.65936     -39.687281      0.39810991    -39.289171      129.82135    
     34000   221.03001     -39.658235      0.34284446    -39.315391      129.82135    
     35000   274.24984     -39.765203      0.42539488    -39.339809      129.82135    
     36000   168.92765     -39.623306      0.26202735    -39.361279      129.82135    
     37000   225.38887     -39.730201      0.34960557    -39.380595      129.82135    
     38000   281.60691     -39.834376      0.4368066     -39.397569      129.82135    
     39000   196.15365     -39.717136      0.30425819    -39.412878      129.82135    
     40000   279.69875     -39.859583      0.43384682    -39.425737      129.82135    
     41000   190.75296     -39.733042      0.29588106    -39.437161      129.82135    
     42000   172.7958      -39.714647      0.26802733    -39.44662       129.82135    
     43000   169.56655     -39.716838      0.26301837    -39.45382       129.82135    
     44000   234.97288     -39.823932      0.36447154    -39.459461      129.82135    
     45000   228.35299     -39.817735      0.35420329    -39.463531      123.12937    
     46000   224.1995      -39.813202      0.34776071    -39.465441      123.12937    
     47000   204.85914     -39.783415      0.31776147    -39.465653      123.12937    
     48000   251.41245     -39.854064      0.38997132    -39.464093      117.90996    
     49000   224.32106     -39.808654      0.34794927    -39.460705      146.85765    
     50000   235.67181     -39.821113      0.36555567    -39.455557      157.14765    
Loop time of 0.357775 on 1 procs for 50000 steps with 13 atoms

Performance: 12074.628 ns/day, 0.002 hours/ns, 139752.638 timesteps/s
100.4% CPU use with 1 MPI tasks x 1 OpenMP threads

MPI task timing breakdown:
Section |  min time  |  avg time  |  max time  |%varavg| %total
---------------------------------------------------------------
Pair    | 0.26466    | 0.26466    | 0.26466    |   0.0 | 73.97
Neigh   | 0.00017    | 0.00017    | 0.00017    |   0.0 |  0.05
Comm    | 0.006831   | 0.006831   | 0.006831   |   0.0 |  1.91
Output  | 0.004528   | 0.004528   | 0.004528   |   0.0 |  1.27
Modify  | 0.066594   | 0.066594   | 0.066594   |   0.0 | 18.61
Other   |            | 0.01499    |            |       |  4.19

Nlocal:             13 ave          13 max          13 min
Histogram: 1 0 0 0 0 0 0 0 0 0
Nghost:              0 ave           0 max           0 min
Histogram: 1 0 0 0 0 0 0 0 0 0
Neighs:             78 ave          78 max          78 min
Histogram: 1 0 0 0 0 0 0 0 0 0

Total # of neighbors = 78
Ave neighs/atom = 6
Neighbor list builds = 52
Dangerous builds = 0
Total wall time: 0:00:00
