LAMMPS (15 Sep 2022)
OMP_NUM_THREADS environment is not set. Defaulting to 1 thread. (src/comm.cpp:98)
  using 1 OpenMP thread(s) per MPI task
Loaded 1 plugins from C:\Users\becat\AppData\Local\LAMMPS 64-bit 15Sep2022\plugins
Lattice spacing in x,y,z = 4.079 4.079 4.079
Created orthogonal box = (0 0 0) to (40.79 40.79 40.79)
  1 by 1 by 1 MPI processor grid
Read molecule template np:
  1 molecules
  0 fragments
  318 atoms with max type 1
  0 bonds with max type 0
  0 angles with max type 0
  0 dihedrals with max type 0
  0 impropers with max type 0
Created 318 atoms
  using lattice units in orthogonal box = (9.3477143 9.1872775 11.230709) to (30.841422 31.573773 29.559291)
  create_atoms CPU = 0.000 seconds
Neighbor list info ...
  update: every = 1 steps, delay = 10 steps, check = yes
  max neighbors/atom: 2000, page size: 100000
  master list distance cutoff = 7.55
  ghost atom cutoff = 7.55
  binsize = 3.775, bins = 6 6 5
  1 neighbor lists, perpetual/occasional/extra = 1 0 0
  (1) pair eam, perpetual
      attributes: half, newton on
      pair build: half/bin/atomonly/newton
      stencil: half/bin/3d
      bin: standard
Setting up Verlet run ...
  Unit style    : metal
  Current step  : 0
  Time step     : 0.001
Per MPI rank memory allocation (min/avg/max) = 4.554 | 4.554 | 4.554 Mbytes
   Step          Temp          PotEng         KinEng         TotEng         Volume    
         0   300           -1150.8947      12.29264      -1138.6021      8819.1418    
      1000   352.58301     -1153.0622      14.447253     -1138.6149      8819.1418    
      2000   302.01282     -1151.0244      12.375116     -1138.6492      8819.1418    
      3000   313.60508     -1151.5562      12.850114     -1138.7061      8819.1418    
      4000   300.39273     -1151.0925      12.308732     -1138.7837      8819.1418    
      5000   312.42223     -1151.685       12.801646     -1138.8833      8819.1418    
      6000   331.63533     -1152.5906      13.588912     -1139.0017      8819.1418    
      7000   303.67342     -1151.5799      12.44316      -1139.1368      8819.1418    
      8000   300.99286     -1151.6199      12.333323     -1139.2865      8819.1418    
      9000   320.14157     -1152.5632      13.11795      -1139.4452      8819.1418    
     10000   326.15559     -1152.9698      13.364377     -1139.6054      8819.1418    
     11000   314.13746     -1152.6328      12.871929     -1139.7608      8819.1418    
     12000   318.39126     -1152.9518      13.04623      -1139.9055      7901.2873    
     13000   313.52342     -1152.8822      12.846768     -1140.0354      7901.2873    
     14000   310.44395     -1152.8699      12.720586     -1140.1493      7901.2873    
     15000   310.30016     -1152.9605      12.714694     -1140.2458      7901.2873    
     16000   317.67983     -1153.3439      13.017079     -1140.3268      7901.2873    
     17000   301.85678     -1152.7632      12.368722     -1140.3944      8131.7131    
     18000   299.19631     -1152.7114      12.259708     -1140.4517      8131.7131    
     19000   308.00381     -1153.1222      12.620599     -1140.5016      8131.7131    
     20000   310.56242     -1153.2706      12.72544      -1140.5452      8131.7131    
     21000   294.16441     -1152.6379      12.053524     -1140.5843      8131.7131    
     22000   327.49073     -1154.0377      13.419085     -1140.6186      8131.7131    
     23000   303.40568     -1153.082       12.432189     -1140.6499      8131.7131    
     24000   298.88457     -1152.9256      12.246935     -1140.6786      8131.7131    
     25000   299.3351      -1152.97        12.265395     -1140.7046      8131.7131    
     26000   294.41138     -1152.7923      12.063644     -1140.7286      7843.7017    
     27000   295.36139     -1152.8531      12.10257      -1140.7505      7843.7017    
     28000   294.08786     -1152.8212      12.050387     -1140.7708      7843.7017    
     29000   294.10465     -1152.8398      12.051075     -1140.7887      7913.008     
     30000   299.18011     -1153.0641      12.259045     -1140.8051      8150.6323    
     31000   294.64364     -1152.8927      12.07316      -1140.8195      7977.8265    
     32000   290.9485      -1152.7538      11.92175      -1140.832       8072.649     
     33000   286.99111     -1152.6014      11.759595     -1140.8418      8072.649     
     34000   300.58837     -1153.1665      12.316748     -1140.8498      8102.0628    
     35000   303.87529     -1153.307       12.451432     -1140.8555      8130.9464    
     36000   302.95965     -1153.273       12.413913     -1140.8591      8018.6529    
     37000   294.15426     -1152.9135      12.053108     -1140.8604      8009.3056    
     38000   311.57194     -1153.6253      12.766805     -1140.8585      8009.3056    
     39000   293.2249      -1152.8688      12.015027     -1140.8537      8136.4251    
     40000   284.86991     -1152.5187      11.672677     -1140.846       8306.8148    
     41000   297.88759     -1153.0409      12.206083     -1140.8348      8306.8148    
     42000   287.56413     -1152.6029      11.783074     -1140.8198      8306.8148    
     43000   299.85843     -1153.0881      12.286839     -1140.8013      8306.8148    
     44000   294.40335     -1152.8413      12.063314     -1140.7779      8306.8148    
     45000   287.15537     -1152.5152      11.766325     -1140.7489      8306.8148    
     46000   284.72058     -1152.3808      11.666558     -1140.7143      8267.0675    
     47000   297.45371     -1152.8603      12.188304     -1140.672       8067.822     
     48000   298.18743     -1152.8404      12.218369     -1140.622       8204.4694    
     49000   288.85658     -1152.3991      11.836033     -1140.563       8092.2257    
     50000   293.39204     -1152.5176      12.021876     -1140.4957      8092.2257    
Loop time of 22.1572 on 1 procs for 50000 steps with 318 atoms

Performance: 194.970 ns/day, 0.123 hours/ns, 2256.599 timesteps/s
98.9% CPU use with 1 MPI tasks x 1 OpenMP threads

MPI task timing breakdown:
Section |  min time  |  avg time  |  max time  |%varavg| %total
---------------------------------------------------------------
Pair    | 21.555     | 21.555     | 21.555     |   0.0 | 97.28
Neigh   | 0.006504   | 0.006504   | 0.006504   |   0.0 |  0.03
Comm    | 0.011152   | 0.011152   | 0.011152   |   0.0 |  0.05
Output  | 0.075939   | 0.075939   | 0.075939   |   0.0 |  0.34
Modify  | 0.41937    | 0.41937    | 0.41937    |   0.0 |  1.89
Other   |            | 0.08913    |            |       |  0.40

Nlocal:            318 ave         318 max         318 min
Histogram: 1 0 0 0 0 0 0 0 0 0
Nghost:              0 ave           0 max           0 min
Histogram: 1 0 0 0 0 0 0 0 0 0
Neighs:          10670 ave       10670 max       10670 min
Histogram: 1 0 0 0 0 0 0 0 0 0

Total # of neighbors = 10670
Ave neighs/atom = 33.553459
Neighbor list builds = 19
Dangerous builds = 0
Total wall time: 0:00:22
