LAMMPS (15 Sep 2022)
OMP_NUM_THREADS environment is not set. Defaulting to 1 thread. (src/comm.cpp:98)
  using 1 OpenMP thread(s) per MPI task
Loaded 1 plugins from C:\Users\becat\AppData\Local\LAMMPS 64-bit 15Sep2022\plugins
Lattice spacing in x,y,z = 4.079 4.079 4.079
Created orthogonal box = (0 0 0) to (40.79 40.79 40.79)
  1 by 1 by 1 MPI processor grid
Read molecule template np:
  1 molecules
  0 fragments
  34 atoms with max type 1
  0 bonds with max type 0
  0 angles with max type 0
  0 dihedrals with max type 0
  0 impropers with max type 0
Created 34 atoms
  using lattice units in orthogonal box = (16.18143 16.184607 16.340366) to (24.261704 23.848501 24.575328)
  create_atoms CPU = 0.000 seconds
Neighbor list info ...
  update: every = 1 steps, delay = 10 steps, check = yes
  max neighbors/atom: 2000, page size: 100000
  master list distance cutoff = 7.55
  ghost atom cutoff = 7.55
  binsize = 3.775, bins = 3 3 3
  1 neighbor lists, perpetual/occasional/extra = 1 0 0
  (1) pair eam, perpetual
      attributes: half, newton on
      pair build: half/bin/atomonly/newton
      stencil: half/bin/3d
      bin: standard
Setting up Verlet run ...
  Unit style    : metal
  Current step  : 0
  Time step     : 0.001
Per MPI rank memory allocation (min/avg/max) = 4.537 | 4.537 | 4.537 Mbytes
   Step          Temp          PotEng         KinEng         TotEng         Volume    
         0   300           -113.60758      1.2796754     -112.32791      509.9613     
      1000   244.8219      -113.36933      1.0443086     -112.32502      509.9613     
      2000   212.91907     -113.22457      0.90822435    -112.31635      509.9613     
      3000   248.85411     -113.3633       1.0615083     -112.30179      509.9613     
      4000   215.91446     -113.20171      0.92100145    -112.28071      509.9613     
      5000   228.34245     -113.22773      0.97401409    -112.25372      509.9613     
      6000   204.09494     -113.09175      0.87058428    -112.22116      509.9613     
      7000   227.61204     -113.15385      0.97089844    -112.18295      509.9613     
      8000   270.88154     -113.2966       1.1554682     -112.14114      509.9613     
      9000   199.57054     -112.94953      0.85128505    -112.09824      509.9613     
     10000   221.28811     -112.9996       0.94392321    -112.05568      509.9613     
     11000   238.27502     -113.03162      1.0163823     -112.01524      509.9613     
     12000   209.25522     -112.87221      0.8925959     -111.97961      509.9613     
     13000   251.94801     -113.02207      1.0747056     -111.94737      476.59566    
     14000   216.53246     -112.84161      0.92363757    -111.91797      484.96075    
     15000   256.58265     -112.98587      1.0944751     -111.8914       484.96075    
     16000   230.29508     -112.84791      0.98234317    -111.86557      484.96075    
     17000   244.48231     -112.88332      1.04286       -111.84046      484.96075    
     18000   278.93257     -113.00531      1.1898105     -111.8155       484.96075    
     19000   248.42369     -112.85008      1.0596723     -111.7904       494.59042    
     20000   245.05828     -112.80928      1.0453169     -111.76396      496.60993    
     21000   312.22647     -113.06787      1.3318285     -111.73604      459.21371    
     22000   261.81103     -112.82454      1.1167772     -111.70776      459.21371    
     23000   286.35309     -112.90031      1.2214634     -111.67885      459.21371    
     24000   338.46782     -113.0926       1.4437632     -111.64884      459.21371    
     25000   226.4129      -112.58475      0.9657834     -111.61897      459.21371    
     26000   294.972       -112.84542      1.2582281     -111.5872       459.21371    
     27000   319.30526     -112.91714      1.3620237     -111.55511      459.21371    
     28000   342.89547     -112.98621      1.4626497     -111.52356      459.21371    
     29000   289.36395     -112.7259       1.2343065     -111.49159      459.21371    
     30000   277.01153     -112.64233      1.1816162     -111.46071      459.21371    
     31000   293.57908     -112.68204      1.2522865     -111.42975      475.75543    
     32000   283.92415     -112.61167      1.2111025     -111.40056      475.75543    
     33000   316.22988     -112.72085      1.3489054     -111.37195      475.75543    
     34000   272.89444     -112.5088       1.1640544     -111.34474      475.75543    
     35000   284.86373     -112.5341       1.2151104     -111.31898      478.03596    
     36000   307.40688     -112.60493      1.3112701     -111.29366      475.05646    
     37000   321.80096     -112.64091      1.3726693     -111.26824      482.49129    
     38000   394.21914     -112.92579      1.6815752     -111.24422      491.8667     
     39000   286.04702     -112.44295      1.2201578     -111.22279      491.8667     
     40000   366.69026     -112.76815      1.5641484     -111.204        491.8667     
     41000   275.74101     -112.36348      1.1761967     -111.18728      491.8667     
     42000   280.3835      -112.36944      1.1959996     -111.17344      463.93463    
     43000   350.16136     -112.65557      1.493643      -111.16193      471.93759    
     44000   317.18225     -112.50633      1.3529678     -111.15336      490.30437    
     45000   330.96286     -112.5593       1.4117501     -111.14755      490.30437    
     46000   289.73671     -112.37998      1.2358965     -111.14408      495.60462    
     47000   306.04701     -112.44791      1.3054695     -111.14244      495.60462    
     48000   277.7115      -112.32776      1.1846019     -111.14316      508.43788    
     49000   338.11595     -112.58951      1.4422622     -111.14725      471.92115    
     50000   299.85736     -112.43448      1.279067      -111.15542      461.40781    
Loop time of 0.880469 on 1 procs for 50000 steps with 34 atoms

Performance: 4906.476 ns/day, 0.005 hours/ns, 56787.916 timesteps/s
101.2% CPU use with 1 MPI tasks x 1 OpenMP threads

MPI task timing breakdown:
Section |  min time  |  avg time  |  max time  |%varavg| %total
---------------------------------------------------------------
Pair    | 0.79205    | 0.79205    | 0.79205    |   0.0 | 89.96
Neigh   | 0.000148   | 0.000148   | 0.000148   |   0.0 |  0.02
Comm    | 0.004697   | 0.004697   | 0.004697   |   0.0 |  0.53
Output  | 0.007953   | 0.007953   | 0.007953   |   0.0 |  0.90
Modify  | 0.063124   | 0.063124   | 0.063124   |   0.0 |  7.17
Other   |            | 0.0125     |            |       |  1.42

Nlocal:             34 ave          34 max          34 min
Histogram: 1 0 0 0 0 0 0 0 0 0
Nghost:              0 ave           0 max           0 min
Histogram: 1 0 0 0 0 0 0 0 0 0
Neighs:            511 ave         511 max         511 min
Histogram: 1 0 0 0 0 0 0 0 0 0

Total # of neighbors = 511
Ave neighs/atom = 15.029412
Neighbor list builds = 19
Dangerous builds = 0
Total wall time: 0:00:00
