LAMMPS (15 Sep 2022)
OMP_NUM_THREADS environment is not set. Defaulting to 1 thread. (src/comm.cpp:98)
  using 1 OpenMP thread(s) per MPI task
Loaded 1 plugins from C:\Users\becat\AppData\Local\LAMMPS 64-bit 15Sep2022\plugins
Lattice spacing in x,y,z = 4.079 4.079 4.079
Created orthogonal box = (0 0 0) to (40.79 40.79 40.79)
  1 by 1 by 1 MPI processor grid
Read molecule template np:
  1 molecules
  0 fragments
  28 atoms with max type 1
  0 bonds with max type 0
  0 angles with max type 0
  0 dihedrals with max type 0
  0 impropers with max type 0
Created 28 atoms
  using lattice units in orthogonal box = (16.400983 16.761016 16.095727) to (24.322782 24.282913 24.691077)
  create_atoms CPU = 0.000 seconds
Neighbor list info ...
  update: every = 1 steps, delay = 10 steps, check = yes
  max neighbors/atom: 2000, page size: 100000
  master list distance cutoff = 7.55
  ghost atom cutoff = 7.55
  binsize = 3.775, bins = 3 2 3
  1 neighbor lists, perpetual/occasional/extra = 1 0 0
  (1) pair eam, perpetual
      attributes: half, newton on
      pair build: half/bin/atomonly/newton
      stencil: half/bin/3d
      bin: standard
Setting up Verlet run ...
  Unit style    : metal
  Current step  : 0
  Time step     : 0.001
Per MPI rank memory allocation (min/avg/max) = 4.536 | 4.536 | 4.536 Mbytes
   Step          Temp          PotEng         KinEng         TotEng         Volume    
         0   300           -79.477335      1.0470072     -78.430328      512.17076    
      1000   1878.8464     -85.163045      6.557219      -78.605826      441.71217    
      2000   1720.6618     -85.262211      6.005151      -79.25706       433.74183    
      3000   1406.257      -84.994437      4.9078707     -80.086566      586.64251    
      4000   1282.9026     -85.210475      4.4773609     -80.733114      458.99301    
      5000   1247.5748     -85.62675       4.354066      -81.272684      472.99626    
      6000   994.64346     -85.304921      3.4713295     -81.833591      471.81371    
      7000   1064.8564     -86.165498      3.7163743     -82.449124      429.55449    
      8000   990.02267     -86.490282      3.4552028     -83.035079      447.59605    
      9000   1005.6939     -87.095213      3.5098956     -83.585317      462.99056    
     10000   949.34285     -87.462648      3.3132293     -84.149419      481.63665    
     11000   1039.0269     -88.284494      3.6262288     -84.658265      382.28685    
     12000   900.81848     -88.295423      3.143878      -85.151545      423.59576    
     13000   983.11855     -89.019882      3.4311073     -85.588775      391.27843    
     14000   721.73885     -88.481083      2.5188858     -85.962197      411.56885    
     15000   909.93882     -89.504837      3.1757082     -86.329129      353.92745    
     16000   657.27107     -89.040378      2.2938917     -86.746486      455.91677    
     17000   706.98134     -89.602183      2.4673818     -87.134801      404.54736    
     18000   579.33918     -89.510642      2.0219076     -87.488734      356.07733    
     19000   665.30343     -90.145146      2.3219249     -87.823221      395.44817    
     20000   638.48436     -90.35254       2.2283257     -88.124214      406.15824    
     21000   605.26506     -90.513882      2.1123895     -88.401493      363.39061    
     22000   641.87831     -90.915827      2.2401706     -88.675656      414.8799     
     23000   618.57359     -91.081309      2.1588366     -88.922472      376.28111    
     24000   479.17864     -90.820281      1.6723449     -89.147936      352.80285    
     25000   604.30334     -91.473367      2.1090331     -89.364334      401.02612    
     26000   520.10603     -91.368101      1.8151825     -89.552919      382.11713    
     27000   431.75946     -91.23562       1.5068508     -89.728769      374.23652    
     28000   381.88445     -91.219451      1.3327859     -89.886665      374.23652    
     29000   381.69615     -91.355707      1.3321287     -90.023578      346.23928    
     30000   344.66274     -91.359503      1.2028812     -90.156622      373.33062    
     31000   379.26487     -91.604213      1.3236435     -90.28057       373.33062    
     32000   388.65629     -91.753628      1.3564198     -90.397208      373.33062    
     33000   363.77539     -91.772261      1.2695848     -90.502676      373.33062    
     34000   318.232       -91.713867      1.1106373     -90.60323       373.33062    
     35000   302.05451     -91.745354      1.0541775     -90.691176      402.71701    
     36000   335.4088      -91.942307      1.1705848     -90.771722      402.71701    
     37000   270.86755     -91.792661      0.94533422    -90.847327      402.71701    
     38000   283.02335     -91.899222      0.98775827    -90.911464      402.71701    
     39000   290.27922     -91.984326      1.0130814     -90.971244      402.71701    
     40000   330.84126     -92.182578      1.1546439     -91.027935      402.71701    
     41000   290.23287     -92.091287      1.0129196     -91.078367      402.71701    
     42000   224.16685     -91.906843      0.78234766    -91.124496      402.71701    
     43000   212.19075     -91.906276      0.7405508     -91.165725      402.71701    
     44000   201.60675     -91.905876      0.70361239    -91.202263      402.71701    
     45000   211.68842     -91.973597      0.73879766    -91.2348        402.71701    
     46000   244.52672     -92.115955      0.85340411    -91.262551      402.71701    
     47000   218.39103     -92.048432      0.76218992    -91.286242      402.71701    
     48000   235.92308     -92.128635      0.82337718    -91.305258      402.71701    
     49000   247.54546     -92.18457       0.86393959    -91.32063       402.71701    
     50000   187.69427     -91.986596      0.65505751    -91.331539      402.71701    
Loop time of 0.952068 on 1 procs for 50000 steps with 28 atoms

Performance: 4537.491 ns/day, 0.005 hours/ns, 52517.257 timesteps/s
100.1% CPU use with 1 MPI tasks x 1 OpenMP threads

MPI task timing breakdown:
Section |  min time  |  avg time  |  max time  |%varavg| %total
---------------------------------------------------------------
Pair    | 0.83387    | 0.83387    | 0.83387    |   0.0 | 87.58
Neigh   | 0.000848   | 0.000848   | 0.000848   |   0.0 |  0.09
Comm    | 0.007      | 0.007      | 0.007      |   0.0 |  0.74
Output  | 0.010826   | 0.010826   | 0.010826   |   0.0 |  1.14
Modify  | 0.079373   | 0.079373   | 0.079373   |   0.0 |  8.34
Other   |            | 0.02015    |            |       |  2.12

Nlocal:             28 ave          28 max          28 min
Histogram: 1 0 0 0 0 0 0 0 0 0
Nghost:              0 ave           0 max           0 min
Histogram: 1 0 0 0 0 0 0 0 0 0
Neighs:            366 ave         366 max         366 min
Histogram: 1 0 0 0 0 0 0 0 0 0

Total # of neighbors = 366
Ave neighs/atom = 13.071429
Neighbor list builds = 109
Dangerous builds = 0
Total wall time: 0:00:00
