LAMMPS (15 Sep 2022)
OMP_NUM_THREADS environment is not set. Defaulting to 1 thread. (src/comm.cpp:98)
  using 1 OpenMP thread(s) per MPI task
Loaded 1 plugins from C:\Users\becat\AppData\Local\LAMMPS 64-bit 15Sep2022\plugins
Lattice spacing in x,y,z = 4.079 4.079 4.079
Created orthogonal box = (0 0 0) to (40.79 40.79 40.79)
  1 by 1 by 1 MPI processor grid
Read molecule template np:
  1 molecules
  0 fragments
  561 atoms with max type 1
  0 bonds with max type 0
  0 angles with max type 0
  0 dihedrals with max type 0
  0 impropers with max type 0
Created 561 atoms
  using lattice units in orthogonal box = (9.0266309 7.0854074 6.9010026) to (31.763369 33.704593 33.888997)
  create_atoms CPU = 0.000 seconds
Neighbor list info ...
  update: every = 1 steps, delay = 10 steps, check = yes
  max neighbors/atom: 2000, page size: 100000
  master list distance cutoff = 7.55
  ghost atom cutoff = 7.55
  binsize = 3.775, bins = 7 8 8
  1 neighbor lists, perpetual/occasional/extra = 1 0 0
  (1) pair eam, perpetual
      attributes: half, newton on
      pair build: half/bin/atomonly/newton
      stencil: half/bin/3d
      bin: standard
Setting up Verlet run ...
  Unit style    : metal
  Current step  : 0
  Time step     : 0.001
Per MPI rank memory allocation (min/avg/max) = 4.57 | 4.57 | 4.57 Mbytes
   Step          Temp          PotEng         KinEng         TotEng         Volume    
         0   300           -2056.3537      21.715704     -2034.638       16334.037    
      1000   243.24006     -2052.2246      17.607098     -2034.6175      14239.434    
      2000   242.58349     -2052.1096      17.559571     -2034.5501      15637.458    
      3000   259.8145      -2053.2404      18.80685      -2034.4336      15456.708    
      4000   269.50422     -2053.7788      19.508247     -2034.2706      15092.575    
      5000   272.79422     -2053.8122      19.746395     -2034.0658      15310.949    
      6000   277.56146     -2053.9203      20.091475     -2033.8288      14914.413    
      7000   290.67432     -2054.6173      21.040658     -2033.5766      15102.838    
      8000   269.96436     -2052.8685      19.541554     -2033.327       14894.963    
      9000   274.51558     -2052.9663      19.870997     -2033.0953      14794.014    
     10000   268.7282      -2052.341       19.452074     -2032.889       14836.893    
     11000   281.27311     -2053.0646      20.360146     -2032.7045      14741.74     
     12000   269.16494     -2052.0173      19.483687     -2032.5336      14913.642    
     13000   269.60799     -2051.8851      19.515758     -2032.3694      14589.772    
     14000   285.19815     -2052.8518      20.644262     -2032.2076      15051.222    
     15000   275.34597     -2051.9744      19.931106     -2032.0433      14987.836    
     16000   279.60399     -2052.1112      20.239325     -2031.8718      14778.629    
     17000   282.78075     -2052.1619      20.469277     -2031.6926      15298.363    
     18000   281.71913     -2051.8991      20.392431     -2031.5067      15306.536    
     19000   281.94356     -2051.7234      20.408677     -2031.3147      15191.769    
     20000   289.06185     -2052.0435      20.923939     -2031.1196      14612.858    
     21000   299.69394     -2052.6144      21.69355      -2030.9208      15029.386    
     22000   287.3297      -2051.52        20.798556     -2030.7214      15145.51     
     23000   278.80357     -2050.7056      20.181387     -2030.5242      14784.566    
     24000   292.036       -2051.4673      21.139225     -2030.3281      14908.723    
     25000   296.79634     -2051.6197      21.483805     -2030.1359      14909.174    
     26000   296.77756     -2051.4313      21.482446     -2029.9489      15148.174    
     27000   292.80195     -2050.9601      21.194668     -2029.7654      15442.444    
     28000   308.07251     -2051.8889      22.300038     -2029.5889      14972.337    
     29000   303.09059     -2051.3576      21.939419     -2029.4181      15007.421    
     30000   290.44287     -2050.2766      21.023905     -2029.2527      14588.91     
     31000   303.7787      -2051.0843      21.989228     -2029.0951      14685.197    
     32000   301.25808     -2050.7515      21.806771     -2028.9448      15362.888    
     33000   297.28752     -2050.32        21.51936      -2028.8007      15208.299    
     34000   297.26769     -2050.1823      21.517924     -2028.6644      14818.286    
     35000   312.87857     -2051.1849      22.647929     -2028.537       15264.847    
     36000   293.11774     -2049.6329      21.217527     -2028.4153      15038.369    
     37000   297.75163     -2049.8552      21.552954     -2028.3022      14943.863    
     38000   315.1276      -2051.0082      22.810726     -2028.1974      15073.799    
     39000   311.18946     -2050.6288      22.525661     -2028.1031      15073.799    
     40000   303.17666     -2049.9634      21.945649     -2028.0177      15302.895    
     41000   311.36914     -2050.4801      22.538668     -2027.9414      14791.492    
     42000   317.77762     -2050.8783      23.002549     -2027.8757      14606.588    
     43000   311.44607     -2050.3641      22.544236     -2027.8198      15325.56     
     44000   308.79519     -2050.1266      22.35235      -2027.7743      14676.415    
     45000   318.11866     -2050.7676      23.027236     -2027.7404      14676.415    
     46000   309.14365     -2050.0935      22.377573     -2027.7159      14779.981    
     47000   310.03444     -2050.145       22.442054     -2027.703       15022.42     
     48000   305.88091     -2049.843       22.141398     -2027.7016      15285.384    
     49000   307.75251     -2049.9899      22.276875     -2027.713       14773.689    
     50000   304.87013     -2049.8057      22.068232     -2027.7374      14907.806    
Loop time of 34.547 on 1 procs for 50000 steps with 561 atoms

Performance: 125.047 ns/day, 0.192 hours/ns, 1447.306 timesteps/s
99.3% CPU use with 1 MPI tasks x 1 OpenMP threads

MPI task timing breakdown:
Section |  min time  |  avg time  |  max time  |%varavg| %total
---------------------------------------------------------------
Pair    | 33.662     | 33.662     | 33.662     |   0.0 | 97.44
Neigh   | 0.053936   | 0.053936   | 0.053936   |   0.0 |  0.16
Comm    | 0.010096   | 0.010096   | 0.010096   |   0.0 |  0.03
Output  | 0.10898    | 0.10898    | 0.10898    |   0.0 |  0.32
Modify  | 0.59243    | 0.59243    | 0.59243    |   0.0 |  1.71
Other   |            | 0.1199     |            |       |  0.35

Nlocal:            561 ave         561 max         561 min
Histogram: 1 0 0 0 0 0 0 0 0 0
Nghost:              0 ave           0 max           0 min
Histogram: 1 0 0 0 0 0 0 0 0 0
Neighs:          19784 ave       19784 max       19784 min
Histogram: 1 0 0 0 0 0 0 0 0 0

Total # of neighbors = 19784
Ave neighs/atom = 35.265597
Neighbor list builds = 83
Dangerous builds = 0
Total wall time: 0:00:34
