LAMMPS (15 Sep 2022)
OMP_NUM_THREADS environment is not set. Defaulting to 1 thread. (src/comm.cpp:98)
  using 1 OpenMP thread(s) per MPI task
Loaded 1 plugins from C:\Users\becat\AppData\Local\LAMMPS 64-bit 15Sep2022\plugins
dimension 3
units metal
atom_style  atomic
boundary p p f
lattice fcc 4.079
Lattice spacing in x,y,z = 4.079 4.079 4.079

region box block 0 30 0 30 0 100
create_box 8 box
Created orthogonal box = (0 0 0) to (122.37 122.37 407.9)
  1 by 1 by 1 MPI processor grid
region fixed block 0 30 0 30 0 1 side in
create_atoms 1 region fixed
Created 5400 atoms
  using lattice units in orthogonal box = (0 0 0) to (122.37 122.37 407.9)
  create_atoms CPU = 0.001 seconds
group fixed region fixed
5400 atoms in group fixed

region thermal block 0 30 0 30 1.1 5
create_atoms 2 region thermal
Created 14400 atoms
  using lattice units in orthogonal box = (0 0 0) to (122.37 122.37 407.9)
  create_atoms CPU = 0.008 seconds
group thermal region thermal
14400 atoms in group thermal

region free block 0 30 0 30 5.1 10
create_atoms 3 region free
Created 18000 atoms
  using lattice units in orthogonal box = (0 0 0) to (122.37 122.37 407.9)
  create_atoms CPU = 0.003 seconds

group free region free
18000 atoms in group free

region nano1 block 0 30 0 30 11 35
region nano2 block 0 30 0 30 11 60
region nano3 block 0 30 0 30 15 80
region nano4 block 0 30 0 30 15 100


pair_style eam
pair_coeff * * Au.eam
velocity thermal create 300. 123789 rot yes dist gaussian

fix th thermal temp/berendsen 300. 300. 10.
fix mv fixed move linear 0 0 0
molecule molec molecules/Au520MDh3-4-3.molecule.therm.molecule
Read molecule template molec:
  1 molecules
  0 fragments
  520 atoms with max type 1
  0 bonds with max type 0
  0 angles with max type 0
  0 dihedrals with max type 0
  0 impropers with max type 0
molecule nano2 molecules/Au1228mDh.molecule.therm.molecule
Read molecule template nano2:
  1 molecules
  0 fragments
  1228 atoms with max type 1
  0 bonds with max type 0
  0 angles with max type 0
  0 dihedrals with max type 0
  0 impropers with max type 0
molecule nano3 molecules/Au887MDh453.molecule.therm.molecule
Read molecule template nano3:
  1 molecules
  0 fragments
  887 atoms with max type 1
  0 bonds with max type 0
  0 angles with max type 0
  0 dihedrals with max type 0
  0 impropers with max type 0
molecule nano4 molecules/Au147Ih.molecule.therm.molecule
Read molecule template nano4:
  1 molecules
  0 fragments
  147 atoms with max type 1
  0 bonds with max type 0
  0 angles with max type 0
  0 dihedrals with max type 0
  0 impropers with max type 0
lattice	diamond 60
Lattice spacing in x,y,z = 60 60 60

create_atoms 3 random 10 123875 nano1 overlap 0.02 maxtry 150 mol molec 123789
Created 5200 atoms
  using lattice units in orthogonal box = (0 0 0) to (122.37 122.37 407.9)
  create_atoms CPU = 0.005 seconds
create_atoms 4 random 15 145983 nano1 overlap 0.02 maxtry 15000 mol nano2 197345
Created 18420 atoms
  using lattice units in orthogonal box = (0 0 0) to (122.37 122.37 407.9)
  create_atoms CPU = 0.072 seconds
create_atoms 5 random 5 145993 nano1 overlap 0.01 maxtry 10550 mol nano3 197345
Created 4435 atoms
  using lattice units in orthogonal box = (0 0 0) to (122.37 122.37 407.9)
  create_atoms CPU = 0.251 seconds
create_atoms 6 random 5 145993 nano1 overlap 0.01 maxtry 10550 mol nano4 197345
Created 735 atoms
  using lattice units in orthogonal box = (0 0 0) to (122.37 122.37 407.9)
  create_atoms CPU = 0.012 seconds

write_data lattice.data
System init for write_data ...
Neighbor list info ...
  update: every = 1 steps, delay = 10 steps, check = yes
  max neighbors/atom: 2000, page size: 100000
  master list distance cutoff = 7.55
  ghost atom cutoff = 7.55
  binsize = 3.775, bins = 33 33 109
  1 neighbor lists, perpetual/occasional/extra = 1 0 0
  (1) pair eam, perpetual
      attributes: half, newton on
      pair build: half/bin/atomonly/newton
      stencil: half/bin/3d
      bin: standard
group nano type 4 5 6 7
28790 atoms in group nano

velocity nano set 0 0 -0.005

compute nanocom nano com
compute ttherm thermal temp
compute tfree free temp

timestep 0.01

thermo 100
thermo_style custom step temp pe ke etotal vol c_nanocom[3] c_ttherm c_tfree

dump mydmp all custom 1000 dump/dump.lattice x y z vx vy vz type

fix	1 all nve
run 25000
WARNING: One or more atoms are time integrated more than once (src/modify.cpp:292)
Per MPI rank memory allocation (min/avg/max) = 39.5 | 39.5 | 39.5 Mbytes
   Step          Temp          PotEng         KinEng         TotEng         Volume      c_nanocom[3]     c_ttherm       c_tfree    
         0   67.943815     -253422.11      584.81305     -252837.3       6108064.7      102.9726       300            0            
       100   107.24361     -253732.48      923.07837     -252809.41      6108064.7      102.66923      125.72226      24.049858    
       200   111.29039     -253736.32      957.91018     -252778.41      6108064.7      102.35403      127.82095      36.866598    
       300   118.21051     -253762.69      1017.4738     -252745.22      6108064.7      102.02536      117.07091      54.465256    
       400   124.47817     -253781.87      1071.4214     -252710.45      6108064.7      101.68537      109.41353      70.701618    
       500   129.10084     -253786.55      1111.2102     -252675.34      6108064.7      101.33503      112.72402      80.913837    
       600   131.67773     -253773.81      1133.3903     -252640.42      6108064.7      100.98094      112.22822      88.127539    
       700   134.99507     -253768.19      1161.9436     -252606.24      6108064.7      100.63111      118.50881      89.580755    
       800   137.52514     -253756.48      1183.7207     -252572.76      6108064.7      100.29113      123.44307      95.06003     
       900   141.22986     -253756.24      1215.6083     -252540.64      6108064.7      99.963699      128.86133      103.22887    
      1000   143.66426     -253745.93      1236.5619     -252509.37      6108064.7      99.648904      132.83022      105.31246    
      1100   145.92089     -253734.51      1255.9854     -252478.52      6108064.7      99.345332      133.00178      113.16675    
      1200   147.91487     -253721.27      1273.1482     -252448.12      6108064.7      99.053881      138.14917      114.04643    
      1300   150.7234      -253715.5       1297.3221     -252418.18      6108064.7      98.764425      139.14712      120.75874    
      1400   153.28119     -253708.37      1319.3377     -252389.03      6108064.7      98.472476      144.54419      125.15208    
      1500   156.85467     -253710.94      1350.0958     -252360.84      6108064.7      98.171555      151.13624      127.05094    
      1600   158.68003     -253699.18      1365.8072     -252333.37      6108064.7      97.867022      150.75172      132.58967    
      1700   161.03592     -253692.2       1386.0851     -252306.11      6108064.7      97.562874      153.59802      134.14292    
      1800   163.67356     -253688         1408.788      -252279.21      6108064.7      97.254925      156.83414      138.83921    
      1900   166.83851     -253689.22      1436.0298     -252253.19      6108064.7      96.936758      160.70865      144.46145    
      2000   170.20281     -253693.03      1464.9873     -252228.05      6108064.7      96.5966        166.32488      146.92994    
      2100   173.87656     -253700.09      1496.6084     -252203.48      6108064.7      96.237884      167.14722      151.81434    
      2200   176.56189     -253698.72      1519.7218     -252178.99      6108064.7      95.869027      169.11991      155.49149    
      2300   179.01875     -253695.83      1540.8688     -252154.96      6108064.7      95.496935      171.09204      160.14555    
      2400   181.80139     -253696.74      1564.8198     -252131.92      6108064.7      95.131294      176.55308      166.53257    
      2500   183.27565     -253687.24      1577.5092     -252109.73      6108064.7      94.780308      181.71396      170.20293    
      2600   184.54158     -253676.49      1588.4055     -252088.09      6108064.7      94.454846      183.54432      173.68069    
      2700   186.58492     -253672.71      1605.9931     -252066.72      6108064.7      94.160647      185.56204      178.46577    
      2800   188.76113     -253670.69      1624.7244     -252045.97      6108064.7      93.887482      188.03065      181.6066     
      2900   190.99516     -253669.79      1643.9534     -252025.83      6108064.7      93.624567      193.56073      184.01557    
      3000   193.14964     -253668.97      1662.4976     -252006.47      6108064.7      93.36034       198.09247      187.48409    
      3100   195.81527     -253673.26      1685.4415     -251987.82      6108064.7      93.094239      200.10263      190.75933    
      3200   196.99953     -253665.06      1695.6348     -251969.42      6108064.7      92.824229      201.06668      192.67935    
      3300   198.67822     -253661.51      1710.0838     -251951.43      6108064.7      92.549046      204.81697      197.66334    
      3400   201.59711     -253669.35      1735.2075     -251934.14      6108064.7      92.267729      209.01556      201.34749    
      3500   203.9264      -253673.07      1755.2565     -251917.81      6108064.7      91.981543      212.62067      205.71101    
      3600   206.15529     -253676.43      1774.4412     -251901.99      6108064.7      91.707188      213.76517      209.08886    
      3700   208.3204      -253679.67      1793.077      -251886.6       6108064.7      91.45109       216.56886      212.65029    
      3800   209.31101     -253672.98      1801.6034     -251871.38      6108064.7      91.209419      218.71741      216.53143    
      3900   211.10143     -253673.54      1817.0141     -251856.53      6108064.7      90.975873      218.52804      218.45382    
      4000   213.90357     -253683.62      1841.133      -251842.48      6108064.7      90.751289      226.74429      222.71708    
      4100   214.01339     -253671.07      1842.0783     -251829         6108064.7      90.527399      225.7944       222.66865    
      4200   215.17895     -253668.01      1852.1106     -251815.9       6108064.7      90.307683      227.94948      223.47374    
      4300   217.07292     -253671.62      1868.4125     -251803.21      6108064.7      90.085427      231.04492      226.93231    
      4400   218.23367     -253669.2       1878.4035     -251790.79      6108064.7      89.847518      234.11014      228.75311    
      4500   220.1986      -253674.1       1895.3163     -251778.78      6108064.7      89.585539      237.77525      232.51561    
      4600   221.50263     -253673.87      1906.5405     -251767.33      6108064.7      89.312139      240.03105      233.56151    
      4700   223.23591     -253677.96      1921.4593     -251756.51      6108064.7      89.030301      241.21882      235.61847    
      4800   224.34363     -253676.97      1930.9938     -251745.98      6108064.7      88.745173      245.37704      235.79439    
      4900   226.89339     -253688.8       1952.9403     -251735.86      6108064.7      88.466212      244.90472      238.98561    
      5000   227.85827     -253687.26      1961.2454     -251726.01      6108064.7      88.197035      246.04923      240.10952    
      5100   229.68038     -253693.47      1976.9288     -251716.54      6108064.7      87.93006       249.39768      244.72998    
      5200   229.74999     -253684.86      1977.528      -251707.33      6108064.7      87.679661      248.82987      245.92298    
      5300   230.15878     -253679.42      1981.0465     -251698.37      6108064.7      87.442706      249.71032      249.53298    
      5400   231.22788     -253679.76      1990.2486     -251689.51      6108064.7      87.214028      252.08678      249.77124    
      5500   232.40203     -253681.26      2000.3548     -251680.91      6108064.7      86.987817      252.45026      252.00287    
      5600   233.73326     -253684.49      2011.8131     -251672.68      6108064.7      86.759508      255.21675      254.55954    
      5700   235.03432     -253687.76      2023.0118     -251664.75      6108064.7      86.527146      258.19751      254.93315    
      5800   236.64864     -253694.21      2036.9067     -251657.3       6108064.7      86.288605      260.96423      256.19604    
      5900   236.51496     -253686.02      2035.7561     -251650.27      6108064.7      86.056929      259.05639      255.0363     
      6000   237.9017      -253691.09      2047.6922     -251643.4       6108064.7      85.833206      260.71185      256.77505    
      6100   241.4042      -253714.67      2077.8392     -251636.83      6108064.7      85.620019      264.88278      261.63472    
      6200   239.97399     -253695.78      2065.529      -251630.26      6108064.7      85.423431      264.13164      260.47841    
      6300   240.78686     -253696.56      2072.5256     -251624.03      6108064.7      85.236496      265.65829      263.0307     
      6400   241.80832     -253699.33      2081.3177     -251618.01      6108064.7      85.05095       265.85164      263.15798    
      6500   244.38527     -253715.72      2103.4983     -251612.23      6108064.7      84.868284      265.76697      267.15698    
      6600   245.89342     -253723         2116.4793     -251606.52      6108064.7      84.682776      268.24468      269.83432    
      6700   246.48055     -253722.58      2121.5329     -251601.05      6108064.7      84.492955      270.13911      269.68266    
      6800   247.57221     -253726.67      2130.9293     -251595.74      6108064.7      84.29724       271.45968      271.27348    
      6900   248.38456     -253728.81      2137.9214     -251590.89      6108064.7      84.105493      273.08065      272.40197    
      7000   249.27967     -253731.96      2145.6259     -251586.33      6108064.7      83.920218      276.53274      275.66894    
      7100   250.55249     -253738.57      2156.5814     -251581.99      6108064.7      83.74814       275.28079      274.95481    
      7200   249.68366     -253726.72      2149.1031     -251577.62      6108064.7      83.583777      273.91149      275.57578    
      7300   250.18991     -253726.81      2153.4605     -251573.35      6108064.7      83.421045      274.22479      277.93388    
      7400   251.88231     -253737.3       2168.0276     -251569.27      6108064.7      83.257313      276.69625      278.03497    
      7500   252.07512     -253735.13      2169.6871     -251565.45      6108064.7      83.088141      275.9829       277.28101    
      7600   254.02523     -253748.47      2186.4723     -251562         6108064.7      82.902712      281.72757      279.02268    
      7700   254.54361     -253749.64      2190.9342     -251558.7       6108064.7      82.710306      281.94362      277.87218    
      7800   256.32215     -253761.91      2206.2426     -251555.67      6108064.7      82.517829      281.9696       280.31203    
      7900   256.39806     -253759.86      2206.896      -251552.96      6108064.7      82.332191      282.19607      281.84533    
      8000   256.96099     -253762.05      2211.7413     -251550.31      6108064.7      82.153865      283.69256      282.2439     
      8100   258.38666     -253771.78      2224.0125     -251547.77      6108064.7      81.987366      285.1129       282.3294     
      8200   259.16397     -253775.94      2230.703      -251545.24      6108064.7      81.823192      284.85865      282.26941    
      8300   258.67911     -253769.28      2226.5297     -251542.75      6108064.7      81.664215      286.67841      281.46634    
      8400   260.16465     -253780.1       2239.3162     -251540.78      6108064.7      81.504446      286.88648      283.74456    
      8500   260.24831     -253778.92      2240.0363     -251538.89      6108064.7      81.340202      287.92364      284.23912    
      8600   261.77548     -253790.19      2253.181      -251537.01      6108064.7      81.171056      286.95501      287.22116    
      8700   261.91026     -253789.24      2254.3412     -251534.9       6108064.7      81.003619      289.26373      286.00511    
      8800   263.74141     -253803.11      2270.1025     -251533         6108064.7      80.840387      287.07554      287.80735    
      8900   265.22616     -253814.18      2282.8821     -251531.3       6108064.7      80.692574      290.97291      286.11028    
      9000   264.82944     -253809.28      2279.4675     -251529.81      6108064.7      80.550258      290.03489      285.94874    
      9100   266.52598     -253822.44      2294.0701     -251528.37      6108064.7      80.411032      290.08481      290.61106    
      9200   267.636       -253830.44      2303.6244     -251526.81      6108064.7      80.270765      290.03464      288.45646    
      9300   269.39872     -253844.31      2318.7967     -251525.52      6108064.7      80.129607      294.18732      291.46536    
      9400   269.38831     -253843.03      2318.707      -251524.32      6108064.7      79.979077      292.0171       292.84274    
      9500   270.33754     -253850.17      2326.8773     -251523.29      6108064.7      79.824762      292.86233      293.38209    
      9600   271.49413     -253859.3       2336.8324     -251522.47      6108064.7      79.671504      294.27404      292.71077    
      9700   272.37714     -253866.19      2344.4328     -251521.76      6108064.7      79.521782      292.94548      294.80569    
      9800   272.48529     -253866.75      2345.3637     -251521.39      6108064.7      79.372289      298.15096      294.10777    
      9900   272.62486     -253867.46      2346.565      -251520.9       6108064.7      79.222753      297.68805      295.68227    
     10000   273.47431     -253874.31      2353.8765     -251520.43      6108064.7      79.075707      295.26548      295.44465    
     10100   271.66439     -253858.18      2338.2979     -251519.88      6108064.7      78.934709      293.98965      293.04968    
     10200   272.64865     -253866.47      2346.7698     -251519.7       6108064.7      78.79896       294.12822      295.56459    
     10300   273.69303     -253875.16      2355.759      -251519.4       6108064.7      78.665196      293.01198      301.04622    
     10400   274.45684     -253881.38      2362.3334     -251519.04      6108064.7      78.541744      297.29526      298.19568    
     10500   274.15362     -253878.59      2359.7235     -251518.87      6108064.7      78.433046      297.00852      299.68248    
     10600   274.0038      -253877.36      2358.4339     -251518.93      6108064.7      78.336441      298.3516       295.1107     
     10700   275.86735     -253893.64      2374.4741     -251519.17      6108064.7      78.247446      296.76717      300.42352    
     10800   275.27852     -253888.7       2369.4059     -251519.3       6108064.7      78.167517      298.59629      301.19759    
     10900   276.83553     -253902.27      2382.8075     -251519.46      6108064.7      78.092358      297.93382      301.42692    
     11000   275.85267     -253893.99      2374.3477     -251519.65      6108064.7      78.019676      297.35691      302.32109    
     11100   277.2333      -253906.2       2386.2312     -251519.97      6108064.7      77.952599      298.90872      302.78354    
     11200   276.3907      -253899.2       2378.9787     -251520.22      6108064.7      77.893814      298.10892      301.78141    
     11300   277.10557     -253905.99      2385.1319     -251520.86      6108064.7      77.84479       302.17276      299.81074    
     11400   277.90562     -253913.65      2392.0181     -251521.63      6108064.7      77.799112      303.3496       303.67171    
     11500   278.2248      -253917.25      2394.7654     -251522.48      6108064.7      77.75677       302.18026      303.98634    
     11600   278.98419     -253924.72      2401.3017     -251523.42      6108064.7      77.712635      302.07961      304.69353    
     11700   279.81035     -253932.74      2408.4127     -251524.33      6108064.7      77.66426       302.96121      303.38192    
     11800   278.57134     -253922.74      2397.7482     -251524.99      6108064.7      77.615898      302.25903      300.58582    
     11900   278.81402     -253925.8       2399.837      -251525.96      6108064.7      77.563215      302.75616      302.35674    
     12000   279.7357      -253934.74      2407.7702     -251526.97      6108064.7      77.507126      302.00683      302.53584    
     12100   280.27609     -253940.29      2412.4215     -251527.87      6108064.7      77.445273      304.84537      302.88538    
     12200   280.82289     -253945.92      2417.1279     -251528.8       6108064.7      77.381367      302.80485      303.48455    
     12300   281.71159     -253954.7       2424.7772     -251529.92      6108064.7      77.318751      305.21932      304.32705    
     12400   281.69916     -253955.87      2424.6703     -251531.2       6108064.7      77.247837      304.29392      304.58092    
     12500   283.05973     -253968.81      2436.3811     -251532.43      6108064.7      77.171423      301.85483      303.49218    
     12600   283.83251     -253976.58      2443.0326     -251533.54      6108064.7      77.088271      301.68828      304.96157    
     12700   285.94008     -253995.94      2461.1731     -251534.77      6108064.7      76.998121      305.14485      305.16651    
     12800   285.77796     -253995.67      2459.7777     -251535.89      6108064.7      76.905554      304.41535      305.4401     
     12900   286.72343     -254004.97      2467.9157     -251537.05      6108064.7      76.812906      304.10582      306.59837    
     13000   285.82177     -253998.45      2460.1548     -251538.29      6108064.7      76.728635      304.94324      305.18676    
     13100   287.01272     -254009.97      2470.4056     -251539.57      6108064.7      76.653173      302.41067      308.00911    
     13200   287.02248     -254011.45      2470.4896     -251540.96      6108064.7      76.586615      304.38051      304.94789    
     13300   287.72662     -254018.92      2476.5504     -251542.37      6108064.7      76.525847      303.57533      307.27128    
     13400   288.99042     -254031.28      2487.4283     -251543.85      6108064.7      76.467904      305.96529      310.23921    
     13500   288.93178     -254032.22      2486.9236     -251545.29      6108064.7      76.410429      307.10498      306.46397    
     13600   289.02428     -254034.58      2487.7198     -251546.86      6108064.7      76.353708      306.44869      307.66662    
     13700   289.19494     -254037.66      2489.1887     -251548.48      6108064.7      76.293518      305.43818      308.21012    
     13800   290.67632     -254052.21      2501.9394     -251550.27      6108064.7      76.233504      304.6883       311.96252    
     13900   290.72798     -254054.12      2502.384      -251551.73      6108064.7      76.185304      307.4165       310.04369    
     14000   289.81974     -254047.79      2494.5665     -251553.22      6108064.7      76.137069      304.19567      309.45955    
     14100   291.55693     -254064.01      2509.5191     -251554.49      6108064.7      76.084423      303.28732      310.97268    
     14200   292.5007      -254073.16      2517.6424     -251555.52      6108064.7      76.032555      305.53186      310.21451    
     14300   292.53053     -254074.65      2517.8992     -251556.75      6108064.7      75.978043      303.42897      311.41258    
     14400   292.99489     -254079.9       2521.896      -251558         6108064.7      75.921326      304.54603      312.57939    
     14500   293.93598     -254089.41      2529.9963     -251559.41      6108064.7      75.867438      304.54774      314.22911    
     14600   295.23076     -254102.02      2541.1409     -251560.88      6108064.7      75.821414      307.74969      311.12809    
     14700   294.81049     -254099.72      2537.5235     -251562.2       6108064.7      75.776599      303.25343      311.63364    
     14800   296.29556     -254113.89      2550.3059     -251563.59      6108064.7      75.73141       304.2349       314.87162    
     14900   296.48769     -254117.18      2551.9596     -251565.22      6108064.7      75.6862        309.49233      312.41313    
     15000   295.24867     -254108.39      2541.295      -251567.1       6108064.7      75.640209      304.14788      311.04847    
     15100   296.62817     -254122.25      2553.1688     -251569.08      6108064.7      75.597735      304.80006      313.25421    
     15200   295.67373     -254115.95      2544.9536     -251570.99      6108064.7      75.559379      306.02243      313.6832     
     15300   297.40801     -254132.97      2559.8811     -251573.09      6108064.7      75.530899      310.38519      311.95444    
     15400   296.78162     -254129.54      2554.4895     -251575.05      6108064.7      75.506466      308.71788      312.50605    
     15500   296.95958     -254133.38      2556.0213     -251577.36      6108064.7      75.489356      308.7471       313.11082    
     15600   298.10987     -254145.47      2565.9222     -251579.55      6108064.7      75.473083      308.84375      314.65989    
     15700   299.20648     -254157.07      2575.3611     -251581.71      6108064.7      75.457661      311.31973      316.42529    
     15800   299.34394     -254160.35      2576.5442     -251583.8       6108064.7      75.43369       310.75544      313.61467    
     15900   299.13617     -254160.63      2574.7559     -251585.88      6108064.7      75.40538       306.3241       314.31924    
     16000   298.99834     -254161.64      2573.5695     -251588.07      6108064.7      75.370344      311.90502      316.02793    
     16100   299.81664     -254170.93      2580.6129     -251590.32      6108064.7      75.340194      309.82486      316.0417     
     16200   298.09001     -254158.36      2565.7513     -251592.61      6108064.7      75.315156      309.71867      313.66723    
     16300   299.94613     -254176.95      2581.7274     -251595.22      6108064.7      75.298839      310.38888      314.80245    
     16400   301.20759     -254190.33      2592.5853     -251597.74      6108064.7      75.286858      311.12197      317.45288    
     16500   299.27429     -254176.13      2575.9447     -251600.18      6108064.7      75.274469      312.10415      314.38352    
     16600   301.39303     -254197.04      2594.1813     -251602.86      6108064.7      75.25934       313.06535      317.0314     
     16700   300.16704     -254189.11      2583.6289     -251605.48      6108064.7      75.238477      310.02262      316.13773    
     16800   299.86024     -254189.1       2580.9882     -251608.11      6108064.7      75.219716      309.4281       314.99868    
     16900   301.32858     -254204.27      2593.6266     -251610.64      6108064.7      75.20558       312.64303      316.3925     
     17000   301.24747     -254206.14      2592.9285     -251613.22      6108064.7      75.195078      314.17817      316.90369    
     17100   300.05158     -254198.39      2582.6351     -251615.76      6108064.7      75.185738      312.5265       314.37293    
     17200   300.43478     -254204.41      2585.9334     -251618.47      6108064.7      75.179817      309.77349      316.96311    
     17300   301.3275      -254214.84      2593.6173     -251621.23      6108064.7      75.177669      313.10186      316.91462    
     17400   302.22202     -254225.23      2601.3167     -251623.91      6108064.7      75.176331      312.33141      315.88375    
     17500   302.37948     -254229.21      2602.6721     -251626.54      6108064.7      75.170222      312.35863      317.05707    
     17600   302.32625     -254231.28      2602.2139     -251629.06      6108064.7      75.158336      311.30644      316.31555    
     17700   302.16482     -254232.32      2600.8244     -251631.5       6108064.7      75.153114      311.12533      318.16963    
     17800   302.00194     -254233.69      2599.4224     -251634.27      6108064.7      75.145323      311.96974      317.41657    
     17900   302.78388     -254243.32      2606.1529     -251637.17      6108064.7      75.141092      315.69543      316.33467    
     18000   301.96248     -254239.36      2599.0828     -251640.28      6108064.7      75.146443      309.10277      317.25582    
     18100   301.58883     -254239.1       2595.8667     -251643.24      6108064.7      75.153028      310.99111      313.62089    
     18200   301.69273     -254242.9       2596.761      -251646.14      6108064.7      75.159669      311.79429      316.78874    
     18300   302.34353     -254251.54      2602.3626     -251649.18      6108064.7      75.164418      311.26292      316.44507    
     18400   302.30321     -254254.14      2602.0156     -251652.13      6108064.7      75.158669      314.21068      317.47576    
     18500   302.17514     -254256.2       2600.9132     -251655.28      6108064.7      75.154163      314.9711       315.20344    
     18600   301.44882     -254253.03      2594.6616     -251658.37      6108064.7      75.143873      315.40607      315.23967    
     18700   301.55216     -254257.11      2595.551      -251661.56      6108064.7      75.130827      313.47039      315.35316    
     18800   301.21094     -254257.29      2592.6141     -251664.68      6108064.7      75.108347      316.10697      313.88573    
     18900   301.52453     -254262.91      2595.3132     -251667.6       6108064.7      75.072534      314.41092      317.474      
     19000   302.03074     -254270.16      2599.6703     -251670.49      6108064.7      75.028432      314.78999      317.20057    
     19100   301.46806     -254268.42      2594.8272     -251673.59      6108064.7      74.976905      314.66019      312.9759     
     19200   302.18621     -254277.72      2601.0085     -251676.71      6108064.7      74.923659      311.48324      317.18184    
     19300   302.21897     -254281.21      2601.2905     -251679.92      6108064.7      74.877163      314.18992      316.78594    
     19400   300.90963     -254272.87      2590.0206     -251682.85      6108064.7      74.840768      312.66892      315.29916    
     19500   302.81477     -254292.35      2606.4187     -251685.93      6108064.7      74.813495      314.24032      316.8402     
     19600   301.10043     -254280.56      2591.6629     -251688.89      6108064.7      74.793467      315.4771       313.5168     
     19700   301.01981     -254283.01      2590.9689     -251692.04      6108064.7      74.77981       316.11359      316.3066     
     19800   301.31412     -254288.72      2593.5022     -251695.21      6108064.7      74.767982      311.73641      315.92862    
     19900   301.41675     -254292.77      2594.3855     -251698.38      6108064.7      74.757661      313.3229       315.96332    
     20000   301.6592      -254297.91      2596.4724     -251701.43      6108064.7      74.751304      313.41736      316.56635    
     20100   300.85214     -254293.7       2589.5258     -251704.17      6108064.7      74.743401      311.0489       316.20126    
     20200   300.78008     -254295.51      2588.9055     -251706.61      6108064.7      74.73844       311.93964      317.0639     
     20300   301.29756     -254302.44      2593.3596     -251709.08      6108064.7      74.735002      311.84617      319.03063    
     20400   301.32343     -254305.3       2593.5823     -251711.72      6108064.7      74.73157       312.45844      315.74155    
     20500   301.32479     -254307.99      2593.594      -251714.4       6108064.7      74.725623      310.07286      317.23294    
     20600   299.53422     -254295.23      2578.182      -251717.05      6108064.7      74.719532      311.75739      316.70709    
     20700   300.84999     -254309.2       2589.5073     -251719.7       6108064.7      74.713145      311.80623      316.21254    
     20800   299.87691     -254303.57      2581.1317     -251722.44      6108064.7      74.709055      311.04553      315.8958     
     20900   300.73651     -254313.69      2588.5305     -251725.16      6108064.7      74.702146      311.54949      317.66543    
     21000   300.19621     -254311.68      2583.88       -251727.8       6108064.7      74.696474      312.15314      317.78299    
     21100   299.65336     -254309.39      2579.2075     -251730.19      6108064.7      74.693359      311.44679      316.83933    
     21200   299.20549     -254308.27      2575.3525     -251732.92      6108064.7      74.688554      313.65583      314.57438    
     21300   298.82187     -254307.89      2572.0506     -251735.84      6108064.7      74.690334      313.5355       312.62605    
     21400   300.21968     -254323.02      2584.082      -251738.94      6108064.7      74.692863      313.59308      316.46689    
     21500   300.63469     -254329.38      2587.6541     -251741.73      6108064.7      74.690711      312.80463      317.43222    
     21600   299.85706     -254325.16      2580.9608     -251744.2       6108064.7      74.68141       312.05567      315.54909    
     21700   299.46029     -254324         2577.5457     -251746.45      6108064.7      74.667676      311.10757      316.22745    
     21800   299.36784     -254325.79      2576.7499     -251749.04      6108064.7      74.649937      314.56507      313.93186    
     21900   298.65361     -254322.49      2570.6024     -251751.89      6108064.7      74.626378      313.04991      314.23981    
     22000   300.27567     -254339.13      2584.5639     -251754.57      6108064.7      74.598554      312.61852      317.28634    
     22100   300.13607     -254340.32      2583.3623     -251756.95      6108064.7      74.571756      309.86379      314.23729    
     22200   300.28497     -254343.86      2584.644      -251759.21      6108064.7      74.549719      307.98439      317.59757    
     22300   300.09807     -254344.66      2583.0353     -251761.62      6108064.7      74.527499      310.70742      316.52342    
     22400   299.80785     -254344.78      2580.5372     -251764.24      6108064.7      74.510127      312.43685      314.47899    
     22500   300.0016      -254349.11      2582.2049     -251766.9       6108064.7      74.505739      311.79222      314.94543    
     22600   299.22763     -254345.12      2575.5431     -251769.58      6108064.7      74.50849       308.99271      314.92315    
     22700   300.46821     -254358.19      2586.2212     -251771.96      6108064.7      74.510427      310.73196      315.12089    
     22800   299.19355     -254349.66      2575.2498     -251774.41      6108064.7      74.510453      311.64496      315.01195    
     22900   298.33423     -254344.77      2567.8534     -251776.92      6108064.7      74.511696      312.05798      310.83555    
     23000   298.76372     -254351.3       2571.5501     -251779.75      6108064.7      74.509552      312.59038      312.45887    
     23100   298.7521      -254354         2571.4501     -251782.55      6108064.7      74.511105      312.10643      314.01955    
     23200   299.10285     -254359.61      2574.4691     -251785.14      6108064.7      74.507968      310.91457      312.99494    
     23300   298.19901     -254354.24      2566.6895     -251787.55      6108064.7      74.504237      310.2857       313.22028    
     23400   300.06875     -254372.9       2582.7829     -251790.12      6108064.7      74.498814      312.85012      314.25009    
     23500   298.51503     -254362.02      2569.4095     -251792.61      6108064.7      74.485421      312.21195      313.87269    
     23600   298.67741     -254365.94      2570.8072     -251795.13      6108064.7      74.466797      308.79508      316.61029    
     23700   297.94847     -254362.09      2564.533      -251797.55      6108064.7      74.458935      308.81396      314.65182    
     23800   298.42614     -254368.74      2568.6444     -251800.1       6108064.7      74.449912      309.53327      316.75196    
     23900   298.40766     -254370.98      2568.4853     -251802.49      6108064.7      74.440583      309.4837       316.0163     
     24000   297.61589     -254366.34      2561.6704     -251804.67      6108064.7      74.434031      309.86404      313.4743     
     24100   298.43216     -254375.57      2568.6963     -251806.87      6108064.7      74.425638      310.79453      313.48469    
     24200   297.37958     -254368.73      2559.6364     -251809.1       6108064.7      74.412827      308.74189      312.99664    
     24300   298.75279     -254382.91      2571.456      -251811.45      6108064.7      74.396582      311.34986      313.38499    
     24400   298.04682     -254379.17      2565.3795     -251813.79      6108064.7      74.38139       312.28886      312.67016    
     24500   297.40492     -254376.1       2559.8545     -251816.25      6108064.7      74.366238      307.41334      312.25273    
     24600   297.13062     -254376.41      2557.4935     -251818.92      6108064.7      74.350885      310.13195      310.47774    
     24700   298.00944     -254386.49      2565.0578     -251821.44      6108064.7      74.336313      311.47495      310.92139    
     24800   297.79532     -254387.24      2563.2148     -251824.03      6108064.7      74.322116      312.48397      311.63924    
     24900   297.7665      -254389.47      2562.9667     -251826.5       6108064.7      74.309061      309.89711      313.03439    
     25000   298.99669     -254402.68      2573.5554     -251829.12      6108064.7      74.297088      312.88399      312.67944    
Loop time of 2111.82 on 1 procs for 25000 steps with 66590 atoms

Performance: 10.228 ns/day, 2.346 hours/ns, 11.838 timesteps/s
99.9% CPU use with 1 MPI tasks x 1 OpenMP threads

MPI task timing breakdown:
Section |  min time  |  avg time  |  max time  |%varavg| %total
---------------------------------------------------------------
Pair    | 1983.1     | 1983.1     | 1983.1     |   0.0 | 93.90
Neigh   | 81.499     | 81.499     | 81.499     |   0.0 |  3.86
Comm    | 6.1305     | 6.1305     | 6.1305     |   0.0 |  0.29
Output  | 5.4313     | 5.4313     | 5.4313     |   0.0 |  0.26
Modify  | 27.003     | 27.003     | 27.003     |   0.0 |  1.28
Other   |            | 8.664      |            |       |  0.41

Nlocal:          66590 ave       66590 max       66590 min
Histogram: 1 0 0 0 0 0 0 0 0 0
Nghost:          15291 ave       15291 max       15291 min
Histogram: 1 0 0 0 0 0 0 0 0 0
Neighs:    3.00289e+06 ave 3.00289e+06 max 3.00289e+06 min
Histogram: 1 0 0 0 0 0 0 0 0 0

Total # of neighbors = 3002886
Ave neighs/atom = 45.095149
Neighbor list builds = 1015
Dangerous builds = 0
write_data lattice.firstdep
System init for write_data ...
WARNING: One or more atoms are time integrated more than once (src/modify.cpp:292)

create_atoms 3 random 10 123875 nano2 overlap 0.02 maxtry 150 mol molec 123789
Created 5200 atoms
  using lattice units in orthogonal box = (0 0 0) to (122.37 122.37 407.9)
  create_atoms CPU = 0.018 seconds
create_atoms 4 random 15 145983 nano2 overlap 0.02 maxtry 15000 mol nano2 197345
Created 18420 atoms
  using lattice units in orthogonal box = (0 0 0) to (122.37 122.37 407.9)
  create_atoms CPU = 0.059 seconds
create_atoms 5 random 5 145993 nano2 overlap 0.02 maxtry 10550 mol nano3 197345
Created 4435 atoms
  using lattice units in orthogonal box = (0 0 0) to (122.37 122.37 407.9)
  create_atoms CPU = 0.070 seconds
create_atoms 6 random 5 145993 nano2 overlap 0.01 maxtry 10550 mol nano4 197345
Created 735 atoms
  using lattice units in orthogonal box = (0 0 0) to (122.37 122.37 407.9)
  create_atoms CPU = 0.011 seconds
group nano type 4 5 6 7
57580 atoms in group nano

velocity nano set 0 0 -0.005

run 25000
WARNING: One or more atoms are time integrated more than once (src/modify.cpp:292)
Per MPI rank memory allocation (min/avg/max) = 53.19 | 53.19 | 53.19 Mbytes
   Step          Temp          PotEng         KinEng         TotEng         Volume      c_nanocom[3]     c_ttherm       c_tfree    
     25000   110.69317     -361092.69      1364.7033     -359727.99      6108064.7      126.97931      312.88399      312.67944    
     25100   212.49477     -362357.16      2619.785      -359737.37      6108064.7      126.68903      308.76191      305.48025    
     25200   210.8573      -362339.52      2599.5971     -359739.93      6108064.7      126.42617      313.73437      299.0078     
     25300   211.66457     -362352.04      2609.5497     -359742.49      6108064.7      126.1863       309.09174      295.69087    
     25400   212.73983     -362367.08      2622.8063     -359744.27      6108064.7      125.9746       304.55369      293.38733    
     25500   212.51278     -362364.95      2620.007      -359744.95      6108064.7      125.7905       302.38761      290.39607    
     25600   213.41064     -362376.07      2631.0764     -359744.99      6108064.7      125.62358      298.06483      289.94982    
     25700   214.98641     -362395.06      2650.5037     -359744.56      6108064.7      125.46819      294.07059      289.99225    
     25800   214.49455     -362388.08      2644.4397     -359743.64      6108064.7      125.31938      295.0836       286.02822    
     25900   215.41887     -362398.46      2655.8353     -359742.63      6108064.7      125.17728      291.59392      288.97037    
     26000   217.35876     -362420.98      2679.7517     -359741.22      6108064.7      125.04532      291.06269      285.44741    
     26100   217.81666     -362425.17      2685.397      -359739.78      6108064.7      124.91883      293.00695      282.67173    
     26200   219.17778     -362440.52      2702.1779     -359738.34      6108064.7      124.79197      289.56088      282.30314    
     26300   218.88017     -362434.94      2698.5087     -359736.43      6108064.7      124.66249      289.40313      280.32658    
     26400   219.3112      -362438.2       2703.8227     -359734.38      6108064.7      124.52882      285.93031      280.80181    
     26500   221.02996     -362457.01      2725.0128     -359732         6108064.7      124.38718      286.56301      279.55102    
     26600   222.77379     -362476.28      2746.512      -359729.77      6108064.7      124.23591      287.46498      280.49991    
     26700   223.26587     -362479.76      2752.5787     -359727.18      6108064.7      124.07618      284.67879      279.54246    
     26800   223.08208     -362474.72      2750.3128     -359724.41      6108064.7      123.91112      284.16567      278.93312    
     26900   224.17415     -362485.55      2763.7765     -359721.78      6108064.7      123.74318      283.12457      279.42064    
     27000   225.59364     -362500.6       2781.2771     -359719.32      6108064.7      123.57603      285.03464      279.94349    
     27100   227.56751     -362522.54      2805.6123     -359716.93      6108064.7      123.40769      286.095        279.49956    
     27200   226.48726     -362506.34      2792.2943     -359714.05      6108064.7      123.23837      282.7964       275.97531    
     27300   226.09778     -362498.76      2787.4925     -359711.27      6108064.7      123.06579      281.46055      275.4787     
     27400   227.79418     -362516.91      2808.4069     -359708.5       6108064.7      122.89116      282.93936      275.86388    
     27500   228.18524     -362518.97      2813.2281     -359705.74      6108064.7      122.71602      283.89889      275.33968    
     27600   228.28232     -362517.37      2814.425      -359702.95      6108064.7      122.54392      280.60284      277.1536     
     27700   228.939       -362522.67      2822.521      -359700.15      6108064.7      122.37925      284.99386      276.90646    
     27800   229.56726     -362527.57      2830.2666     -359697.3       6108064.7      122.2242       282.70244      276.99909    
     27900   230.56383     -362536.95      2842.553      -359694.39      6108064.7      122.0775       283.80139      277.61092    
     28000   230.22585     -362529.87      2838.3863     -359691.48      6108064.7      121.93701      281.88286      276.93105    
     28100   231.35184     -362540.81      2852.2683     -359688.54      6108064.7      121.80075      284.97497      274.84624    
     28200   232.24567     -362548.98      2863.288      -359685.69      6108064.7      121.66837      281.43728      278.95531    
     28300   231.69274     -362539.4       2856.4711     -359682.93      6108064.7      121.54046      284.87675      275.37192    
     28400   231.70497     -362536.66      2856.6218     -359680.04      6108064.7      121.41683      282.66466      276.21953    
     28500   233.1513      -362551.82      2874.4533     -359677.37      6108064.7      121.30181      283.50429      275.35822    
     28600   234.48669     -362565.51      2890.9168     -359674.59      6108064.7      121.1956       283.01853      275.67364    
     28700   233.68683     -362552.79      2881.0556     -359671.74      6108064.7      121.09746      281.439        277.48651    
     28800   234.46139     -362559.46      2890.6049     -359668.85      6108064.7      121.00785      281.60815      276.28271    
     28900   235.33666     -362567.29      2901.3959     -359665.9       6108064.7      120.92276      282.50806      275.95784    
     29000   235.11333     -362561.39      2898.6425     -359662.74      6108064.7      120.83913      281.49145      275.21801    
     29100   236.0333      -362569.7       2909.9845     -359659.71      6108064.7      120.75734      280.89441      277.07313    
     29200   235.98877     -362566.12      2909.4356     -359656.68      6108064.7      120.67477      280.30879      275.52328    
     29300   236.11763     -362564.81      2911.0243     -359653.78      6108064.7      120.58851      283.66586      274.99782    
     29400   236.94696     -362571.97      2921.2488     -359650.72      6108064.7      120.49608      281.25968      275.91202    
     29500   237.78119     -362579.16      2931.5338     -359647.63      6108064.7      120.39696      283.70999      275.38289    
     29600   237.7763      -362576.14      2931.4734     -359644.67      6108064.7      120.29178      278.96041      275.52454    
     29700   239.29788     -362591.82      2950.2326     -359641.59      6108064.7      120.17696      282.7599       278.58832    
     29800   239.50069     -362591.04      2952.7329     -359638.31      6108064.7      120.05551      277.86743      278.14668    
     29900   239.81258     -362591.42      2956.5781     -359634.84      6108064.7      119.93177      279.61752      278.00962    
     30000   240.67592     -362598.55      2967.222      -359631.32      6108064.7      119.80614      279.29054      279.18506    
     30100   242.43994     -362617.06      2988.9701     -359628.09      6108064.7      119.67909      283.42014      280.07781    
     30200   241.21862     -362598.75      2973.9128     -359624.84      6108064.7      119.55044      280.20772      278.99008    
     30300   242.72296     -362614.31      2992.4594     -359621.85      6108064.7      119.42187      280.89297      279.78476    
     30400   242.04866     -362602.91      2984.1461     -359618.77      6108064.7      119.29073      278.35467      279.92034    
     30500   243.95099     -362623.49      3007.5994     -359615.9       6108064.7      119.15671      284.67636      277.63307    
     30600   243.98117     -362621.12      3007.9715     -359613.15      6108064.7      119.0214       283.12242      278.42083    
     30700   244.33541     -362622.79      3012.3388     -359610.45      6108064.7      118.8868       281.10405      278.6065     
     30800   244.44782     -362621.58      3013.7246     -359607.86      6108064.7      118.7535       284.00465      276.51397    
     30900   245.14902     -362627.64      3022.3696     -359605.27      6108064.7      118.62182      284.66379      279.49367    
     31000   244.62905     -362618.29      3015.9591     -359602.33      6108064.7      118.49349      283.32759      278.84959    
     31100   245.03376     -362620.5       3020.9485     -359599.55      6108064.7      118.36992      284.01423      278.7684     
     31200   245.28941     -362620.98      3024.1004     -359596.88      6108064.7      118.24882      282.93964      277.36764    
     31300   246.1826      -362629.08      3035.1123     -359593.97      6108064.7      118.12988      281.68887      281.62468    
     31400   246.5326      -362630.46      3039.4273     -359591.04      6108064.7      118.01627      283.21134      280.57488    
     31500   247.86721     -362644.08      3055.8813     -359588.2       6108064.7      117.90637      284.16968      284.62137    
     31600   247.74172     -362639.68      3054.3341     -359585.34      6108064.7      117.80171      282.84729      281.51739    
     31700   247.67608     -362636.17      3053.5249     -359582.64      6108064.7      117.70301      281.52115      278.8596     
     31800   248.40335     -362642.46      3062.4913     -359579.97      6108064.7      117.60919      281.94644      281.70405    
     31900   248.05232     -362635.18      3058.1635     -359577.02      6108064.7      117.51888      283.53654      281.92285    
     32000   248.42383     -362636.86      3062.7437     -359574.12      6108064.7      117.42703      282.98389      280.83765    
     32100   248.08587     -362629.85      3058.5771     -359571.27      6108064.7      117.33277      283.02054      281.64548    
     32200   249.48463     -362644.44      3075.822      -359568.62      6108064.7      117.23598      284.2649       283.34546    
     32300   249.64759     -362643.73      3077.8311     -359565.9       6108064.7      117.13942      284.38609      281.36494    
     32400   249.38272     -362637.88      3074.5656     -359563.31      6108064.7      117.04635      285.82011      279.16206    
     32500   250.1155      -362644.49      3083.5998     -359560.89      6108064.7      116.95486      285.40231      282.58719    
     32600   249.73589     -362637.36      3078.9197     -359558.44      6108064.7      116.8669       284.91101      280.34691    
     32700   249.20986     -362628.36      3072.4344     -359555.93      6108064.7      116.78154      283.88599      281.01506    
     32800   250.58433     -362642.93      3089.3798     -359553.55      6108064.7      116.6921       284.8081       281.93232    
     32900   250.2956      -362637.01      3085.8202     -359551.19      6108064.7      116.60201      286.93108      281.9263     
     33000   250.87279     -362641.89      3092.9362     -359548.96      6108064.7      116.51165      285.35195      281.62391    
     33100   250.50674     -362634.96      3088.4233     -359546.53      6108064.7      116.42083      285.62361      282.91184    
     33200   251.85535     -362649.19      3105.0499     -359544.14      6108064.7      116.32946      284.69597      284.03626    
     33300   251.31492     -362640.03      3098.3871     -359541.64      6108064.7      116.24157      282.96523      283.64358    
     33400   252.11544     -362647.54      3108.2565     -359539.28      6108064.7      116.15447      284.65281      284.28506    
     33500   252.62384     -362651.29      3114.5244     -359536.76      6108064.7      116.06984      285.20664      284.26466    
     33600   252.98236     -362653.1       3118.9445     -359534.15      6108064.7      115.98428      283.284        283.08529    
     33700   253.73982     -362660.07      3128.283      -359531.79      6108064.7      115.89685      284.57469      283.70199    
     33800   253.24431     -362651.5       3122.174      -359529.32      6108064.7      115.80649      284.90917      282.47011    
     33900   253.68021     -362654.34      3127.5481     -359526.79      6108064.7      115.71324      283.57227      284.42177    
     34000   253.78702     -362653.36      3128.8649     -359524.5       6108064.7      115.61483      287.40798      283.16387    
     34100   254.31112     -362657.5       3135.3264     -359522.18      6108064.7      115.51584      283.96192      283.47466    
     34200   255.7356      -362673.17      3152.8883     -359520.28      6108064.7      115.41209      287.16598      285.48973    
     34300   255.4228      -362667.14      3149.0319     -359518.1       6108064.7      115.30244      285.8717       284.2709     
     34400   255.71804     -362668.51      3152.6719     -359515.84      6108064.7      115.18752      286.4099       284.79712    
     34500   256.53006     -362676.28      3162.683      -359513.6       6108064.7      115.07099      287.58752      287.31342    
     34600   256.28325     -362670.91      3159.6401     -359511.27      6108064.7      114.95161      285.16579      287.8544     
     34700   257.40789     -362682.66      3173.5055     -359509.15      6108064.7      114.83304      286.40797      287.7653     
     34800   256.01677     -362663.16      3156.3548     -359506.8       6108064.7      114.71682      285.66862      284.77208    
     34900   256.44417     -362666.17      3161.6242     -359504.55      6108064.7      114.59982      285.98506      284.44279    
     35000   257.56804     -362677.85      3175.4799     -359502.37      6108064.7      114.48193      286.60739      284.94901    
     35100   257.34283     -362672.81      3172.7034     -359500.1       6108064.7      114.36356      284.65819      288.76176    
     35200   258.1716      -362680.91      3182.9211     -359497.98      6108064.7      114.24304      287.88872      287.05803    
     35300   258.56821     -362683.76      3187.8108     -359495.95      6108064.7      114.1248       286.74608      286.77536    
     35400   258.48197     -362680.85      3186.7475     -359494.1       6108064.7      114.0074       286.09691      286.53024    
     35500   259.04396     -362685.85      3193.6762     -359492.18      6108064.7      113.89148      287.44293      286.44095    
     35600   259.63161     -362691.36      3200.9212     -359490.44      6108064.7      113.78065      287.65535      286.85212    
     35700   259.38868     -362686.58      3197.9261     -359488.65      6108064.7      113.67178      287.38871      284.01477    
     35800   260.75024     -362701.58      3214.7124     -359486.87      6108064.7      113.56261      287.42596      287.46243    
     35900   260.70766     -362699.14      3214.1874     -359484.95      6108064.7      113.45574      291.16044      284.51023    
     36000   260.59993     -362696.08      3212.8592     -359483.22      6108064.7      113.3472       288.0664       285.41182    
     36100   261.42482     -362704.61      3223.0291     -359481.58      6108064.7      113.23476      288.4853       286.98109    
     36200   261.04697     -362698.07      3218.3707     -359479.7       6108064.7      113.12495      287.0993       285.30519    
     36300   261.84074     -362706.06      3228.1568     -359477.9       6108064.7      113.01593      285.05135      287.32038    
     36400   262.75188     -362715.68      3239.39       -359476.29      6108064.7      112.91294      290.28006      286.50995    
     36500   262.79202     -362714.49      3239.8849     -359474.61      6108064.7      112.81373      290.63512      286.50996    
     36600   260.99667     -362690.52      3217.7505     -359472.77      6108064.7      112.71638      285.47293      285.98542    
     36700   262.54575     -362707.99      3236.8487     -359471.14      6108064.7      112.61938      290.54161      285.70419    
     36800   262.01082     -362699.38      3230.2537     -359469.12      6108064.7      112.52393      285.22483      286.72126    
     36900   262.30474     -362701.08      3233.8773     -359467.2       6108064.7      112.42486      284.77434      288.83561    
     37000   263.54544     -362714.46      3249.1736     -359465.28      6108064.7      112.32512      288.95952      289.54567    
     37100   262.91402     -362704.66      3241.389      -359463.27      6108064.7      112.22731      287.75003      288.78437    
     37200   264.01822     -362716.77      3255.0023     -359461.77      6108064.7      112.12834      290.04228      286.66652    
     37300   263.49693     -362708.73      3248.5755     -359460.15      6108064.7      112.02811      288.56697      287.82841    
     37400   264.4603      -362719.26      3260.4526     -359458.81      6108064.7      111.92804      292.13586      285.78849    
     37500   263.59851     -362707.36      3249.8278     -359457.53      6108064.7      111.83036      290.1649       286.02733    
     37600   264.64498     -362718.93      3262.7295     -359456.2       6108064.7      111.73141      288.61386      287.86888    
     37700   265.15023     -362723.87      3268.9586     -359454.91      6108064.7      111.63145      292.73734      287.55716    
     37800   264.3534      -362712.65      3259.1346     -359453.52      6108064.7      111.53217      289.83343      287.38156    
     37900   264.81404     -362717.04      3264.8137     -359452.23      6108064.7      111.43691      291.16151      288.48114    
     38000   264.26973     -362709.07      3258.1032     -359450.97      6108064.7      111.34223      291.83387      285.87018    
     38100   266.6504      -362737.43      3287.4537     -359449.98      6108064.7      111.24946      293.57451      287.24752    
     38200   266.40064     -362733.15      3284.3744     -359448.77      6108064.7      111.16166      288.92786      287.29574    
     38300   266.04127     -362727.33      3279.9439     -359447.38      6108064.7      111.07486      290.21757      286.55533    
     38400   266.17864     -362727.49      3281.6375     -359445.85      6108064.7      110.99008      289.48602      287.77413    
     38500   267.41671     -362741.32      3296.9013     -359444.42      6108064.7      110.90767      287.14505      290.7963     
     38600   267.88655     -362745.39      3302.6939     -359442.7       6108064.7      110.82699      286.99269      290.81321    
     38700   267.81727     -362742.84      3301.8396     -359441         6108064.7      110.74982      288.97329      288.7002     
     38800   267.43703     -362736.16      3297.1518     -359439.01      6108064.7      110.67592      286.00284      287.83229    
     38900   267.89607     -362740.2       3302.8111     -359437.39      6108064.7      110.60194      288.41166      288.45605    
     39000   268.461       -362745.45      3309.776      -359435.67      6108064.7      110.52751      288.71097      286.87034    
     39100   269.25814     -362753.96      3319.6038     -359434.36      6108064.7      110.45313      292.43382      285.66474    
     39200   269.1784      -362751.5       3318.6206     -359432.88      6108064.7      110.37833      288.88443      289.77649    
     39300   269.99275     -362760.21      3328.6605     -359431.55      6108064.7      110.30605      289.38137      289.93164    
     39400   269.43286     -362752.12      3321.7579     -359430.37      6108064.7      110.23806      291.81549      286.77736    
     39500   269.21235     -362748.27      3319.0393     -359429.23      6108064.7      110.17111      291.07704      287.12511    
     39600   270.12853     -362758.48      3330.3345     -359428.15      6108064.7      110.10823      292.01086      288.75156    
     39700   269.52029     -362749.87      3322.8358     -359427.03      6108064.7      110.04595      292.97098      287.77775    
     39800   270.02964     -362754.91      3329.1154     -359425.79      6108064.7      109.98429      290.25725      290.69471    
     39900   270.63712     -362761.03      3336.6048     -359424.42      6108064.7      109.92431      290.87267      289.6521     
     40000   270.34446     -362756.18      3332.9966     -359423.18      6108064.7      109.8663       291.51465      290.51729    
     40100   269.52686     -362744.74      3322.9167     -359421.82      6108064.7      109.80964      289.62846      290.40415    
     40200   271.00821     -362761.79      3341.1798     -359420.61      6108064.7      109.75318      291.00108      289.93524    
     40300   270.99643     -362760.55      3341.0347     -359419.52      6108064.7      109.69689      293.43681      291.0459     
     40400   271.83827     -362769.97      3351.4134     -359418.55      6108064.7      109.64153      293.54325      291.03468    
     40500   271.23632     -362761.51      3343.9921     -359417.52      6108064.7      109.58308      291.13791      291.96303    
     40600   271.07246     -362758.34      3341.972      -359416.37      6108064.7      109.52472      292.87376      289.52748    
     40700   271.3024      -362760.1       3344.8068     -359415.29      6108064.7      109.46818      292.58918      290.51026    
     40800   272.14208     -362769.41      3355.1589     -359414.25      6108064.7      109.41178      289.43139      294.21867    
     40900   272.31022     -362770.36      3357.2319     -359413.13      6108064.7      109.35667      293.19948      292.6115     
     41000   272.09987     -362766.56      3354.6386     -359411.92      6108064.7      109.30059      289.92615      290.53115    
     41100   272.13377     -362765.72      3355.0566     -359410.67      6108064.7      109.24327      291.08008      294.0894     
     41200   271.80676     -362760.43      3351.0249     -359409.41      6108064.7      109.18315      289.88299      291.58023    
     41300   272.12759     -362763.19      3354.9803     -359408.21      6108064.7      109.11855      291.63891      289.81065    
     41400   272.95295     -362772.24      3365.156      -359407.09      6108064.7      109.0474       292.68992      294.25019    
     41500   273.32827     -362775.83      3369.7831     -359406.05      6108064.7      108.97351      293.17842      293.71703    
     41600   273.18785     -362772.94      3368.052      -359404.89      6108064.7      108.89425      291.07079      292.71       
     41700   273.30573     -362773.25      3369.5053     -359403.74      6108064.7      108.81545      292.50876      291.79317    
     41800   273.21932     -362771.32      3368.44       -359402.88      6108064.7      108.73541      292.04326      293.77843    
     41900   273.46601     -362773.69      3371.4813     -359402.21      6108064.7      108.65818      294.36249      289.89092    
     42000   273.53365     -362773.99      3372.3152     -359401.68      6108064.7      108.58222      293.53695      293.09636    
     42100   272.81576     -362764.28      3363.4645     -359400.82      6108064.7      108.51087      291.1946       291.61125    
     42200   274.61471     -362785.69      3385.6433     -359400.05      6108064.7      108.43963      293.50723      295.90283    
     42300   274.9133      -362788.39      3389.3246     -359399.06      6108064.7      108.37302      293.14318      297.14432    
     42400   274.71997     -362785.22      3386.941      -359398.28      6108064.7      108.30793      292.06797      296.2531     
     42500   273.44223     -362768.42      3371.1881     -359397.23      6108064.7      108.24063      289.32884      294.01807    
     42600   274.5232      -362781.03      3384.5151     -359396.52      6108064.7      108.17576      295.34496      292.43883    
     42700   274.21323     -362776.26      3380.6936     -359395.57      6108064.7      108.10981      293.806        289.73806    
     42800   275.31745     -362789.32      3394.3072     -359395.01      6108064.7      108.04295      292.99256      291.64269    
     42900   274.26824     -362775.62      3381.3717     -359394.25      6108064.7      107.97605      293.20677      291.80378    
     43000   276.93321     -362807.84      3414.2274     -359393.61      6108064.7      107.91046      295.28447      295.46972    
     43100   276.44258     -362800.93      3408.1785     -359392.75      6108064.7      107.84704      294.20291      294.88955    
     43200   277.1019      -362808.39      3416.3071     -359392.09      6108064.7      107.78296      293.87236      294.07954    
     43300   277.78098     -362816.11      3424.6793     -359391.43      6108064.7      107.71704      294.71227      293.19908    
     43400   277.97613     -362817.93      3427.0852     -359390.85      6108064.7      107.65228      295.8689       294.82345    
     43500   278.85546     -362828.38      3437.9263     -359390.46      6108064.7      107.58776      293.58543      293.59226    
     43600   277.64098     -362813.07      3422.9533     -359390.12      6108064.7      107.52307      296.56309      292.45436    
     43700   278.45157     -362822.72      3432.9468     -359389.77      6108064.7      107.45943      294.9412       293.61612    
     43800   278.80394     -362826.24      3437.291      -359388.95      6108064.7      107.39692      290.63813      295.90676    
     43900   279.49179     -362834.05      3445.7714     -359388.28      6108064.7      107.33349      292.71619      294.74053    
     44000   279.76731     -362836.84      3449.1682     -359387.67      6108064.7      107.26882      294.32923      293.83205    
     44100   280.27735     -362842.43      3455.4563     -359386.97      6108064.7      107.20282      292.93232      296.38502    
     44200   281.25368     -362853.9       3467.4931     -359386.41      6108064.7      107.13939      296.50668      296.05809    
     44300   282.10032     -362863.92      3477.9312     -359385.99      6108064.7      107.07515      294.04943      296.72242    
     44400   281.58176     -362856.98      3471.538      -359385.44      6108064.7      107.01172      296.31178      295.56437    
     44500   282.46576     -362867.51      3482.4366     -359385.07      6108064.7      106.94738      295.96586      296.89423    
     44600   282.33725     -362865.37      3480.8522     -359384.52      6108064.7      106.87792      295.65904      296.82825    
     44700   282.34981     -362865.14      3481.0071     -359384.14      6108064.7      106.80458      297.80764      295.15219    
     44800   283.68487     -362881.37      3497.4666     -359383.9       6108064.7      106.7267       300.1166       295.4892     
     44900   283.00875     -362872.67      3489.1309     -359383.53      6108064.7      106.64239      296.14311      294.60786    
     45000   282.94602     -362871.47      3488.3575     -359383.11      6108064.7      106.55486      297.02616      294.08615    
     45100   283.4424      -362877.13      3494.4772     -359382.66      6108064.7      106.46396      298.69594      297.63683    
     45200   283.38682     -362875.99      3493.792      -359382.2       6108064.7      106.37293      295.4731       295.00374    
     45300   283.89431     -362881.82      3500.0487     -359381.78      6108064.7      106.28314      294.73008      299.17684    
     45400   284.82806     -362893.1       3511.5607     -359381.54      6108064.7      106.19426      296.94355      298.2939     
     45500   284.93762     -362893.95      3512.9114     -359381.04      6108064.7      106.1084       294.72869      296.79455    
     45600   283.95771     -362881.53      3500.8303     -359380.7       6108064.7      106.02548      294.35021      295.8274     
     45700   284.52464     -362888.04      3507.8198     -359380.22      6108064.7      105.94345      294.59194      296.45506    
     45800   287.01737     -362918.47      3538.552      -359379.91      6108064.7      105.86542      297.06558      298.43494    
     45900   285.27431     -362896.52      3517.0623     -359379.46      6108064.7      105.79252      295.7626       296.81154    
     46000   286.3164      -362909.21      3529.9099     -359379.3       6108064.7      105.72595      295.46265      297.77966    
     46100   286.97394     -362917.07      3538.0166     -359379.05      6108064.7      105.6636       298.66361      296.67166    
     46200   285.63815     -362900.22      3521.548      -359378.67      6108064.7      105.60411      297.09673      292.79661    
     46300   286.82601     -362914.7       3536.1928     -359378.51      6108064.7      105.5434       295.45849      295.78371    
     46400   286.2926      -362907.78      3529.6165     -359378.17      6108064.7      105.48252      295.67379      295.96003    
     46500   287.30986     -362920.07      3542.158      -359377.91      6108064.7      105.41968      295.49462      297.73219    
     46600   288.3234      -362932.44      3554.6537     -359377.78      6108064.7      105.3576       300.41342      295.93134    
     46700   287.96445     -362927.88      3550.2283     -359377.66      6108064.7      105.29835      298.91974      297.45469    
     46800   288.52805     -362935.04      3557.1767     -359377.86      6108064.7      105.24364      298.8438       295.22935    
     46900   288.50445     -362934.99      3556.8858     -359378.1       6108064.7      105.19194      299.40479      295.06755    
     47000   288.33928     -362933.21      3554.8494     -359378.36      6108064.7      105.14532      298.74108      296.42177    
     47100   288.47608     -362935.11      3556.536      -359378.58      6108064.7      105.10154      297.60777      300.89372    
     47200   289.77314     -362951.33      3572.5271     -359378.8       6108064.7      105.06033      297.23428      296.92629    
     47300   288.81783     -362939.7       3560.7494     -359378.95      6108064.7      105.02337      299.47861      295.76814    
     47400   290.58558     -362962.01      3582.5434     -359379.47      6108064.7      104.98966      301.11023      297.88917    
     47500   289.71288     -362951.79      3571.7842     -359380         6108064.7      104.95698      302.38683      295.50267    
     47600   289.68375     -362951.94      3571.425      -359380.52      6108064.7      104.92812      302.35434      295.53497    
     47700   289.94898     -362955.83      3574.6949     -359381.14      6108064.7      104.90147      301.55726      296.40901    
     47800   290.40369     -362961.94      3580.301      -359381.64      6108064.7      104.87452      298.86482      296.87602    
     47900   290.05495     -362957.88      3576.0015     -359381.88      6108064.7      104.84919      296.57115      296.6067     
     48000   289.35924     -362949.41      3567.4243     -359381.99      6108064.7      104.82649      294.97948      295.11944    
     48100   290.34409     -362961.7       3579.5661     -359382.13      6108064.7      104.80592      299.17412      296.68009    
     48200   290.61899     -362965.23      3582.9553     -359382.27      6108064.7      104.78661      297.71451      297.42937    
     48300   291.74909     -362979.29      3596.888      -359382.4       6108064.7      104.76856      298.82854      298.80609    
     48400   290.84642     -362968.28      3585.7592     -359382.52      6108064.7      104.75144      299.34301      298.69605    
     48500   292.0778      -362983.69      3600.9405     -359382.75      6108064.7      104.73711      299.54915      298.29151    
     48600   290.88919     -362969.18      3586.2866     -359382.9       6108064.7      104.72241      298.02993      297.8231     
     48700   292.25313     -362986.3       3603.1022     -359383.2       6108064.7      104.70829      299.89871      299.53777    
     48800   291.28987     -362974.75      3591.2265     -359383.53      6108064.7      104.69363      299.53235      295.99925    
     48900   290.80804     -362969.09      3585.286      -359383.8       6108064.7      104.67866      297.71831      297.57994    
     49000   292.66178     -362992.37      3608.1402     -359384.23      6108064.7      104.66302      298.46711      296.96198    
     49100   291.12787     -362973.59      3589.2291     -359384.36      6108064.7      104.64804      298.83445      298.51102    
     49200   291.3108      -362976.09      3591.4845     -359384.61      6108064.7      104.63636      296.27355      299.48618    
     49300   292.44925     -362990.43      3605.5201     -359384.91      6108064.7      104.62588      301.40643      300.42036    
     49400   293.69908     -363006.17      3620.9288     -359385.24      6108064.7      104.6206       301.72655      301.97413    
     49500   292.54852     -362992.34      3606.7439     -359385.59      6108064.7      104.61686      300.96113      299.2017     
     49600   292.72986     -362994.96      3608.9797     -359385.98      6108064.7      104.61498      299.99154      299.2558     
     49700   292.06427     -362987.09      3600.7737     -359386.32      6108064.7      104.61311      300.23085      298.10203    
     49800   292.47686     -362992.57      3605.8604     -359386.71      6108064.7      104.61364      297.84781      297.76542    
     49900   292.84941     -362997.68      3610.4536     -359387.23      6108064.7      104.61702      298.99263      299.38399    
     50000   293.38661     -363004.9       3617.0765     -359387.82      6108064.7      104.62311      302.15911      298.52974    
Loop time of 3392.64 on 1 procs for 25000 steps with 95380 atoms

Performance: 6.367 ns/day, 3.770 hours/ns, 7.369 timesteps/s
99.5% CPU use with 1 MPI tasks x 1 OpenMP threads

MPI task timing breakdown:
Section |  min time  |  avg time  |  max time  |%varavg| %total
---------------------------------------------------------------
Pair    | 3196.6     | 3196.6     | 3196.6     |   0.0 | 94.22
Neigh   | 120.7      | 120.7      | 120.7      |   0.0 |  3.56
Comm    | 10.489     | 10.489     | 10.489     |   0.0 |  0.31
Output  | 8.3302     | 8.3302     | 8.3302     |   0.0 |  0.25
Modify  | 43.556     | 43.556     | 43.556     |   0.0 |  1.28
Other   |            | 12.95      |            |       |  0.38

Nlocal:          95380 ave       95380 max       95380 min
Histogram: 1 0 0 0 0 0 0 0 0 0
Nghost:          23469 ave       23469 max       23469 min
Histogram: 1 0 0 0 0 0 0 0 0 0
Neighs:    4.27834e+06 ave 4.27834e+06 max 4.27834e+06 min
Histogram: 1 0 0 0 0 0 0 0 0 0

Total # of neighbors = 4278335
Ave neighs/atom = 44.855683
Neighbor list builds = 935
Dangerous builds = 0
create_atoms 3 random 10 323875 nano3 overlap 0.02 maxtry 150 mol molec 123789
Created 5200 atoms
  using lattice units in orthogonal box = (0 0 0) to (122.37 122.37 407.9)
  create_atoms CPU = 0.014 seconds
create_atoms 4 random 15 745983 nano3 overlap 0.02 maxtry 15000 mol nano2 197345
Created 18420 atoms
  using lattice units in orthogonal box = (0 0 0) to (122.37 122.37 407.9)
  create_atoms CPU = 0.277 seconds
create_atoms 5 random 5 148993 nano3 overlap 0.02 maxtry 10550 mol nano3 197345
Created 4435 atoms
  using lattice units in orthogonal box = (0 0 0) to (122.37 122.37 407.9)
  create_atoms CPU = 0.071 seconds
create_atoms 6 random 5 145995 nano3 overlap 0.01 maxtry 10550 mol nano4 197345
Created 735 atoms
  using lattice units in orthogonal box = (0 0 0) to (122.37 122.37 407.9)
  create_atoms CPU = 0.033 seconds
group nano type 4 5 6 7
86370 atoms in group nano

velocity nano set 0 0 -0.005

write_data lattice.seconddep
System init for write_data ...
WARNING: One or more atoms are time integrated more than once (src/modify.cpp:292)
run 50000
WARNING: One or more atoms are time integrated more than once (src/modify.cpp:292)
Per MPI rank memory allocation (min/avg/max) = 68.08 | 68.08 | 68.08 Mbytes
   Step          Temp          PotEng         KinEng         TotEng         Volume      c_nanocom[3]     c_ttherm       c_tfree    
     50000   83.378758     -469690.73      1338.2376     -468352.49      6108064.7      154.64977      302.15911      298.52974    
     50100   198.07784     -471542.21      3179.1697     -468363.04      6108064.7      154.35712      302.39351      292.90055    
     50200   195.49841     -471501.27      3137.7696     -468363.5       6108064.7      154.08199      302.45969      286.54388    
     50300   197.24136     -471530.11      3165.7441     -468364.36      6108064.7      153.82348      302.45347      281.55813    
     50400   198.32127     -471547.49      3183.0768     -468364.42      6108064.7      153.58334      296.27075      282.61018    
     50500   197.18741     -471528.16      3164.8782     -468363.28      6108064.7      153.36121      288.70774      277.64227    
     50600   198.30212     -471544.52      3182.7694     -468361.75      6108064.7      153.15281      290.31473      275.5163     
     50700   198.59634     -471547.1       3187.4917     -468359.61      6108064.7      152.95576      285.32056      272.73268    
     50800   199.11968     -471553.24      3195.8913     -468357.35      6108064.7      152.7689       286.17271      274.87958    
     50900   199.16959     -471551.56      3196.6924     -468354.86      6108064.7      152.59193      284.06299      272.74459    
     51000   200.16568     -471564.65      3212.6797     -468351.97      6108064.7      152.42872      281.95425      271.59366    
     51100   199.4886      -471550.48      3201.8125     -468348.67      6108064.7      152.27656      278.71871      271.32648    
     51200   200.23723     -471558.93      3213.8282     -468345.1       6108064.7      152.13212      277.0357       270.6691     
     51300   200.3533      -471556.93      3215.6911     -468341.23      6108064.7      151.99334      275.51907      270.45755    
     51400   200.53894     -471555.81      3218.6707     -468337.14      6108064.7      151.86182      273.90993      268.63911    
     51500   202.06468     -471576.27      3243.159      -468333.12      6108064.7      151.73503      276.53695      269.03901    
     51600   201.83614     -471568.41      3239.4908     -468328.92      6108064.7      151.61463      273.45831      269.01376    
     51700   202.43285     -471573.79      3249.068      -468324.72      6108064.7      151.50323      271.84283      268.75362    
     51800   202.65405     -471572.89      3252.6184     -468320.28      6108064.7      151.40185      274.19829      267.44029    
     51900   203.49655     -471582.09      3266.1406     -468315.95      6108064.7      151.3113       276.44297      270.06953    
     52000   203.25128     -471573.67      3262.204      -468311.46      6108064.7      151.22806      271.67173      267.67783    
     52100   205.03709     -471597.9       3290.8664     -468307.03      6108064.7      151.14867      274.0355       266.73936    
     52200   205.15646     -471595.07      3292.7824     -468302.29      6108064.7      151.07173      272.7993       266.00851    
     52300   205.28828     -471592.43      3294.898      -468297.53      6108064.7      150.99403      272.54197      267.96935    
     52400   205.91768     -471597.82      3305          -468292.82      6108064.7      150.91681      274.25241      267.43332    
     52500   206.68636     -471605.56      3317.3373     -468288.22      6108064.7      150.84133      272.96756      268.59691    
     52600   207.02205     -471606.21      3322.7252     -468283.48      6108064.7      150.76821      272.41033      268.70212    
     52700   207.18115     -471604.06      3325.2788     -468278.78      6108064.7      150.6977       272.687        266.97314    
     52800   207.83177     -471609.96      3335.7213     -468274.24      6108064.7      150.62898      272.83985      268.40971    
     52900   208.0104      -471608.26      3338.5883     -468269.67      6108064.7      150.55771      273.42041      269.01543    
     53000   208.09398     -471604.86      3339.9298     -468264.93      6108064.7      150.48202      273.72172      266.77207    
     53100   209.43123     -471621.64      3361.3929     -468260.25      6108064.7      150.40151      272.84328      267.58746    
     53200   208.78547     -471606.22      3351.0282     -468255.19      6108064.7      150.31569      271.81457      267.57784    
     53300   208.99871     -471604.83      3354.4508     -468250.38      6108064.7      150.22532      272.81387      266.73254    
     53400   210.25782     -471620.43      3374.6597     -468245.77      6108064.7      150.13081      270.49114      268.73497    
     53500   210.38712     -471617.85      3376.7349     -468241.12      6108064.7      150.03239      274.14016      264.55578    
     53600   211.01706     -471623.4       3386.8456     -468236.55      6108064.7      149.93212      273.28852      267.0081     
     53700   211.39671     -471624.8       3392.9389     -468231.86      6108064.7      149.82805      272.72041      266.20466    
     53800   211.59945     -471623.48      3396.193      -468227.28      6108064.7      149.71766      273.69044      265.85599    
     53900   212.10033     -471626.89      3404.2321     -468222.66      6108064.7      149.60374      274.48318      264.11367    
     54000   212.11922     -471622.44      3404.5353     -468217.91      6108064.7      149.48532      271.42294      267.9022     
     54100   214.27774     -471652.53      3439.1797     -468213.35      6108064.7      149.36445      274.67356      267.03333    
     54200   214.0022      -471643.29      3434.7574     -468208.53      6108064.7      149.24193      270.57576      268.29555    
     54300   215.45583     -471662.22      3458.0883     -468204.13      6108064.7      149.1185       273.63249      267.616      
     54400   215.10269     -471651.92      3452.4204     -468199.5       6108064.7      148.99386      273.0799       265.89852    
     54500   215.80531     -471658.55      3463.6975     -468194.86      6108064.7      148.86731      272.91155      265.9597     
     54600   215.88398     -471655.18      3464.96       -468190.22      6108064.7      148.73706      272.7614       267.51568    
     54700   216.90769     -471666.95      3481.3908     -468185.56      6108064.7      148.60549      273.49861      268.81167    
     54800   216.76661     -471660.17      3479.1265     -468181.05      6108064.7      148.47156      272.15669      267.17852    
     54900   217.40576     -471666.03      3489.3848     -468176.64      6108064.7      148.33873      273.60412      268.39414    
     55000   218.08038     -471672.45      3500.2125     -468172.24      6108064.7      148.20558      274.12436      270.12343    
     55100   218.13932     -471668.67      3501.1586     -468167.51      6108064.7      148.07262      271.70683      269.85723    
     55200   218.91831     -471676.42      3513.6614     -468162.76      6108064.7      147.93816      272.40173      271.34389    
     55300   217.88385     -471654.83      3497.0582     -468157.77      6108064.7      147.80226      272.91851      270.16391    
     55400   219.13974     -471670.25      3517.2154     -468153.03      6108064.7      147.66503      270.43169      270.00786    
     55500   218.75399     -471659.32      3511.024      -468148.29      6108064.7      147.52781      273.42294      268.50866    
     55600   219.74025     -471670.71      3526.8536     -468143.86      6108064.7      147.39029      275.22245      268.28586    
     55700   220.0595      -471671.46      3531.9776     -468139.48      6108064.7      147.25527      274.6077       268.91266    
     55800   220.83758     -471679.82      3544.4659     -468135.36      6108064.7      147.12297      277.20517      270.31514    
     55900   220.94788     -471677.37      3546.2362     -468131.13      6108064.7      146.99036      274.52592      267.43326    
     56000   221.21708     -471677.54      3550.5569     -468126.98      6108064.7      146.86116      274.39823      271.46977    
     56100   221.4197      -471676.54      3553.809      -468122.73      6108064.7      146.73569      273.92051      272.42947    
     56200   221.42718     -471672.21      3553.9291     -468118.28      6108064.7      146.61371      272.37333      271.6917     
     56300   221.88596     -471675.37      3561.2924     -468114.08      6108064.7      146.49758      278.13102      270.08136    
     56400   222.95092     -471688.38      3578.3853     -468109.99      6108064.7      146.38913      277.54848      271.17824    
     56500   223.05745     -471685.91      3580.0951     -468105.81      6108064.7      146.28744      275.5762       271.11025    
     56600   223.57749     -471689.89      3588.4417     -468101.45      6108064.7      146.19229      273.55411      270.86742    
     56700   223.3991      -471682.79      3585.5786     -468097.21      6108064.7      146.1031       277.89955      270.32218    
     56800   223.69327     -471683.23      3590.3        -468092.93      6108064.7      146.01881      274.26703      270.12113    
     56900   223.42516     -471674.7       3585.9969     -468088.71      6108064.7      145.93765      275.99154      270.50542    
     57000   224.29397     -471684.51      3599.9413     -468084.57      6108064.7      145.85896      274.51431      268.28023    
     57100   224.65345     -471685.96      3605.7109     -468080.25      6108064.7      145.78353      273.93092      270.04969    
     57200   224.41876     -471677.72      3601.9442     -468075.78      6108064.7      145.71128      271.38134      271.55968    
     57300   225.33293     -471688.17      3616.6167     -468071.55      6108064.7      145.64099      273.96125      270.94427    
     57400   225.22454     -471682.03      3614.8771     -468067.15      6108064.7      145.57347      273.46659      272.83416    
     57500   225.40169     -471680.59      3617.7203     -468062.87      6108064.7      145.50934      273.60407      270.52824    
     57600   224.65834     -471664.35      3605.7895     -468058.56      6108064.7      145.44727      275.5201       271.1861     
     57700   225.95909     -471681.2       3626.6666     -468054.53      6108064.7      145.38556      277.38923      270.12788    
     57800   226.50744     -471685.89      3635.4678     -468050.42      6108064.7      145.32554      275.74408      270.94755    
     57900   226.34839     -471679.24      3632.915      -468046.33      6108064.7      145.26795      275.69017      270.40386    
     58000   226.7808      -471682.37      3639.8551     -468042.51      6108064.7      145.21062      277.62649      271.99925    
     58100   226.80613     -471678.72      3640.2618     -468038.46      6108064.7      145.15148      277.22413      270.33497    
     58200   227.29867     -471682.47      3648.167      -468034.3       6108064.7      145.09294      