LAMMPS (15 Sep 2022)
  using 4 OpenMP thread(s) per MPI task
Loaded 1 plugins from C:\Users\becat\AppData\Local\LAMMPS 64-bit 15Sep2022\plugins
read_restart        equil.restart
Reading restart file ...
  restart file = 15 Sep 2022, LAMMPS = 15 Sep 2022
  restoring atom style atomic from restart
  orthogonal box = (0 0 0) to (122.37 122.37 326.32)
  1 by 1 by 1 MPI processor grid
  pair style eam stores no restart info
  124275 atoms
  read_restart CPU = 0.028 seconds
reset_timestep      0

pair_style          eam/opt
pair_coeff          * * ../test/Au.eam

group               nano type 4 5 6 7
86475 atoms in group nano
group               fixed type 1
5400 atoms in group fixed
group               thermal type 2
14400 atoms in group thermal
group               free type 3
18000 atoms in group free

delete_atoms group free
Deleted 18000 atoms, new total = 106275
delete_atoms group thermal
Deleted 14400 atoms, new total = 91875
delete_atoms group fixed
Deleted 5400 atoms, new total = 86475


variable            topfilm equal bound(nano,zmax)
lattice             fcc 4.079
Lattice spacing in x,y,z = 4.079 4.079 4.079

region              film block INF INF INF INF 11.25 ${topfilm}
region              film block INF INF INF INF 11.25 208.290494288197
group               film region film
84145 atoms in group film

region              fixfilm block INF INF INF INF 10.25 11.25
group               fixfilm region fixfilm
2315 atoms in group fixfilm

region              hot block INF 5 INF INF 10.25 ${topfilm}
region              hot block INF 5 INF INF 10.25 208.290494288197
group               hot region hot
14507 atoms in group hot

region              cold block 25.1 INF INF INF 10.25 ${topfilm}
region              cold block 25.1 INF INF INF 10.25 208.290494288197
group               cold region cold
14709 atoms in group cold

region              mid block 5.1 25 INF INF 10.25 ${topfilm}
region              mid block 5.1 25 INF INF 10.25 208.290494288197
group               mid region mid
56492 atoms in group mid

fix                 1 film nve
fix                 mvfilm fixfilm move linear NULL NULL 0


compute             nke nano ke/atom
variable            temp atom (c_nke)/1.5*1.6/1.3806503*10000
variable            thick atom bound(nano,zmax)-bound(nano,zmin)
variable            lownano atom bound(nano,zmin)

variable            nevery index 1
variable            nrep index 500
variable            nfreq index 5000

compute             midtemp mid temp
compute             hotemp hot temp
compute             cotemp cold temp

#compute             cc1 film chunk/atom bin/2d x lower 0.02 y lower 0.02 units reduced
#fix                 33 all ave/chunk 1 1000 2000 cc1 v_temp file all200.profile

variable            nstep equal 25000
variable            halfstep equal 12500
variable            chunkstep equal 0.05
compute             cc2 film chunk/atom bin/3d x lower ${chunkstep} y lower ${chunkstep} z lower ${chunkstep} units reduced
compute             cc2 film chunk/atom bin/3d x lower 0.05 y lower ${chunkstep} z lower ${chunkstep} units reduced
compute             cc2 film chunk/atom bin/3d x lower 0.05 y lower 0.05 z lower ${chunkstep} units reduced
compute             cc2 film chunk/atom bin/3d x lower 0.05 y lower 0.05 z lower 0.05 units reduced
fix                 44 film ave/chunk ${nevery} ${nrep} ${nfreq} cc2 density/number norm sample file density_3d.profile
fix                 44 film ave/chunk 1 ${nrep} ${nfreq} cc2 density/number norm sample file density_3d.profile
fix                 44 film ave/chunk 1 500 ${nfreq} cc2 density/number norm sample file density_3d.profile
fix                 44 film ave/chunk 1 500 5000 cc2 density/number norm sample file density_3d.profile

compute             cc3 film chunk/atom bin/3d x lower ${chunkstep} y lower ${chunkstep} z lower ${chunkstep} units reduced
compute             cc3 film chunk/atom bin/3d x lower 0.05 y lower ${chunkstep} z lower ${chunkstep} units reduced
compute             cc3 film chunk/atom bin/3d x lower 0.05 y lower 0.05 z lower ${chunkstep} units reduced
compute             cc3 film chunk/atom bin/3d x lower 0.05 y lower 0.05 z lower 0.05 units reduced
fix                 55 film ave/chunk ${nevery} ${nrep} ${nfreq} cc3 v_temp file temp_3d.profile
fix                 55 film ave/chunk 1 ${nrep} ${nfreq} cc3 v_temp file temp_3d.profile
fix                 55 film ave/chunk 1 500 ${nfreq} cc3 v_temp file temp_3d.profile
fix                 55 film ave/chunk 1 500 5000 cc3 v_temp file temp_3d.profile


fix                 th thermal nvt temp 300. 300. 100.
Resetting global fix info from restart file:
  fix style: nvt, fix ID: th
fix                 mv fixed move linear 0 0 0
Resetting global fix info from restart file:
  fix style: move, fix ID: mv
Resetting peratom fix info from restart file:
  fix style: move, fix ID: mv

fix                 11 hot langevin 800 800 0.01 699483 tally yes
fix                 22 cold langevin 400 400 0.01 810765 tally yes

thermo              100
thermo_style        custom step ke pe etotal temp c_midtemp c_cotemp c_hotemp

dump                5 all custom 1000 cfg/thermalcfg3.cfg id type x y z vx vy vz


run                 ${nstep}
run                 25000
All restart file global fix info was re-assigned
All restart file peratom fix info was re-assigned
Neighbor list info ...
  update: every = 1 steps, delay = 10 steps, check = yes
  max neighbors/atom: 2000, page size: 100000
  master list distance cutoff = 7.55
  ghost atom cutoff = 7.55
  binsize = 3.775, bins = 33 33 87
  1 neighbor lists, perpetual/occasional/extra = 1 0 0
  (1) pair eam/opt, perpetual
      attributes: half, newton on
      pair build: half/bin/atomonly/newton
      stencil: half/bin/3d
      bin: standard
Per MPI rank memory allocation (min/avg/max) = 82.67 | 82.67 | 82.67 Mbytes
   Step         KinEng         PotEng         TotEng          Temp        c_midtemp       c_cotemp       c_hotemp   
         0   3478.5904     -328348.71     -324870.12      311.20969      311.55726      308.57975      312.64182    
       100   4534.137      -328052.05     -323517.92      405.64343      311.78672      394.60906      787.99485    
       200   4559.6874     -327851.69     -323292         407.92928      312.82792      397.67435      792.54591    
       300   4558.8349     -327737.47     -323178.64      407.85301      313.6967       393.87361      792.73754    
       400   4543.2958     -327648.72     -323105.43      406.46282      313.8809       393.17758      783.69549    
       500   4575.8037     -327580.4      -323004.6       409.37112      314.11098      396.62552      796.30021    
       600   4564.7279     -327533.61     -322968.88      408.38023      314.90729      396.18477      786.83021    
       700   4572.9466     -327502.01     -322929.06      409.11551      316.50714      396.04386      786.2961     
       800   4570.1244     -327453.71     -322883.58      408.86302      315.54581      393.94092      789.63831    
       900   4578.9219     -327420.46     -322841.54      409.65009      315.53538      397.29504      791.53678    
      1000   4599.9083     -327415.99     -322816.08      411.52762      318.0963       391.41838      798.56626    
      1100   4567.6729     -327396.93     -322829.25      408.6437       317.19448      395.14035      780.70543    
      1200   4609.7189     -327373.04     -322763.32      412.40532      318.08297      397.43713      797.26022    
      1300   4597.4806     -327356.94     -322759.46      411.31043      318.15856      396.55654      790.85721    
      1400   4594.0373     -327347.63     -322753.59      411.00238      317.884        394.58686      792.33251    
      1500   4613.8917     -327343.84     -322729.95      412.77864      319.54926      395.05549      795.58483    
      1600   4630.4466     -327315.33     -322684.89      414.2597       319.76366      398.72318      799.51704    
      1700   4617.6833     -327280.75     -322663.06      413.11785      319.45557      397.81239      795.13334    
      1800   4623.5729     -327272.62     -322649.05      413.64476      319.6769       399.54323      795.76965    
      1900   4627.9215     -327273.4      -322645.48      414.0338       320.97604      397.49347      794.52513    
      2000   4620.7667     -327270.64     -322649.87      413.3937       320.62105      397.60219      792.02714    
      2100   4613.134      -327260.67     -322647.54      412.71085      321.57474      392.02433      790.61642    
      2200   4637.2969     -327254.45     -322617.15      414.87256      320.96425      397.27065      800.22037    
      2300   4660.5035     -327243.39     -322582.89      416.94872      321.63003      397.06329      809.83497    
      2400   4612.3408     -327230.75     -322618.41      412.63988      321.63665      392.28019      789.68959    
      2500   4630.3587     -327230.16     -322599.8       414.25185      322.92204      399.0873       786.50929    
      2600   4631.117      -327224.72     -322593.6       414.31968      322.44132      396.72692      791.12769    
      2700   4642.2714     -327223.06     -322580.79      415.3176       323.06786      394.96944      796.7073     
      2800   4634.9465     -327212        -322577.05      414.66229      323.24926      394.09964      793.51382    
      2900   4640.4924     -327200.99     -322560.5       415.15844      323.24168      396.98814      793.11611    
      3000   4668.5821     -327211.65     -322543.07      417.67147      326.13758      398.01012      796.63606    
      3100   4667.2078     -327188.84     -322521.64      417.54852      324.89511      400.49244      797.23658    
      3200   4670.4402     -327195.39     -322524.95      417.83771      327.00786      395.90661      794.61006    
      3300   4650.2136     -327174.94     -322524.73      416.02815      325.65029      397.6412       787.40855    
      3400   4673.229      -327153.1      -322479.87      418.0872       325.85447      393.7032       803.12604    
      3500   4652.1313     -327149.56     -322497.43      416.19971      325.66865      398.35692      788.65381    
      3600   4674.6698     -327159.51     -322484.84      418.2161       327.01789      398.91949      793.34404    
      3700   4675.6296     -327146.04     -322470.41      418.30197      327.51097      397.73465      793.30611    
      3800   4665.4722     -327148.89     -322483.41      417.39325      327.59666      398.11905      787.09601    
      3900   4676.3563     -327146.12     -322469.76      418.36699      328.40619      391.16164      797.49932    
      4000   4681.8824     -327139.74     -322457.86      418.86138      328.5931       396.52254      794.20122    
      4100   4671.6589     -327139.46     -322467.81      417.94674      328.89578      397.80994      786.07748    
      4200   4698.0135     -327140.51     -322442.5       420.30453      329.51426      398.88757      796.46143    
      4300   4686.111      -327124.65     -322438.54      419.23968      329.56484      395.24936      793.80715    
      4400   4681.3109     -327127.24     -322445.93      418.81025      330.25436      397.06909      785.50179    
      4500   4667.7989     -327105.7      -322437.9       417.6014       329.99667      395.57987      781.53748    
      4600   4665.8854     -327093.98     -322428.1       417.43022      329.9449       395.03127      782.46085    
      4700   4683.5447     -327104.52     -322420.97      419.01009      332.94631      392.16099      782.44904    
      4800   4679.0886     -327101.27     -322422.18      418.61143      330.67862      394.43674      786.61175    
      4900   4698.4803     -327096.73     -322398.25      420.34629      330.79855      397.79094      793.51203    
      5000   4693.8738     -327105.14     -322411.26      419.93417      332.41182      396.13016      785.17802    
      5100   4711.9007     -327095.94     -322384.04      421.54694      332.22139      393.2999       797.524      
      5200   4692.4283     -327082.68     -322390.25      419.80486      332.95854      392.92384      786.53479    
      5300   4729.4134     -327087.24     -322357.82      423.11371      333.13165      396.34851      800.34609    
      5400   4721.9617     -327070.31     -322348.34      422.44704      333.57486      395.34414      796.28275    
      5500   4705.396      -327072.54     -322367.15      420.965        333.01748      391.00263      794.77337    
      5600   4722.192      -327060.25     -322338.06      422.46764      333.05926      399.89871      794.14119    
      5700   4710.444      -327069.02     -322358.57      421.41662      334.08419      391.93397      792.20798    
      5800   4714.5307     -327070.04     -322355.51      421.78224      335.55204      392.72071      787.10098    
      5900   4725.9615     -327050.38     -322324.42      422.80488      334.46211      397.03917      793.91959    
      6000   4725.4299     -327056.41     -322330.98      422.75732      336.37562      394.29135      787.38249    
      6100   4728.0861     -327034.64     -322306.56      422.99496      335.58687      391.32151      796.74687    
      6200   4724.9043     -327045.92     -322321.01      422.7103       335.69489      393.97134      790.50744    
      6300   4731.2107     -327047.63     -322316.42      423.2745       335.85825      393.31959      794.10568    
      6400   4756.0979     -327053.2      -322297.1       425.50101      339.01004      398.61287      789.77225    
      6500   4733.3796     -327010.61     -322277.23      423.46854      335.59474      397.71431      792.92924    
      6600   4743.2891     -327017.53     -322274.24      424.35509      337.06093      394.77038      794.69302    
      6700   4743.3065     -327023.37     -322280.06      424.35664      338.69841      399.88523      783.71263    
      6800   4731.6678     -327024.08     -322292.41      423.31539      337.14721      396.23804      786.22448    
      6900   4754.9708     -327020.66     -322265.68      425.40017      338.79025      395.4973       793.85491    
      7000   4760.358      -327016.05     -322255.69      425.88214      339.69894      396.98348      791.37708    
      7100   4769.3846     -327005.78     -322236.39      426.68969      339.12596      398.26887      796.67951    
      7200   4770.9886     -327009.71     -322238.72      426.8332       339.92346      393.71926      800.34485    
      7300   4750.0343     -327005.4      -322255.37      424.95854      341.1906       396.95591      779.7789     
      7400   4753.4218     -326992.68     -322239.26      425.2616       340.50433      398.24901      782.85273    
      7500   4763.5654     -326982.31     -322218.75      426.16909      340.59493      400.47445      785.99766    
      7600   4755.4276     -326975.83     -322220.4       425.44105      340.11908      396.46502      787.31946    
      7700   4776.5453     -326982.48     -322205.93      427.33032      342.08674      398.85639      788.08908    
      7800   4778.6626     -326964.36     -322185.7       427.51975      341.64589      394.48957      795.17294    
      7900   4791.1774     -326959.71     -322168.54      428.63938      342.27475      395.74985      798.41935    
      8000   4777.3248     -326973.91     -322196.59      427.40006      343.28791      395.12871      788.06643    
      8100   4777.712      -326948.18     -322170.47      427.4347       341.53159      403.46278      786.76586    
      8200   4767.1265     -326957.5      -322190.37      426.48768      342.77564      394.7315       785.18196    
      8300   4790.4063     -326964.54     -322174.13      428.57039      344.13677      398.52308      788.27349    
      8400   4795.3165     -326959.36     -322164.05      429.00968      344.68164      392.00685      795.04554    
      8500   4807.31       -326933.66     -322126.35      430.08267      343.9019       403.07965      792.88321    
      8600   4771.1065     -326926.29     -322155.18      426.84375      343.56948      394.69592      783.96282    
      8700   4803.8119     -326934.21     -322130.4       429.76971      345.55136      399.36068      789.3727     
      8800   4805.4143     -326933.38     -322127.96      429.91307      344.17109      397.77546      796.81251    
      8900   4803.2503     -326932.68     -322129.42      429.71947      345.90268      398.49172      787.75869    
      9000   4817.3703     -326923.49     -322106.12      430.98271      345.67995      396.30457      798.36724    
      9100   4798.4062     -326938.43     -322140.03      429.28609      345.43829      401.40867      782.87289    
      9200   4811.7668     -326942.89     -322131.13      430.4814       346.9748       394.65336      791.8193     
      9300   4795.4424     -326927.09     -322131.65      429.02094      346.19082      394.08239      786.77412    
      9400   4801.4939     -326936.08     -322134.59      429.56234      346.8088       398.49296      782.99899    
      9500   4817.3302     -326919.74     -322102.41      430.97912      346.92062      398.1112       791.64332    
      9600   4831.064      -326916.73     -322085.67      432.2078       348.48369      393.52249      796.15289    
      9700   4810.1513     -326911.84     -322101.69      430.33686      348.52162      391.95449      788.48173    
      9800   4830.7834     -326918.69     -322087.91      432.1827       348.17672      399.87079      791.52392    
      9900   4822.902      -326888.16     -322065.26      431.47759      348.74254      400.52028      786.49462    
     10000   4829.2693     -326889.69     -322060.42      432.04724      349.46865      392.78639      793.9594     
     10100   4835.0006     -326892.83     -322057.83      432.55999      349.53196      403.15783      786.68609    
     10200   4841.6291     -326882.97     -322041.34      433.153        348.8668       397.99354      797.1512     
     10300   4850.9532     -326894.16     -322043.21      433.98718      350.68842      401.03319      791.5585     
     10400   4819.8686     -326884.7      -322064.83      431.20621      350.12176      392.85713      786.5241     
     10500   4852.2421     -326897.67     -322045.43      434.10249      351.47714      394.64224      795.72167    
     10600   4834.1769     -326880.02     -322045.84      432.4863       350.41863      392.28975      791.87806    
     10700   4845.2887     -326890.41     -322045.13      433.48041      352.43979      394.45544      788.62168    
     10800   4846.8214     -326864.07     -322017.25      433.61753      351.43851      391.55988      796.298      
     10900   4836.2562     -326845.34     -322009.08      432.67232      350.8249       397.8189       787.29898    
     11000   4848.0874     -326890.01     -322041.92      433.73079      354.0698       390.90408      787.1433     
     11100   4842.3355     -326877.95     -322035.61      433.2162       352.56201      394.31233      786.8909     
     11200   4854.3101     -326841.16     -321986.85      434.2875       351.27496      394.79251      797.13271    
     11300   4881.4351     -326884.13     -322002.7       436.71422      355.81987      395.43961      792.43212    
     11400   4864.6266     -326856.15     -321991.52      435.21046      352.38053      400.27465      793.0283     
     11500   4876.3607     -326849.03     -321972.67      436.26024      353.42284      402.59432      793.11848    
     11600   4890.4683     -326851.85     -321961.38      437.52237      353.99647      398.4779       801.3663     
     11700   4851.7595     -326825.07     -321973.31      434.05931      353.64348      393.99485      788.65729    
     11800   4874.6185     -326823.46     -321948.84      436.10437      353.86186      399.82849      793.63903    
     11900   4866.8886     -326843.42     -321976.54      435.41282      355.61353      392.60536      789.59273    
     12000   4890.2799     -326829.29     -321939.01      437.50551      354.65202      399.47397      799.14071    
     12100   4881.2027     -326835.62     -321954.42      436.69343      356.41685      396.94493      789.14958    
     12200   4865.7987     -326820.94     -321955.14      435.31532      354.4975       401.36751      784.04334    
     12300   4907.9718     -326825.97     -321918         439.08831      356.33304      401.13059      799.10707    
     12400   4883.6572     -326828.09     -321944.43      436.91302      357.34566      396.04474      788.27545    
     12500   4894.5415     -326820.06     -321925.52      437.88677      356.78715      398.09219      793.67383    
     12600   4882.4962     -326799.67     -321917.17      436.80915      356.22358      399.32366      788.56524    
     12700   4876.1925     -326797.88     -321921.68      436.24519      356.07688      392.34732      792.32302    
     12800   4902.195      -326821.24     -321919.05      438.57149      358.26837      396.87178      793.55467    
     12900   4888.7768     -326810.19     -321921.41      437.37104      357.31692      394.13449      792.6989     
     13000   4915.4746     -326819.11     -321903.64      439.75954      359.67869      402.68894      788.94012    
     13100   4879.5963     -326801.64     -321922.04      436.54971      357.34292      394.54604      787.33117    
     13200   4904.7054     -326808.39     -321903.68      438.79608      359.51642      398.09697      789.05118    
     13300   4886.5718     -326794.72     -321908.15      437.17377      359.67817      395.06702      781.81795    
     13400   4891.4506     -326804.55     -321913.1       437.61025      360.55906      396.1588       780.38957    
     13500   4898.3753     -326793.6      -321895.22      438.22976      358.65481      399.71698      787.11677    
     13600   4923.7864     -326804.99     -321881.2       440.50315      360.00825      398.22309      797.56645    
     13700   4915.3252     -326797.02     -321881.7       439.74617      361.07166      396.30622      789.62881    
     13800   4897.7977     -326777.46     -321879.66      438.17809      359.31514      392.90668      792.15998    
     13900   4917.1312     -326785.35     -321868.22      439.90775      359.75622      400.21955      792.13135    
     14000   4908.309      -326780.38     -321872.07      439.11847      360.55746      396.83774      787.702      
     14100   4931.0916     -326792.89     -321861.8       441.15671      362.06009      394.32722      796.32005    
     14200   4911.9641     -326777.18     -321865.22      439.44547      360.38227      396.9602       789.71682    
     14300   4931.2929     -326779.04     -321847.74      441.17471      362.57654      400.16191      788.07624    
     14400   4919.505      -326792.63     -321873.12      440.12011      361.17617      393.10821      794.42075    
     14500   4920.2497     -326784.84     -321864.59      440.18674      361.70064      393.41341      792.7489     
     14600   4935.6282     -326784.14     -321848.51      441.56257      363.2806       392.82196      795.50229    
     14700   4925.3037     -326765.73     -321840.43      440.6389       362.11691      398.04189      787.92571    
     14800   4916.6563     -326771.45     -321854.79      439.86526      361.88873      394.46356      788.98533    
     14900   4908.582      -326765.27     -321856.69      439.1429       362.79225      394.19534      782.33389    
     15000   4959.6259     -326796.91     -321837.28      443.7095       364.60855      390.5644       806.21829    
     15100   4928.267      -326764.34     -321836.07      440.904        362.99766      395.50846      789.10098    
     15200   4956.5765     -326774.25     -321817.67      443.43669      365.13344      396.19886      795.49388    
     15300   4925.5356     -326760.54     -321835         440.65964      363.84911      393.99027      787.22017    
     15400   4944.3753     -326753.13     -321808.75      442.34512      364.43415      397.57875      790.12557    
     15500   4970.6599     -326755.26     -321784.6       444.69665      365.84605      395.71085      802.10508    
     15600   4950.5874     -326743.58     -321792.99      442.90089      364.43773      394.36252      796.07333    
     15700   4959.5121     -326738        -321778.49      443.69932      365.63752      397.95599      794.2241     
     15800   4953.7567     -326750.12     -321796.37      443.18442      366.55898      396.83833      788.26304    
     15900   4934.5055     -326731.61     -321797.1       441.46213      364.86874      395.98523      785.57808    
     16000   4968.4091     -326739.43     -321771.02      444.49528      366.93144      398.93832      791.54363    
     16100   4940.4942     -326713.07     -321772.58      441.9979       364.86168      392.40166      792.25971    
     16200   4978.5773     -326707.9      -321729.32      445.40498      366.0383       396.88882      802.83559    
     16300   4991.3956     -326713.5      -321722.11      446.55176      368.01754      401.52675      797.35409    
     16400   4956.296      -326708.24     -321751.95      443.4116       366.8932       393.22507      792.68364    
     16500   4985.9672     -326713.97     -321728.01      446.06611      367.48784      395.74463      802.74824    
     16600   4979.9866     -326718.12     -321738.13      445.53106      368.39825      399.40856      793.36956    
     16700   4961.615      -326722.1      -321760.48      443.88746      368.87553      395.51319      784.0583     
     16800   4969.2361     -326704.11     -321734.87      444.56927      367.90306      397.01595      791.02129    
     16900   4991.5652     -326711.77     -321720.21      446.56694      369.49388      393.01037      800.70356    
     17000   4999.3394     -326719.57     -321720.23      447.26245      371.08284      398.23745      793.99119    
     17100   4967.8754     -326686.39     -321718.51      444.44754      368.46089      394.63412      790.55693    
     17200   4975.5559     -326697.88     -321722.32      445.13467      370.15527      393.7558       788.61025    
     17300   4992.7443     -326694.92     -321702.18      446.67242      368.99056      402.97576      792.50951    
     17400   4974.9039     -326679.89     -321704.98      445.07634      369.67409      392.19041      793.18843    
     17500   4996.8369     -326703.88     -321707.04      447.03856      371.41149      392.70933      796.55582    
     17600   4985.4082     -326688.55     -321703.14      446.0161       370.95585      393.63685      792.23454    
     17700   4975.3292     -326680.73     -321705.4       445.11439      369.55396      397.19754      787.2183     
     17800   5005.1995     -326714.45     -321709.25      447.78671      373.58287      395.21276      790.55114    
     17900   5001.5168     -326697.41     -321695.89      447.45724      371.32425      396.18724      795.18141    
     18000   5008.5067     -326687.26     -321678.75      448.08259      370.69204      399.42832      798.6392     
     18100   5029.9785     -326707.15     -321677.17      450.00355      373.62489      394.7887       803.82       
     18200   5002.6631     -326696.3      -321693.64      447.5598       371.33335      398.37602      793.05228    
     18300   5012.3846     -326689.09     -321676.71      448.42953      372.2775       392.22309      802.34173    
     18400   5027.005      -326701.06     -321674.05      449.73753      374.56864      395.25056      798.09542    
     18500   4974.0542     -326657.29     -321683.24      445.00032      370.20554      396.68471      785.1218     
     18600   5024.7555     -326682.83     -321658.07      449.53628      374.91984      397.25799      792.98201    
     18700   5026.3519     -326662.11     -321635.76      449.6791       373.37481      398.70323      798.17524    
     18800   5019.2404     -326686.84     -321667.6       449.04288      374.53206      396.33812      791.16622    
     18900   5022.3826     -326680.5      -321658.12      449.32399      373.89262      398.12311      793.9633     
     19000   5002.2782     -326658.91     -321656.63      447.52536      373.23182      393.45471      791.66342    
     19100   5013.3691     -326663.06     -321649.69      448.51761      374.33176      393.44261      792.95457    
     19200   5024.5161     -326661.05     -321636.54      449.51486      375.57365      393.6125       793.8025     
     19300   5020.0828     -326635.97     -321615.89      449.11824      374.10754      395.74118      795.68163    
     19400   5027.6444     -326661.19     -321633.55      449.79474      377.29777      395.77285      787.08858    
     19500   5037.2768     -326646.34     -321609.06      450.65649      376.02605      400.18238      792.72396    
     19600   5017.7418     -326636.86     -321619.12      448.9088       375.64867      397.39704      785.67703    
     19700   5029.3906     -326642.22     -321612.83      449.95096      375.04901      398.09347      793.38332    
     19800   5020.9911     -326653.21     -321632.22      449.1995       376.85535      393.45865      785.64193    
     19900   5030.4442     -326643.78     -321613.34      450.04522      376.34698      399.65198      787.31722    
     20000   5034.2731     -326640.97     -321606.7       450.38777      375.66242      392.7196       799.06946    
     20100   5052.9655     -326658.76     -321605.79      452.06007      379.26957      397.8031       789.93433    
     20200   5035.2067     -326632.42     -321597.21      450.47129      377.01381      400.02251      788.21135    
     20300   5024.7232     -326625.06     -321600.34      449.53339      376.95329      395.53502      785.26216    
     20400   5035.3678     -326620.88     -321585.51      450.4857       376.53577      396.83945      792.23004    
     20500   5052.3348     -326643.56     -321591.22      452.00364      379.32493      393.71896      792.58485    
     20600   5047.8292     -326627.33     -321579.51      451.60055      376.83944      399.13347      794.90299    
     20700   5053.8264     -326632.45     -321578.63      452.13709      378.21792      397.81662      794.02325    
     20800   5045.4002     -326621.86     -321576.46      451.38325      380.21759      395.8042       783.52605    
     20900   5065.806      -326621.48     -321555.67      453.20884      379.63113      399.5761       793.08108    
     21000   5039.8209     -326608.17     -321568.35      450.88409      377.53258      392.83474      795.00353    
     21100   5045.812      -326615.96     -321570.14      451.42008      379.06911      396.5398       788.72949    
     21200   5072.4459     -326630.69     -321558.24      453.80287      380.35616      397.54947      796.59176    
     21300   5073.6596     -326618.9      -321545.24      453.91145      380.49706      395.94176      797.66738    
     21400   5047.1721     -326615.1      -321567.93      451.54176      379.24927      399.89924      784.39424    
     21500   5055.3478     -326588.71     -321533.36      452.27319      377.49292      396.80358      798.06432    
     21600   5053.8884     -326615.17     -321561.28      452.14263      380.8984       397.38449      783.52262    
     21700   5067.4796     -326602.49     -321535.01      453.35856      380.16679      393.50629      797.74251    
     21800   5068.5999     -326583.3      -321514.7       453.45879      378.57765      395.46743      803.16708    
     21900   5077.7878     -326595.96     -321518.17      454.28078      381.67871      399.1293       792.13169    
     22000   5080.1661     -326589.22     -321509.05      454.49355      381.41306      399.14471      794.27166    
     22100   5055.4368     -326584.06     -321528.62      452.28116      380.72496      392.72952      790.59744    
     22200   5087.3509     -326579.82     -321492.47      455.13633      382.21863      400.36457      793.53411    
     22300   5052.8916     -326574.22     -321521.33      452.05346      382.16173      395.26312      781.59203    
     22400   5070.8289     -326555.88     -321485.05      453.65821      381.7274       395.12661      791.90232    
     22500   5083.1967     -326576.72     -321493.52      454.76468      383.04998      396.62153      791.28617    
     22600   5074.1965     -326569.86     -321495.67      453.95949      382.8424       394.17725      790.7156     
     22700   5080.1855     -326553.71     -321473.52      454.49529      381.03179      396.15258      798.9516     
     22800   5091.6125     -326558.35     -321466.74      455.51759      383.75501      393.55877      797.37519    
     22900   5074.8362     -326554.95     -321480.11      454.01672      382.9546       393.56393      792.4706     
     23000   5114.7534     -326568.84     -321454.09      457.58788      384.52071      398.2073       801.78238    
     23100   5079.0774     -326556.11     -321477.04      454.39616      383.72042      395.38126      789.81595    
     23200   5091.3988     -326545.4      -321454         455.49847      383.21189      397.62164      796.14228    
     23300   5096.5927     -326569.76     -321473.16      455.96315      384.90591      396.43842      791.94016    
     23400   5111.0882     -326576.46     -321465.37      457.25998      385.11039      395.45367      800.69837    
     23500   5093.0821     -326571.41     -321478.33      455.64907      385.00553      392.78784      793.55025    
     23600   5113.0552     -326566.85     -321453.79      457.43595      386.47652      395.32248      797.02371    
     23700   5107.8856     -326570.8      -321462.91      456.97346      385.9664       392.56557      797.99615    
     23800   5094.8238     -326555.58     -321460.76      455.80489      384.58702      390.53712      798.66068    
     23900   5103.9155     -326559.66     -321455.74      456.61827      385.96836      397.31773      791.96019    
     24000   5104.3298     -326555.73     -321451.4       456.65534      384.93167      395.89807      796.62473    
     24100   5104.0871     -326563.08     -321458.99      456.63363      386.68629      395.6797       789.9791     
     24200   5111.8352     -326549.78     -321437.95      457.32681      386.6522       400.25296      788.89373    
     24300   5136.7671     -326556.37     -321419.6       459.55732      387.64702      399.1575       800.28555    
     24400   5117.7168     -326541.17     -321423.46      457.853        386.34934      396.44052      795.46891    
     24500   5087.6652     -326530.38     -321442.71      455.16445      386.13349      393.29114      786.88532    
     24600   5129.5645     -326558.34     -321428.77      458.91294      388.84543      396.31022      793.54508    
     24700   5100.1163     -326527.23     -321427.12      456.27838      387.05596      392.85593      789.1969     
     24800   5100.4259     -326525.05     -321424.62      456.30608      387.534        394.32722      784.78157    
     24900   5140.9485     -326536.88     -321395.93      459.93141      388.52706      400.20599      796.52614    
     25000   5108.0616     -326526.1      -321418.04      456.9892       387.24896      396.56468      789.39147    
Loop time of 2537.38 on 4 procs for 25000 steps with 86475 atoms

Performance: 0.851 ns/day, 28.193 hours/ns, 9.853 timesteps/s
99.3% CPU use with 1 MPI tasks x 4 OpenMP threads

MPI task timing breakdown:
Section |  min time  |  avg time  |  max time  |%varavg| %total
---------------------------------------------------------------
Pair    | 2388.3     | 2388.3     | 2388.3     |   0.0 | 94.12
Neigh   | 14.91      | 14.91      | 14.91      |   0.0 |  0.59
Comm    | 13.386     | 13.386     | 13.386     |   0.0 |  0.53
Output  | 6.4739     | 6.4739     | 6.4739     |   0.0 |  0.26
Modify  | 103.29     | 103.29     | 103.29     |   0.0 |  4.07
Other   |            | 11.05      |            |       |  0.44

Nlocal:          86475 ave       86475 max       86475 min
Histogram: 1 0 0 0 0 0 0 0 0 0
Nghost:          22192 ave       22192 max       22192 min
Histogram: 1 0 0 0 0 0 0 0 0 0
Neighs:    3.97775e+06 ave 3.97775e+06 max 3.97775e+06 min
Histogram: 1 0 0 0 0 0 0 0 0 0

Total # of neighbors = 3977746
Ave neighs/atom = 45.998797
Neighbor list builds = 133
Dangerous builds = 0




Total wall time: 0:42:18
