LAMMPS data file via write_data, version 15 Sep 2022, timestep = 0

38320 atoms
8 atom types

0 122.36999999999999 xlo xhi
0 122.36999999999999 ylo yhi
0 489.47999999999996 zlo zhi

Masses

1 196.96
2 196.96
3 196.96
4 196.96
5 196.96
6 196.96
7 196.96
8 196.96

Atoms # atomic

1 1 0 0 0 0 0 0
2 1 2.0395 2.0395 0 0 0 0
3 1 2.0395 0 2.0395 0 0 0
4 1 0 2.0395 2.0395 0 0 0
5 1 4.079 0 0 0 0 0
6 1 6.118499999999999 2.0395 0 0 0 0
7 1 6.118499999999999 0 2.0395 0 0 0
8 1 4.079 2.0395 2.0395 0 0 0
9 1 8.158 0 0 0 0 0
10 1 10.1975 2.0395 0 0 0 0
11 1 10.1975 0 2.0395 0 0 0
12 1 8.158 2.0395 2.0395 0 0 0
13 1 12.236999999999998 0 0 0 0 0
14 1 14.276499999999999 2.0395 0 0 0 0
15 1 14.276499999999999 0 2.0395 0 0 0
16 1 12.236999999999998 2.0395 2.0395 0 0 0
17 1 16.316 0 0 0 0 0
18 1 18.3555 2.0395 0 0 0 0
19 1 18.3555 0 2.0395 0 0 0
20 1 16.316 2.0395 2.0395 0 0 0
21 1 20.395 0 0 0 0 0
22 1 22.4345 2.0395 0 0 0 0
23 1 22.4345 0 2.0395 0 0 0
24 1 20.395 2.0395 2.0395 0 0 0
25 1 24.473999999999997 0 0 0 0 0
26 1 26.513499999999997 2.0395 0 0 0 0
27 1 26.513499999999997 0 2.0395 0 0 0
28 1 24.473999999999997 2.0395 2.0395 0 0 0
29 1 28.552999999999997 0 0 0 0 0
30 1 30.592499999999998 2.0395 0 0 0 0
31 1 30.592499999999998 0 2.0395 0 0 0
32 1 28.552999999999997 2.0395 2.0395 0 0 0
33 1 32.632 0 0 0 0 0
34 1 34.671499999999995 2.0395 0 0 0 0
35 1 34.671499999999995 0 2.0395 0 0 0
36 1 32.632 2.0395 2.0395 0 0 0
37 1 36.711 0 0 0 0 0
38 1 38.750499999999995 2.0395 0 0 0 0
39 1 38.750499999999995 0 2.0395 0 0 0
40 1 36.711 2.0395 2.0395 0 0 0
41 1 40.79 0 0 0 0 0
42 1 42.829499999999996 2.0395 0 0 0 0
43 1 42.829499999999996 0 2.0395 0 0 0
44 1 40.79 2.0395 2.0395 0 0 0
45 1 44.869 0 0 0 0 0
46 1 46.9085 2.0395 0 0 0 0
47 1 46.9085 0 2.0395 0 0 0
48 1 44.869 2.0395 2.0395 0 0 0
49 1 48.94799999999999 0 0 0 0 0
50 1 50.9875 2.0395 0 0 0 0
51 1 50.9875 0 2.0395 0 0 0
52 1 48.94799999999999 2.0395 2.0395 0 0 0
53 1 53.026999999999994 0 0 0 0 0
54 1 55.0665 2.0395 0 0 0 0
55 1 55.0665 0 2.0395 0 0 0
56 1 53.026999999999994 2.0395 2.0395 0 0 0
57 1 57.105999999999995 0 0 0 0 0
58 1 59.1455 2.0395 0 0 0 0
59 1 59.1455 0 2.0395 0 0 0
60 1 57.105999999999995 2.0395 2.0395 0 0 0
61 1 61.184999999999995 0 0 0 0 0
62 1 63.2245 2.0395 0 0 0 0
63 1 63.2245 0 2.0395 0 0 0
64 1 61.184999999999995 2.0395 2.0395 0 0 0
65 1 65.264 0 0 0 0 0
66 1 67.3035 2.0395 0 0 0 0
67 1 67.3035 0 2.0395 0 0 0
68 1 65.264 2.0395 2.0395 0 0 0
69 1 69.34299999999999 0 0 0 0 0
70 1 71.3825 2.0395 0 0 0 0
71 1 71.3825 0 2.0395 0 0 0
72 1 69.34299999999999 2.0395 2.0395 0 0 0
73 1 73.422 0 0 0 0 0
74 1 75.4615 2.0395 0 0 0 0
75 1 75.4615 0 2.0395 0 0 0
76 1 73.422 2.0395 2.0395 0 0 0
77 1 77.50099999999999 0 0 0 0 0
78 1 79.5405 2.0395 0 0 0 0
79 1 79.5405 0 2.0395 0 0 0
80 1 77.50099999999999 2.0395 2.0395 0 0 0
81 1 81.58 0 0 0 0 0
82 1 83.61949999999999 2.0395 0 0 0 0
83 1 83.61949999999999 0 2.0395 0 0 0
84 1 81.58 2.0395 2.0395 0 0 0
85 1 85.65899999999999 0 0 0 0 0
86 1 87.6985 2.0395 0 0 0 0
87 1 87.6985 0 2.0395 0 0 0
88 1 85.65899999999999 2.0395 2.0395 0 0 0
89 1 89.738 0 0 0 0 0
90 1 91.77749999999999 2.0395 0 0 0 0
91 1 91.77749999999999 0 2.0395 0 0 0
92 1 89.738 2.0395 2.0395 0 0 0
93 1 93.817 0 0 0 0 0
94 1 95.8565 2.0395 0 0 0 0
95 1 95.8565 0 2.0395 0 0 0
96 1 93.817 2.0395 2.0395 0 0 0
97 1 97.89599999999999 0 0 0 0 0
98 1 99.93549999999999 2.0395 0 0 0 0
99 1 99.93549999999999 0 2.0395 0 0 0
100 1 97.89599999999999 2.0395 2.0395 0 0 0
101 1 101.975 0 0 0 0 0
102 1 104.0145 2.0395 0 0 0 0
103 1 104.0145 0 2.0395 0 0 0
104 1 101.975 2.0395 2.0395 0 0 0
105 1 106.05399999999999 0 0 0 0 0
106 1 108.09349999999999 2.0395 0 0 0 0
107 1 108.09349999999999 0 2.0395 0 0 0
108 1 106.05399999999999 2.0395 2.0395 0 0 0
109 1 110.133 0 0 0 0 0
110 1 112.1725 2.0395 0 0 0 0
111 1 112.1725 0 2.0395 0 0 0
112 1 110.133 2.0395 2.0395 0 0 0
113 1 114.21199999999999 0 0 0 0 0
114 1 116.2515 2.0395 0 0 0 0
115 1 116.2515 0 2.0395 0 0 0
116 1 114.21199999999999 2.0395 2.0395 0 0 0
117 1 118.291 0 0 0 0 0
118 1 120.33049999999999 2.0395 0 0 0 0
119 1 120.33049999999999 0 2.0395 0 0 0
120 1 118.291 2.0395 2.0395 0 0 0
121 1 0 4.079 0 0 0 0
122 1 2.0395 6.118499999999999 0 0 0 0
123 1 2.0395 4.079 2.0395 0 0 0
124 1 0 6.118499999999999 2.0395 0 0 0
125 1 4.079 4.079 0 0 0 0
126 1 6.118499999999999 6.118499999999999 0 0 0 0
127 1 6.118499999999999 4.079 2.0395 0 0 0
128 1 4.079 6.118499999999999 2.0395 0 0 0
129 1 8.158 4.079 0 0 0 0
130 1 10.1975 6.118499999999999 0 0 0 0
131 1 10.1975 4.079 2.0395 0 0 0
132 1 8.158 6.118499999999999 2.0395 0 0 0
133 1 12.236999999999998 4.079 0 0 0 0
134 1 14.276499999999999 6.118499999999999 0 0 0 0
135 1 14.276499999999999 4.079 2.0395 0 0 0
136 1 12.236999999999998 6.118499999999999 2.0395 0 0 0
137 1 16.316 4.079 0 0 0 0
138 1 18.3555 6.118499999999999 0 0 0 0
139 1 18.3555 4.079 2.0395 0 0 0
140 1 16.316 6.118499999999999 2.0395 0 0 0
141 1 20.395 4.079 0 0 0 0
142 1 22.4345 6.118499999999999 0 0 0 0
143 1 22.4345 4.079 2.0395 0 0 0
144 1 20.395 6.118499999999999 2.0395 0 0 0
145 1 24.473999999999997 4.079 0 0 0 0
146 1 26.513499999999997 6.118499999999999 0 0 0 0
147 1 26.513499999999997 4.079 2.0395 0 0 0
148 1 24.473999999999997 6.118499999999999 2.0395 0 0 0
149 1 28.552999999999997 4.079 0 0 0 0
150 1 30.592499999999998 6.118499999999999 0 0 0 0
151 1 30.592499999999998 4.079 2.0395 0 0 0
152 1 28.552999999999997 6.118499999999999 2.0395 0 0 0
153 1 32.632 4.079 0 0 0 0
154 1 34.671499999999995 6.118499999999999 0 0 0 0
155 1 34.671499999999995 4.079 2.0395 0 0 0
156 1 32.632 6.118499999999999 2.0395 0 0 0
157 1 36.711 4.079 0 0 0 0
158 1 38.750499999999995 6.118499999999999 0 0 0 0
159 1 38.750499999999995 4.079 2.0395 0 0 0
160 1 36.711 6.118499999999999 2.0395 0 0 0
161 1 40.79 4.079 0 0 0 0
162 1 42.829499999999996 6.118499999999999 0 0 0 0
163 1 42.829499999999996 4.079 2.0395 0 0 0
164 1 40.79 6.118499999999999 2.0395 0 0 0
165 1 44.869 4.079 0 0 0 0
166 1 46.9085 6.118499999999999 0 0 0 0
167 1 46.9085 4.079 2.0395 0 0 0
168 1 44.869 6.118499999999999 2.0395 0 0 0
169 1 48.94799999999999 4.079 0 0 0 0
170 1 50.9875 6.118499999999999 0 0 0 0
171 1 50.9875 4.079 2.0395 0 0 0
172 1 48.94799999999999 6.118499999999999 2.0395 0 0 0
173 1 53.026999999999994 4.079 0 0 0 0
174 1 55.0665 6.118499999999999 0 0 0 0
175 1 55.0665 4.079 2.0395 0 0 0
176 1 53.026999999999994 6.118499999999999 2.0395 0 0 0
177 1 57.105999999999995 4.079 0 0 0 0
178 1 59.1455 6.118499999999999 0 0 0 0
179 1 59.1455 4.079 2.0395 0 0 0
180 1 57.105999999999995 6.118499999999999 2.0395 0 0 0
181 1 61.184999999999995 4.079 0 0 0 0
182 1 63.2245 6.118499999999999 0 0 0 0
183 1 63.2245 4.079 2.0395 0 0 0
184 1 61.184999999999995 6.118499999999999 2.0395 0 0 0
185 1 65.264 4.079 0 0 0 0
186 1 67.3035 6.118499999999999 0 0 0 0
187 1 67.3035 4.079 2.0395 0 0 0
188 1 65.264 6.118499999999999 2.0395 0 0 0
189 1 69.34299999999999 4.079 0 0 0 0
190 1 71.3825 6.118499999999999 0 0 0 0
191 1 71.3825 4.079 2.0395 0 0 0
192 1 69.34299999999999 6.118499999999999 2.0395 0 0 0
193 1 73.422 4.079 0 0 0 0
194 1 75.4615 6.118499999999999 0 0 0 0
195 1 75.4615 4.079 2.0395 0 0 0
196 1 73.422 6.118499999999999 2.0395 0 0 0
197 1 77.50099999999999 4.079 0 0 0 0
198 1 79.5405 6.118499999999999 0 0 0 0
199 1 79.5405 4.079 2.0395 0 0 0
200 1 77.50099999999999 6.118499999999999 2.0395 0 0 0
201 1 81.58 4.079 0 0 0 0
202 1 83.61949999999999 6.118499999999999 0 0 0 0
203 1 83.61949999999999 4.079 2.0395 0 0 0
204 1 81.58 6.118499999999999 2.0395 0 0 0
205 1 85.65899999999999 4.079 0 0 0 0
206 1 87.6985 6.118499999999999 0 0 0 0
207 1 87.6985 4.079 2.0395 0 0 0
208 1 85.65899999999999 6.118499999999999 2.0395 0 0 0
209 1 89.738 4.079 0 0 0 0
210 1 91.77749999999999 6.118499999999999 0 0 0 0
211 1 91.77749999999999 4.079 2.0395 0 0 0
212 1 89.738 6.118499999999999 2.0395 0 0 0
213 1 93.817 4.079 0 0 0 0
214 1 95.8565 6.118499999999999 0 0 0 0
215 1 95.8565 4.079 2.0395 0 0 0
216 1 93.817 6.118499999999999 2.0395 0 0 0
217 1 97.89599999999999 4.079 0 0 0 0
218 1 99.93549999999999 6.118499999999999 0 0 0 0
219 1 99.93549999999999 4.079 2.0395 0 0 0
220 1 97.89599999999999 6.118499999999999 2.0395 0 0 0
221 1 101.975 4.079 0 0 0 0
222 1 104.0145 6.118499999999999 0 0 0 0
223 1 104.0145 4.079 2.0395 0 0 0
224 1 101.975 6.118499999999999 2.0395 0 0 0
225 1 106.05399999999999 4.079 0 0 0 0
226 1 108.09349999999999 6.118499999999999 0 0 0 0
227 1 108.09349999999999 4.079 2.0395 0 0 0
228 1 106.05399999999999 6.118499999999999 2.0395 0 0 0
229 1 110.133 4.079 0 0 0 0
230 1 112.1725 6.118499999999999 0 0 0 0
231 1 112.1725 4.079 2.0395 0 0 0
232 1 110.133 6.118499999999999 2.0395 0 0 0
233 1 114.21199999999999 4.079 0 0 0 0
234 1 116.2515 6.118499999999999 0 0 0 0
235 1 116.2515 4.079 2.0395 0 0 0
236 1 114.21199999999999 6.118499999999999 2.0395 0 0 0
237 1 118.291 4.079 0 0 0 0
238 1 120.33049999999999 6.118499999999999 0 0 0 0
239 1 120.33049999999999 4.079 2.0395 0 0 0
240 1 118.291 6.118499999999999 2.0395 0 0 0
241 1 0 8.158 0 0 0 0
242 1 2.0395 10.1975 0 0 0 0
243 1 2.0395 8.158 2.0395 0 0 0
244 1 0 10.1975 2.0395 0 0 0
245 1 4.079 8.158 0 0 0 0
246 1 6.118499999999999 10.1975 0 0 0 0
247 1 6.118499999999999 8.158 2.0395 0 0 0
248 1 4.079 10.1975 2.0395 0 0 0
249 1 8.158 8.158 0 0 0 0
250 1 10.1975 10.1975 0 0 0 0
251 1 10.1975 8.158 2.0395 0 0 0
252 1 8.158 10.1975 2.0395 0 0 0
253 1 12.236999999999998 8.158 0 0 0 0
254 1 14.276499999999999 10.1975 0 0 0 0
255 1 14.276499999999999 8.158 2.0395 0 0 0
256 1 12.236999999999998 10.1975 2.0395 0 0 0
257 1 16.316 8.158 0 0 0 0
258 1 18.3555 10.1975 0 0 0 0
259 1 18.3555 8.158 2.0395 0 0 0
260 1 16.316 10.1975 2.0395 0 0 0
261 1 20.395 8.158 0 0 0 0
262 1 22.4345 10.1975 0 0 0 0
263 1 22.4345 8.158 2.0395 0 0 0
264 1 20.395 10.1975 2.0395 0 0 0
265 1 24.473999999999997 8.158 0 0 0 0
266 1 26.513499999999997 10.1975 0 0 0 0
267 1 26.513499999999997 8.158 2.0395 0 0 0
268 1 24.473999999999997 10.1975 2.0395 0 0 0
269 1 28.552999999999997 8.158 0 0 0 0
270 1 30.592499999999998 10.1975 0 0 0 0
271 1 30.592499999999998 8.158 2.0395 0 0 0
272 1 28.552999999999997 10.1975 2.0395 0 0 0
273 1 32.632 8.158 0 0 0 0
274 1 34.671499999999995 10.1975 0 0 0 0
275 1 34.671499999999995 8.158 2.0395 0 0 0
276 1 32.632 10.1975 2.0395 0 0 0
277 1 36.711 8.158 0 0 0 0
278 1 38.750499999999995 10.1975 0 0 0 0
279 1 38.750499999999995 8.158 2.0395 0 0 0
280 1 36.711 10.1975 2.0395 0 0 0
281 1 40.79 8.158 0 0 0 0
282 1 42.829499999999996 10.1975 0 0 0 0
283 1 42.829499999999996 8.158 2.0395 0 0 0
284 1 40.79 10.1975 2.0395 0 0 0
285 1 44.869 8.158 0 0 0 0
286 1 46.9085 10.1975 0 0 0 0
287 1 46.9085 8.158 2.0395 0 0 0
288 1 44.869 10.1975 2.0395 0 0 0
289 1 48.94799999999999 8.158 0 0 0 0
290 1 50.9875 10.1975 0 0 0 0
291 1 50.9875 8.158 2.0395 0 0 0
292 1 48.94799999999999 10.1975 2.0395 0 0 0
293 1 53.026999999999994 8.158 0 0 0 0
294 1 55.0665 10.1975 0 0 0 0
295 1 55.0665 8.158 2.0395 0 0 0
296 1 53.026999999999994 10.1975 2.0395 0 0 0
297 1 57.105999999999995 8.158 0 0 0 0
298 1 59.1455 10.1975 0 0 0 0
299 1 59.1455 8.158 2.0395 0 0 0
300 1 57.105999999999995 10.1975 2.0395 0 0 0
301 1 61.184999999999995 8.158 0 0 0 0
302 1 63.2245 10.1975 0 0 0 0
303 1 63.2245 8.158 2.0395 0 0 0
304 1 61.184999999999995 10.1975 2.0395 0 0 0
305 1 65.264 8.158 0 0 0 0
306 1 67.3035 10.1975 0 0 0 0
307 1 67.3035 8.158 2.0395 0 0 0
308 1 65.264 10.1975 2.0395 0 0 0
309 1 69.34299999999999 8.158 0 0 0 0
310 1 71.3825 10.1975 0 0 0 0
311 1 71.3825 8.158 2.0395 0 0 0
312 1 69.34299999999999 10.1975 2.0395 0 0 0
313 1 73.422 8.158 0 0 0 0
314 1 75.4615 10.1975 0 0 0 0
315 1 75.4615 8.158 2.0395 0 0 0
316 1 73.422 10.1975 2.0395 0 0 0
317 1 77.50099999999999 8.158 0 0 0 0
318 1 79.5405 10.1975 0 0 0 0
319 1 79.5405 8.158 2.0395 0 0 0
320 1 77.50099999999999 10.1975 2.0395 0 0 0
321 1 81.58 8.158 0 0 0 0
322 1 83.61949999999999 10.1975 0 0 0 0
323 1 83.61949999999999 8.158 2.0395 0 0 0
324 1 81.58 10.1975 2.0395 0 0 0
325 1 85.65899999999999 8.158 0 0 0 0
326 1 87.6985 10.1975 0 0 0 0
327 1 87.6985 8.158 2.0395 0 0 0
328 1 85.65899999999999 10.1975 2.0395 0 0 0
329 1 89.738 8.158 0 0 0 0
330 1 91.77749999999999 10.1975 0 0 0 0
331 1 91.77749999999999 8.158 2.0395 0 0 0
332 1 89.738 10.1975 2.0395 0 0 0
333 1 93.817 8.158 0 0 0 0
334 1 95.8565 10.1975 0 0 0 0
335 1 95.8565 8.158 2.0395 0 0 0
336 1 93.817 10.1975 2.0395 0 0 0
337 1 97.89599999999999 8.158 0 0 0 0
338 1 99.93549999999999 10.1975 0 0 0 0
339 1 99.93549999999999 8.158 2.0395 0 0 0
340 1 97.89599999999999 10.1975 2.0395 0 0 0
341 1 101.975 8.158 0 0 0 0
342 1 104.0145 10.1975 0 0 0 0
343 1 104.0145 8.158 2.0395 0 0 0
344 1 101.975 10.1975 2.0395 0 0 0
345 1 106.05399999999999 8.158 0 0 0 0
346 1 108.09349999999999 10.1975 0 0 0 0
347 1 108.09349999999999 8.158 2.0395 0 0 0
348 1 106.05399999999999 10.1975 2.0395 0 0 0
349 1 110.133 8.158 0 0 0 0
350 1 112.1725 10.1975 0 0 0 0
351 1 112.1725 8.158 2.0395 0 0 0
352 1 110.133 10.1975 2.0395 0 0 0
353 1 114.21199999999999 8.158 0 0 0 0
354 1 116.2515 10.1975 0 0 0 0
355 1 116.2515 8.158 2.0395 0 0 0
356 1 114.21199999999999 10.1975 2.0395 0 0 0
357 1 118.291 8.158 0 0 0 0
358 1 120.33049999999999 10.1975 0 0 0 0
359 1 120.33049999999999 8.158 2.0395 0 0 0
360 1 118.291 10.1975 2.0395 0 0 0
361 1 0 12.236999999999998 0 0 0 0
362 1 2.0395 14.276499999999999 0 0 0 0
363 1 2.0395 12.236999999999998 2.0395 0 0 0
364 1 0 14.276499999999999 2.0395 0 0 0
365 1 4.079 12.236999999999998 0 0 0 0
366 1 6.118499999999999 14.276499999999999 0 0 0 0
367 1 6.118499999999999 12.236999999999998 2.0395 0 0 0
368 1 4.079 14.276499999999999 2.0395 0 0 0
369 1 8.158 12.236999999999998 0 0 0 0
370 1 10.1975 14.276499999999999 0 0 0 0
371 1 10.1975 12.236999999999998 2.0395 0 0 0
372 1 8.158 14.276499999999999 2.0395 0 0 0
373 1 12.236999999999998 12.236999999999998 0 0 0 0
374 1 14.276499999999999 14.276499999999999 0 0 0 0
375 1 14.276499999999999 12.236999999999998 2.0395 0 0 0
376 1 12.236999999999998 14.276499999999999 2.0395 0 0 0
377 1 16.316 12.236999999999998 0 0 0 0
378 1 18.3555 14.276499999999999 0 0 0 0
379 1 18.3555 12.236999999999998 2.0395 0 0 0
380 1 16.316 14.276499999999999 2.0395 0 0 0
381 1 20.395 12.236999999999998 0 0 0 0
382 1 22.4345 14.276499999999999 0 0 0 0
383 1 22.4345 12.236999999999998 2.0395 0 0 0
384 1 20.395 14.276499999999999 2.0395 0 0 0
385 1 24.473999999999997 12.236999999999998 0 0 0 0
386 1 26.513499999999997 14.276499999999999 0 0 0 0
387 1 26.513499999999997 12.236999999999998 2.0395 0 0 0
388 1 24.473999999999997 14.276499999999999 2.0395 0 0 0
389 1 28.552999999999997 12.236999999999998 0 0 0 0
390 1 30.592499999999998 14.276499999999999 0 0 0 0
391 1 30.592499999999998 12.236999999999998 2.0395 0 0 0
392 1 28.552999999999997 14.276499999999999 2.0395 0 0 0
393 1 32.632 12.236999999999998 0 0 0 0
394 1 34.671499999999995 14.276499999999999 0 0 0 0
395 1 34.671499999999995 12.236999999999998 2.0395 0 0 0
396 1 32.632 14.276499999999999 2.0395 0 0 0
397 1 36.711 12.236999999999998 0 0 0 0
398 1 38.750499999999995 14.276499999999999 0 0 0 0
399 1 38.750499999999995 12.236999999999998 2.0395 0 0 0
400 1 36.711 14.276499999999999 2.0395 0 0 0
401 1 40.79 12.236999999999998 0 0 0 0
402 1 42.829499999999996 14.276499999999999 0 0 0 0
403 1 42.829499999999996 12.236999999999998 2.0395 0 0 0
404 1 40.79 14.276499999999999 2.0395 0 0 0
405 1 44.869 12.236999999999998 0 0 0 0
406 1 46.9085 14.276499999999999 0 0 0 0
407 1 46.9085 12.236999999999998 2.0395 0 0 0
408 1 44.869 14.276499999999999 2.0395 0 0 0
409 1 48.94799999999999 12.236999999999998 0 0 0 0
410 1 50.9875 14.276499999999999 0 0 0 0
411 1 50.9875 12.236999999999998 2.0395 0 0 0
412 1 48.94799999999999 14.276499999999999 2.0395 0 0 0
413 1 53.026999999999994 12.236999999999998 0 0 0 0
414 1 55.0665 14.276499999999999 0 0 0 0
415 1 55.0665 12.236999999999998 2.0395 0 0 0
416 1 53.026999999999994 14.276499999999999 2.0395 0 0 0
417 1 57.105999999999995 12.236999999999998 0 0 0 0
418 1 59.1455 14.276499999999999 0 0 0 0
419 1 59.1455 12.236999999999998 2.0395 0 0 0
420 1 57.105999999999995 14.276499999999999 2.0395 0 0 0
421 1 61.184999999999995 12.236999999999998 0 0 0 0
422 1 63.2245 14.276499999999999 0 0 0 0
423 1 63.2245 12.236999999999998 2.0395 0 0 0
424 1 61.184999999999995 14.276499999999999 2.0395 0 0 0
425 1 65.264 12.236999999999998 0 0 0 0
426 1 67.3035 14.276499999999999 0 0 0 0
427 1 67.3035 12.236999999999998 2.0395 0 0 0
428 1 65.264 14.276499999999999 2.0395 0 0 0
429 1 69.34299999999999 12.236999999999998 0 0 0 0
430 1 71.3825 14.276499999999999 0 0 0 0
431 1 71.3825 12.236999999999998 2.0395 0 0 0
432 1 69.34299999999999 14.276499999999999 2.0395 0 0 0
433 1 73.422 12.236999999999998 0 0 0 0
434 1 75.4615 14.276499999999999 0 0 0 0
435 1 75.4615 12.236999999999998 2.0395 0 0 0
436 1 73.422 14.276499999999999 2.0395 0 0 0
437 1 77.50099999999999 12.236999999999998 0 0 0 0
438 1 79.5405 14.276499999999999 0 0 0 0
439 1 79.5405 12.236999999999998 2.0395 0 0 0
440 1 77.50099999999999 14.276499999999999 2.0395 0 0 0
441 1 81.58 12.236999999999998 0 0 0 0
442 1 83.61949999999999 14.276499999999999 0 0 0 0
443 1 83.61949999999999 12.236999999999998 2.0395 0 0 0
444 1 81.58 14.276499999999999 2.0395 0 0 0
445 1 85.65899999999999 12.236999999999998 0 0 0 0
446 1 87.6985 14.276499999999999 0 0 0 0
447 1 87.6985 12.236999999999998 2.0395 0 0 0
448 1 85.65899999999999 14.276499999999999 2.0395 0 0 0
449 1 89.738 12.236999999999998 0 0 0 0
450 1 91.77749999999999 14.276499999999999 0 0 0 0
451 1 91.77749999999999 12.236999999999998 2.0395 0 0 0
452 1 89.738 14.276499999999999 2.0395 0 0 0
453 1 93.817 12.236999999999998 0 0 0 0
454 1 95.8565 14.276499999999999 0 0 0 0
455 1 95.8565 12.236999999999998 2.0395 0 0 0
456 1 93.817 14.276499999999999 2.0395 0 0 0
457 1 97.89599999999999 12.236999999999998 0 0 0 0
458 1 99.93549999999999 14.276499999999999 0 0 0 0
459 1 99.93549999999999 12.236999999999998 2.0395 0 0 0
460 1 97.89599999999999 14.276499999999999 2.0395 0 0 0
461 1 101.975 12.236999999999998 0 0 0 0
462 1 104.0145 14.276499999999999 0 0 0 0
463 1 104.0145 12.236999999999998 2.0395 0 0 0
464 1 101.975 14.276499999999999 2.0395 0 0 0
465 1 106.05399999999999 12.236999999999998 0 0 0 0
466 1 108.09349999999999 14.276499999999999 0 0 0 0
467 1 108.09349999999999 12.236999999999998 2.0395 0 0 0
468 1 106.05399999999999 14.276499999999999 2.0395 0 0 0
469 1 110.133 12.236999999999998 0 0 0 0
470 1 112.1725 14.276499999999999 0 0 0 0
471 1 112.1725 12.236999999999998 2.0395 0 0 0
472 1 110.133 14.276499999999999 2.0395 0 0 0
473 1 114.21199999999999 12.236999999999998 0 0 0 0
474 1 116.2515 14.276499999999999 0 0 0 0
475 1 116.2515 12.236999999999998 2.0395 0 0 0
476 1 114.21199999999999 14.276499999999999 2.0395 0 0 0
477 1 118.291 12.236999999999998 0 0 0 0
478 1 120.33049999999999 14.276499999999999 0 0 0 0
479 1 120.33049999999999 12.236999999999998 2.0395 0 0 0
480 1 118.291 14.276499999999999 2.0395 0 0 0
481 1 0 16.316 0 0 0 0
482 1 2.0395 18.3555 0 0 0 0
483 1 2.0395 16.316 2.0395 0 0 0
484 1 0 18.3555 2.0395 0 0 0
485 1 4.079 16.316 0 0 0 0
486 1 6.118499999999999 18.3555 0 0 0 0
487 1 6.118499999999999 16.316 2.0395 0 0 0
488 1 4.079 18.3555 2.0395 0 0 0
489 1 8.158 16.316 0 0 0 0
490 1 10.1975 18.3555 0 0 0 0
491 1 10.1975 16.316 2.0395 0 0 0
492 1 8.158 18.3555 2.0395 0 0 0
493 1 12.236999999999998 16.316 0 0 0 0
494 1 14.276499999999999 18.3555 0 0 0 0
495 1 14.276499999999999 16.316 2.0395 0 0 0
496 1 12.236999999999998 18.3555 2.0395 0 0 0
497 1 16.316 16.316 0 0 0 0
498 1 18.3555 18.3555 0 0 0 0
499 1 18.3555 16.316 2.0395 0 0 0
500 1 16.316 18.3555 2.0395 0 0 0
501 1 20.395 16.316 0 0 0 0
502 1 22.4345 18.3555 0 0 0 0
503 1 22.4345 16.316 2.0395 0 0 0
504 1 20.395 18.3555 2.0395 0 0 0
505 1 24.473999999999997 16.316 0 0 0 0
506 1 26.513499999999997 18.3555 0 0 0 0
507 1 26.513499999999997 16.316 2.0395 0 0 0
508 1 24.473999999999997 18.3555 2.0395 0 0 0
509 1 28.552999999999997 16.316 0 0 0 0
510 1 30.592499999999998 18.3555 0 0 0 0
511 1 30.592499999999998 16.316 2.0395 0 0 0
512 1 28.552999999999997 18.3555 2.0395 0 0 0
513 1 32.632 16.316 0 0 0 0
514 1 34.671499999999995 18.3555 0 0 0 0
515 1 34.671499999999995 16.316 2.0395 0 0 0
516 1 32.632 18.3555 2.0395 0 0 0
517 1 36.711 16.316 0 0 0 0
518 1 38.750499999999995 18.3555 0 0 0 0
519 1 38.750499999999995 16.316 2.0395 0 0 0
520 1 36.711 18.3555 2.0395 0 0 0
521 1 40.79 16.316 0 0 0 0
522 1 42.829499999999996 18.3555 0 0 0 0
523 1 42.829499999999996 16.316 2.0395 0 0 0
524 1 40.79 18.3555 2.0395 0 0 0
525 1 44.869 16.316 0 0 0 0
526 1 46.9085 18.3555 0 0 0 0
527 1 46.9085 16.316 2.0395 0 0 0
528 1 44.869 18.3555 2.0395 0 0 0
529 1 48.94799999999999 16.316 0 0 0 0
530 1 50.9875 18.3555 0 0 0 0
531 1 50.9875 16.316 2.0395 0 0 0
532 1 48.94799999999999 18.3555 2.0395 0 0 0
533 1 53.026999999999994 16.316 0 0 0 0
534 1 55.0665 18.3555 0 0 0 0
535 1 55.0665 16.316 2.0395 0 0 0
536 1 53.026999999999994 18.3555 2.0395 0 0 0
537 1 57.105999999999995 16.316 0 0 0 0
538 1 59.1455 18.3555 0 0 0 0
539 1 59.1455 16.316 2.0395 0 0 0
540 1 57.105999999999995 18.3555 2.0395 0 0 0
541 1 61.184999999999995 16.316 0 0 0 0
542 1 63.2245 18.3555 0 0 0 0
543 1 63.2245 16.316 2.0395 0 0 0
544 1 61.184999999999995 18.3555 2.0395 0 0 0
545 1 65.264 16.316 0 0 0 0
546 1 67.3035 18.3555 0 0 0 0
547 1 67.3035 16.316 2.0395 0 0 0
548 1 65.264 18.3555 2.0395 0 0 0
549 1 69.34299999999999 16.316 0 0 0 0
550 1 71.3825 18.3555 0 0 0 0
551 1 71.3825 16.316 2.0395 0 0 0
552 1 69.34299999999999 18.3555 2.0395 0 0 0
553 1 73.422 16.316 0 0 0 0
554 1 75.4615 18.3555 0 0 0 0
555 1 75.4615 16.316 2.0395 0 0 0
556 1 73.422 18.3555 2.0395 0 0 0
557 1 77.50099999999999 16.316 0 0 0 0
558 1 79.5405 18.3555 0 0 0 0
559 1 79.5405 16.316 2.0395 0 0 0
560 1 77.50099999999999 18.3555 2.0395 0 0 0
561 1 81.58 16.316 0 0 0 0
562 1 83.61949999999999 18.3555 0 0 0 0
563 1 83.61949999999999 16.316 2.0395 0 0 0
564 1 81.58 18.3555 2.0395 0 0 0
565 1 85.65899999999999 16.316 0 0 0 0
566 1 87.6985 18.3555 0 0 0 0
567 1 87.6985 16.316 2.0395 0 0 0
568 1 85.65899999999999 18.3555 2.0395 0 0 0
569 1 89.738 16.316 0 0 0 0
570 1 91.77749999999999 18.3555 0 0 0 0
571 1 91.77749999999999 16.316 2.0395 0 0 0
572 1 89.738 18.3555 2.0395 0 0 0
573 1 93.817 16.316 0 0 0 0
574 1 95.8565 18.3555 0 0 0 0
575 1 95.8565 16.316 2.0395 0 0 0
576 1 93.817 18.3555 2.0395 0 0 0
577 1 97.89599999999999 16.316 0 0 0 0
578 1 99.93549999999999 18.3555 0 0 0 0
579 1 99.93549999999999 16.316 2.0395 0 0 0
580 1 97.89599999999999 18.3555 2.0395 0 0 0
581 1 101.975 16.316 0 0 0 0
582 1 104.0145 18.3555 0 0 0 0
583 1 104.0145 16.316 2.0395 0 0 0
584 1 101.975 18.3555 2.0395 0 0 0
585 1 106.05399999999999 16.316 0 0 0 0
586 1 108.09349999999999 18.3555 0 0 0 0
587 1 108.09349999999999 16.316 2.0395 0 0 0
588 1 106.05399999999999 18.3555 2.0395 0 0 0
589 1 110.133 16.316 0 0 0 0
590 1 112.1725 18.3555 0 0 0 0
591 1 112.1725 16.316 2.0395 0 0 0
592 1 110.133 18.3555 2.0395 0 0 0
593 1 114.21199999999999 16.316 0 0 0 0
594 1 116.2515 18.3555 0 0 0 0
595 1 116.2515 16.316 2.0395 0 0 0
596 1 114.21199999999999 18.3555 2.0395 0 0 0
597 1 118.291 16.316 0 0 0 0
598 1 120.33049999999999 18.3555 0 0 0 0
599 1 120.33049999999999 16.316 2.0395 0 0 0
600 1 118.291 18.3555 2.0395 0 0 0
601 1 0 20.395 0 0 0 0
602 1 2.0395 22.4345 0 0 0 0
603 1 2.0395 20.395 2.0395 0 0 0
604 1 0 22.4345 2.0395 0 0 0
605 1 4.079 20.395 0 0 0 0
606 1 6.118499999999999 22.4345 0 0 0 0
607 1 6.118499999999999 20.395 2.0395 0 0 0
608 1 4.079 22.4345 2.0395 0 0 0
609 1 8.158 20.395 0 0 0 0
610 1 10.1975 22.4345 0 0 0 0
611 1 10.1975 20.395 2.0395 0 0 0
612 1 8.158 22.4345 2.0395 0 0 0
613 1 12.236999999999998 20.395 0 0 0 0
614 1 14.276499999999999 22.4345 0 0 0 0
615 1 14.276499999999999 20.395 2.0395 0 0 0
616 1 12.236999999999998 22.4345 2.0395 0 0 0
617 1 16.316 20.395 0 0 0 0
618 1 18.3555 22.4345 0 0 0 0
619 1 18.3555 20.395 2.0395 0 0 0
620 1 16.316 22.4345 2.0395 0 0 0
621 1 20.395 20.395 0 0 0 0
622 1 22.4345 22.4345 0 0 0 0
623 1 22.4345 20.395 2.0395 0 0 0
624 1 20.395 22.4345 2.0395 0 0 0
625 1 24.473999999999997 20.395 0 0 0 0
626 1 26.513499999999997 22.4345 0 0 0 0
627 1 26.513499999999997 20.395 2.0395 0 0 0
628 1 24.473999999999997 22.4345 2.0395 0 0 0
629 1 28.552999999999997 20.395 0 0 0 0
630 1 30.592499999999998 22.4345 0 0 0 0
631 1 30.592499999999998 20.395 2.0395 0 0 0
632 1 28.552999999999997 22.4345 2.0395 0 0 0
633 1 32.632 20.395 0 0 0 0
634 1 34.671499999999995 22.4345 0 0 0 0
635 1 34.671499999999995 20.395 2.0395 0 0 0
636 1 32.632 22.4345 2.0395 0 0 0
637 1 36.711 20.395 0 0 0 0
638 1 38.750499999999995 22.4345 0 0 0 0
639 1 38.750499999999995 20.395 2.0395 0 0 0
640 1 36.711 22.4345 2.0395 0 0 0
641 1 40.79 20.395 0 0 0 0
642 1 42.829499999999996 22.4345 0 0 0 0
643 1 42.829499999999996 20.395 2.0395 0 0 0
644 1 40.79 22.4345 2.0395 0 0 0
645 1 44.869 20.395 0 0 0 0
646 1 46.9085 22.4345 0 0 0 0
647 1 46.9085 20.395 2.0395 0 0 0
648 1 44.869 22.4345 2.0395 0 0 0
649 1 48.94799999999999 20.395 0 0 0 0
650 1 50.9875 22.4345 0 0 0 0
651 1 50.9875 20.395 2.0395 0 0 0
652 1 48.94799999999999 22.4345 2.0395 0 0 0
653 1 53.026999999999994 20.395 0 0 0 0
654 1 55.0665 22.4345 0 0 0 0
655 1 55.0665 20.395 2.0395 0 0 0
656 1 53.026999999999994 22.4345 2.0395 0 0 0
657 1 57.105999999999995 20.395 0 0 0 0
658 1 59.1455 22.4345 0 0 0 0
659 1 59.1455 20.395 2.0395 0 0 0
660 1 57.105999999999995 22.4345 2.0395 0 0 0
661 1 61.184999999999995 20.395 0 0 0 0
662 1 63.2245 22.4345 0 0 0 0
663 1 63.2245 20.395 2.0395 0 0 0
664 1 61.184999999999995 22.4345 2.0395 0 0 0
665 1 65.264 20.395 0 0 0 0
666 1 67.3035 22.4345 0 0 0 0
667 1 67.3035 20.395 2.0395 0 0 0
668 1 65.264 22.4345 2.0395 0 0 0
669 1 69.34299999999999 20.395 0 0 0 0
670 1 71.3825 22.4345 0 0 0 0
671 1 71.3825 20.395 2.0395 0 0 0
672 1 69.34299999999999 22.4345 2.0395 0 0 0
673 1 73.422 20.395 0 0 0 0
674 1 75.4615 22.4345 0 0 0 0
675 1 75.4615 20.395 2.0395 0 0 0
676 1 73.422 22.4345 2.0395 0 0 0
677 1 77.50099999999999 20.395 0 0 0 0
678 1 79.5405 22.4345 0 0 0 0
679 1 79.5405 20.395 2.0395 0 0 0
680 1 77.50099999999999 22.4345 2.0395 0 0 0
681 1 81.58 20.395 0 0 0 0
682 1 83.61949999999999 22.4345 0 0 0 0
683 1 83.61949999999999 20.395 2.0395 0 0 0
684 1 81.58 22.4345 2.0395 0 0 0
685 1 85.65899999999999 20.395 0 0 0 0
686 1 87.6985 22.4345 0 0 0 0
687 1 87.6985 20.395 2.0395 0 0 0
688 1 85.65899999999999 22.4345 2.0395 0 0 0
689 1 89.738 20.395 0 0 0 0
690 1 91.77749999999999 22.4345 0 0 0 0
691 1 91.77749999999999 20.395 2.0395 0 0 0
692 1 89.738 22.4345 2.0395 0 0 0
693 1 93.817 20.395 0 0 0 0
694 1 95.8565 22.4345 0 0 0 0
695 1 95.8565 20.395 2.0395 0 0 0
696 1 93.817 22.4345 2.0395 0 0 0
697 1 97.89599999999999 20.395 0 0 0 0
698 1 99.93549999999999 22.4345 0 0 0 0
699 1 99.93549999999999 20.395 2.0395 0 0 0
700 1 97.89599999999999 22.4345 2.0395 0 0 0
701 1 101.975 20.395 0 0 0 0
702 1 104.0145 22.4345 0 0 0 0
703 1 104.0145 20.395 2.0395 0 0 0
704 1 101.975 22.4345 2.0395 0 0 0
705 1 106.05399999999999 20.395 0 0 0 0
706 1 108.09349999999999 22.4345 0 0 0 0
707 1 108.09349999999999 20.395 2.0395 0 0 0
708 1 106.05399999999999 22.4345 2.0395 0 0 0
709 1 110.133 20.395 0 0 0 0
710 1 112.1725 22.4345 0 0 0 0
711 1 112.1725 20.395 2.0395 0 0 0
712 1 110.133 22.4345 2.0395 0 0 0
713 1 114.21199999999999 20.395 0 0 0 0
714 1 116.2515 22.4345 0 0 0 0
715 1 116.2515 20.395 2.0395 0 0 0
716 1 114.21199999999999 22.4345 2.0395 0 0 0
717 1 118.291 20.395 0 0 0 0
718 1 120.33049999999999 22.4345 0 0 0 0
719 1 120.33049999999999 20.395 2.0395 0 0 0
720 1 118.291 22.4345 2.0395 0 0 0
721 1 0 24.473999999999997 0 0 0 0
722 1 2.0395 26.513499999999997 0 0 0 0
723 1 2.0395 24.473999999999997 2.0395 0 0 0
724 1 0 26.513499999999997 2.0395 0 0 0
725 1 4.079 24.473999999999997 0 0 0 0
726 1 6.118499999999999 26.513499999999997 0 0 0 0
727 1 6.118499999999999 24.473999999999997 2.0395 0 0 0
728 1 4.079 26.513499999999997 2.0395 0 0 0
729 1 8.158 24.473999999999997 0 0 0 0
730 1 10.1975 26.513499999999997 0 0 0 0
731 1 10.1975 24.473999999999997 2.0395 0 0 0
732 1 8.158 26.513499999999997 2.0395 0 0 0
733 1 12.236999999999998 24.473999999999997 0 0 0 0
734 1 14.276499999999999 26.513499999999997 0 0 0 0
735 1 14.276499999999999 24.473999999999997 2.0395 0 0 0
736 1 12.236999999999998 26.513499999999997 2.0395 0 0 0
737 1 16.316 24.473999999999997 0 0 0 0
738 1 18.3555 26.513499999999997 0 0 0 0
739 1 18.3555 24.473999999999997 2.0395 0 0 0
740 1 16.316 26.513499999999997 2.0395 0 0 0
741 1 20.395 24.473999999999997 0 0 0 0
742 1 22.4345 26.513499999999997 0 0 0 0
743 1 22.4345 24.473999999999997 2.0395 0 0 0
744 1 20.395 26.513499999999997 2.0395 0 0 0
745 1 24.473999999999997 24.473999999999997 0 0 0 0
746 1 26.513499999999997 26.513499999999997 0 0 0 0
747 1 26.513499999999997 24.473999999999997 2.0395 0 0 0
748 1 24.473999999999997 26.513499999999997 2.0395 0 0 0
749 1 28.552999999999997 24.473999999999997 0 0 0 0
750 1 30.592499999999998 26.513499999999997 0 0 0 0
751 1 30.592499999999998 24.473999999999997 2.0395 0 0 0
752 1 28.552999999999997 26.513499999999997 2.0395 0 0 0
753 1 32.632 24.473999999999997 0 0 0 0
754 1 34.671499999999995 26.513499999999997 0 0 0 0
755 1 34.671499999999995 24.473999999999997 2.0395 0 0 0
756 1 32.632 26.513499999999997 2.0395 0 0 0
757 1 36.711 24.473999999999997 0 0 0 0
758 1 38.750499999999995 26.513499999999997 0 0 0 0
759 1 38.750499999999995 24.473999999999997 2.0395 0 0 0
760 1 36.711 26.513499999999997 2.0395 0 0 0
761 1 40.79 24.473999999999997 0 0 0 0
762 1 42.829499999999996 26.513499999999997 0 0 0 0
763 1 42.829499999999996 24.473999999999997 2.0395 0 0 0
764 1 40.79 26.513499999999997 2.0395 0 0 0
765 1 44.869 24.473999999999997 0 0 0 0
766 1 46.9085 26.513499999999997 0 0 0 0
767 1 46.9085 24.473999999999997 2.0395 0 0 0
768 1 44.869 26.513499999999997 2.0395 0 0 0
769 1 48.94799999999999 24.473999999999997 0 0 0 0