ITEM: TIMESTEP
0
ITEM: NUMBER OF ATOMS
1067
ITEM: BOX BOUNDS ss ss ss
3.4099634347573025e+00 3.7047879949896895e+01
2.9287960833522364e+00 3.7845195610462937e+01
5.9963022024435633e+00 3.4793698756694035e+01
ITEM: ATOMS x y z vx vy vz
18.9358 6.44573 9.55141 0.60093 0.431903 -1.40046
14.7235 10.2433 8.51768 -0.780243 -1.73536 -0.859543
12.3741 9.62395 10.0685 0.068915 1.62095 0.246067
19.6325 9.21105 9.13186 0.88711 -0.0644355 1.68335
16.8296 8.34453 9.03454 -1.7627 0.210543 -1.62056
22.4353 10.0776 9.22918 -1.97644 -1.00317 0.28811
21.7386 7.31225 9.64873 0.304395 -1.47149 0.724314
27.3443 9.0453 9.84336 0.206371 -1.10724 0.204498
24.5415 8.17877 9.74604 0.853706 -0.565679 -0.509993
30.1472 9.91182 9.94068 0.241089 0.889321 -0.618887
15.4202 13.0086 8.09813 -0.228519 -1.07407 0.633126
13.0708 12.3893 9.649 0.18825 -1.62807 0.705463
18.2231 13.8752 8.19544 -0.118109 1.92415 0.931029
17.5263 11.1098 8.61499 1.38378 -0.171057 -0.493478
23.132 12.8429 8.80963 -0.11475 1.95578 2.02864
20.3292 11.9764 8.71231 -0.766155 -0.340438 -0.65309
25.9349 13.7094 8.90695 -0.49858 -1.44113 -0.302627
28.041 11.8106 9.42381 -0.182588 -1.28465 0.675938
25.2382 10.9441 9.32649 -2.13314 0.864202 -0.859921
30.8439 12.6771 9.52113 -0.476141 0.251211 1.80377
14.4642 17.9199 8.8099 -0.606788 0.294851 -2.10859
13.7675 15.1546 9.22945 0.326067 -2.07893 -2.02323
19.8876 18.2349 9.97355 -0.259989 2.3654 1.03336
17.0848 17.3683 9.87623 0.156802 -2.69469 1.38191
18.9198 16.6405 7.7759 -3.16853 -1.3157 0.295177
16.1169 15.774 7.67858 1.02175 -2.54325 -2.99479
21.7226 17.507 7.87321 0.802113 -1.21101 1.39201
23.8287 15.6082 8.39008 -0.0607119 0.978621 0.975153
21.0259 14.7417 8.29276 -0.265227 0.469836 -1.14189
24.5254 18.3735 7.97053 -0.933752 -1.05747 0.529222
26.6316 16.4747 8.4874 1.69358 -1.6872 -0.928609
29.4344 17.3413 8.58471 -1.90709 0.625775 0.294875
31.5406 15.4425 9.10158 0.134972 -0.146877 -1.5707
28.7377 14.5759 9.00426 1.69043 -1.57774 0.966245
15.1609 20.6852 8.39035 0.604214 -0.523527 1.41825
12.8116 20.0658 9.94122 1.93314 1.80698 -0.680804
17.7815 20.1336 9.45668 0.615928 0.17447 0.312854
17.5103 21.3046 6.83948 -2.45533 0.495144 0.852379
19.6165 19.4058 7.35635 0.918192 -1.3074 -0.780503
16.8136 18.5393 7.25903 0.996807 -0.883912 -0.915237
23.3872 21.8667 9.65132 -0.428763 0.485036 1.03005
20.5843 21.0002 9.554 0.852224 -1.25007 0.45236
20.3132 22.1711 6.9368 0.806887 2.02857 -0.483147
22.6904 19.1014 10.0709 0.139943 -0.548491 -0.787332
22.4193 20.2723 7.45366 0.294946 1.23073 0.947665
25.2222 21.1388 7.55098 -1.48917 0.313677 -1.07133
27.4079 21.9215 9.25931 -1.27415 0.904637 0.896835
27.3283 19.24 8.06785 -0.0370911 0.142294 -1.01685
29.514 20.0227 9.77618 1.77643 0.633792 0.611898
14.205 25.5965 9.10213 0.701288 -0.937353 1.0302
15.8577 23.4505 7.9708 1.3959 0.00222186 1.8518
13.5083 22.8312 9.52167 2.47069 1.63142 1.28626
19.1749 25.6643 8.61758 -1.35136 -0.385049 0.55426
18.4782 22.899 9.03713 0.116575 -0.221893 -0.307753
18.207 24.0699 6.41993 -0.776492 -0.217708 1.82296
21.281 23.7655 9.13445 -1.13549 -0.623221 -1.14997
21.0099 24.9364 6.51725 0.653675 0.136692 1.84895
23.1956 25.7191 8.22558 -2.0436 1.3864 -0.164063
23.116 23.0376 7.03411 -0.684173 0.365552 0.138623
25.3017 23.8203 8.74245 4.54131 -1.02726 0.568671
15.9864 27.7893 9.89864 -1.15217 -0.29673 2.14669
18.9037 26.8352 6.00038 0.906446 -0.279264 -0.0802562
16.5544 26.2159 7.55125 -0.548296 -0.037126 -0.149226
18.3358 28.4087 8.34777 -0.106455 0.187098 1.67537
21.0895 27.6179 7.70871 -0.666436 -0.105996 -1.76579
20.5215 29.1913 10.0561 1.12876 0.363111 0.93046
23.2752 28.4006 9.41705 -0.95205 -0.367047 0.897982
25.3813 26.5018 9.93391 1.05558 1.57438 0.414831
19.2069 5.27478 12.1686 -1.2936 -2.72204 -2.57472
22.0098 6.1413 12.2659 -0.431152 0.713949 0.665745
10.9926 10.5989 13.8171 -0.782471 0.113488 -1.07363
10.0247 9.00457 11.6194 -1.05824 0.69336 1.01278
15.9625 10.6667 13.3325 -0.726854 0.526822 0.300081
15.2658 7.90142 13.7521 -2.01995 0.0741225 0.328447
14.9946 9.07238 11.1349 2.19932 -1.71513 1.09689
12.6453 8.453 12.6858 -0.249483 1.03584 0.344714
18.0686 8.76794 13.8494 -0.990506 0.144496 -1.01927
17.7975 9.93889 11.2322 -0.621215 1.62225 -1.75436
19.9036 8.0401 11.7491 -0.0363186 -0.229022 0.618473
17.1008 7.17357 11.6517 0.16494 0.33591 0.718198
23.6743 10.501 14.044 1.58262 0.39671 -0.966344
20.8715 9.63446 13.9467 0.578757 0.0450106 -0.861458
22.7065 8.90662 11.8464 0.926133 0.370534 0.787835
28.3122 10.6397 12.041 -0.0170882 0.111631 0.82996
25.5093 9.77314 11.9437 1.01918 0.94977 2.36323
27.6155 7.87435 12.4606 0.91138 0.676329 -0.995827
24.8126 7.00782 12.3632 0.215995 1.9329 -0.802336
30.4183 8.74087 12.5579 -0.921159 2.06631 -2.8425
6.71939 13.2965 13.8821 0.462699 0.0853329 1.75998
11.6893 13.3643 13.3975 -0.585786 2.57378 -0.346806
11.4181 14.5352 10.7803 -0.370395 -0.821422 -0.19271
10.7214 11.7699 11.1999 -0.148809 -0.0346223 1.59963
9.06877 13.9158 12.3312 -0.446097 1.68533 0.361621
8.37207 11.1505 12.7507 0.237659 -0.08745 1.37916
15.6913 11.8377 10.7153 -0.351058 -0.465538 1.00791
14.0387 13.9836 11.8467 -1.04682 -0.96405 -0.168584
13.342 11.2183 12.2662 -0.194557 2.7188 1.08317
19.462 14.2986 13.0103 -1.59094 1.37056 1.77396
16.6592 13.4321 12.913 0.518188 -0.268962 1.58558
18.7653 11.5333 13.4299 -2.25003 2.06374 0.658562
18.4942 12.7042 10.8126 0.0193202 -2.07076 0.238314
24.371 13.2663 13.6245 -0.047123 -0.770999 -1.33044
24.0999 14.4373 11.0073 -0.848068 1.16307 -0.704241
21.5682 12.3998 13.5272 0.747744 -0.374648 -1.00715
21.297 13.5707 10.91 0.506022 -0.865078 -0.336844
23.4032 11.6719 11.4268 1.13641 -2.55588 -1.22096
20.6003 10.8054 11.3295 1.65559 3.01268 -2.01836
27.1739 14.1328 13.7218 0.573681 0.0279765 1.47723
26.4772 11.3675 14.1414 0.431648 0.157055 1.11943
26.206 12.5385 11.5241 0.303944 -0.339662 -1.7095
31.8117 14.2715 11.7188 2.71339 0.960277 1.30368
29.0089 13.405 11.6215 -1.54603 -0.395687 -1.08584
31.115 11.5062 12.1383 -0.0492821 -0.496652 2.14389
7.4161 16.0618 13.4625 -0.623504 -0.0510085 -0.57137
10.7333 18.2755 14.1093 -2.40112 1.03488 -1.88673
9.76548 16.6812 11.9116 -0.137325 -0.227682 0.740135
15.7032 18.3433 13.6248 -1.57485 0.410588 0.616544
15.0065 15.578 14.0443 -0.227381 0.0637395 2.05576
14.7354 16.749 11.4271 -0.355743 -2.02472 0.0644259
12.386 16.1296 12.978 -0.108013 -0.597482 -1.83154
12.1149 17.3005 10.3608 -0.749469 0.997379 0.0936736
20.1587 17.0639 12.5908 0.897149 0.281974 -1.73264
17.3559 16.1974 12.4934 1.91065 -0.00124686 0.196252
19.1909 15.4695 10.3931 -0.0923171 -1.19354 0.706084
16.388 14.603 10.2958 0.124807 0.869275 -1.55079
22.9616 17.9304 12.6881 0.0137649 -0.406894 -0.530372
22.2649 15.1651 13.1076 0.864917 1.18707 -0.815076
21.9937 16.3361 10.4904 1.62954 0.497894 -0.274736
27.8706 16.8981 13.3023 -0.836116 -0.0365359 0.087886
27.5994 18.0691 10.685 -0.460739 1.55319 -0.63353
25.0677 16.0316 13.2049 -2.35594 -2.99787 0.393576
24.7966 17.2026 10.5877 0.626597 -0.879554 0.218135
26.9027 15.3038 11.1046 0.46789 1.61213 -0.469173
29.9767 14.9993 13.8191 -0.925392 0.281506 -0.27039
29.7056 16.1703 11.2019 2.31479 -1.31481 1.15658
31.8913 16.953 12.9102 -1.06657 -0.00152394 0.588364
31.6202 18.1239 10.293 -0.930383 -0.00266091 -0.804395
33.9974 15.0542 13.4271 -0.572794 -1.36867 -1.81213
33.7263 16.2251 10.8099 0.987657 -0.69348 -0.496003
35.912 17.0078 12.5182 1.16957 -0.0165936 0.150305
6.46013 20.973 14.1743 -0.198569 -0.299117 -0.662126
11.43 21.0408 13.6897 1.34466 -0.650365 -0.552725
11.1589 22.2118 11.0725 -1.73396 0.6138 -0.131657
10.4622 19.4465 11.4921 -0.543319 -1.49404 1.85928
8.80952 21.5924 12.6234 -1.0853 1.80302 -0.429108
8.11281 18.8271 13.043 1.11191 -0.0391612 1.01051
15.4321 19.5143 11.0076 -0.538477 -1.22269 -0.785125
13.7794 21.6602 12.1389 -0.67695 -0.280886 1.5615
13.0827 18.8949 12.5584 0.311233 1.40188 0.520349
18.7493 21.728 11.6543 0.283298 -1.34188 0.815261
18.0526 18.9627 12.0739 0.704844 1.97622 -1.77296
16.3999 21.1086 13.2052 1.24956 2.39031 -0.576136
16.1288 22.2796 10.588 -1.39074 -0.128426 -3.14932
23.6583 20.6957 12.2685 0.139791 -1.788 -0.495998
20.8554 19.8292 12.1712 0.838629 -0.27994 0.445949
25.844 21.4784 13.9769 -1.72699 1.71997 0.590888
25.7644 18.7969 12.7854 0.170121 0.116347 0.840309
25.4933 19.9679 10.1682 1.79806 1.58242 0.207801
27.679 20.7506 11.8765 0.290756 1.62425 -0.0673623
29.8648 21.5333 13.5849 1.90852 -1.08163 -1.66039
29.7852 18.8518 12.3934 2.03024 -0.965458 0.285944
31.9709 19.6345 14.1017 -1.73709 0.502749 -0.955295
31.6998 20.8054 11.4845 0.431617 -0.479728 0.950467
33.8855 21.5881 13.1928 -1.22258 -0.895555 -1.20979
33.8059 18.9066 12.0014 -1.05607 -0.331594 0.353657
35.9916 19.6893 13.7097 1.03592 -0.889792 -0.467152
7.15684 23.7384 13.7548 -1.08485 -1.07957 0.435593
9.50622 24.3578 12.2039 0.279167 -0.307502 1.51429
14.4761 24.4256 11.7193 -0.195452 -0.464546 0.0696814
12.1267 23.8062 13.2702 -0.349135 -2.61741 1.27251
11.8556 24.9771 10.653 -0.105248 -0.56917 1.20829
13.9082 25.999 14.0667 1.89279 1.05394 1.68849
19.7171 23.3224 13.852 -1.28232 1.20038 0.986578
19.446 24.4933 11.2348 0.0281093 0.573047 0.243022
17.0966 23.874 12.7857 0.938501 0.483012 -0.873842
16.8255 25.0449 10.1685 -0.725214 2.06795 -2.36641
18.8781 26.0668 13.5822 1.19383 -0.420668 0.373495
21.6317 25.276 12.9431 -0.256295 -0.842595 -0.189572
21.5522 22.5945 11.7517 -1.15123 0.521497 0.605198
23.7379 23.3772 13.46 0.888472 0.48552 0.991085
23.4667 24.5482 10.8428 -1.10457 -0.137409 0.685093
25.6525 25.3309 12.5511 0.185082 0.76414 -0.796966
25.5729 22.6494 11.3596 0.816409 -0.471159 -0.835723
27.7586 23.4321 13.068 -0.13051 2.36772 -1.07903
27.4875 24.603 10.4508 0.907126 0.249456 0.375891
29.6732 25.3857 12.1591 0.364662 2.49738 -1.14252
29.5936 22.7042 10.9676 1.13956 0.514947 0.345316
31.8589 26.1684 13.8674 0.583299 -0.826917 -1.54346
31.7793 23.4869 12.676 -0.000778481 0.304664 1.00414
11.2877 26.5506 13.0004 -0.0165483 0.696056 -1.5485
13.637 27.1699 11.4495 1.52688 -0.580129 -2.02831
15.4185 29.3627 12.246 -0.550801 0.511612 2.03052
13.0691 28.7433 13.7969 -0.16012 3.49876 -0.588113
18.6069 27.2377 10.965 -1.14038 0.335777 0.543397
16.2576 26.6183 12.5158 -0.288852 -1.08838 0.845149
18.039 28.8111 13.3124 -0.919932 0.168337 0.529056
17.7679 29.9821 10.6952 -0.786245 -2.16713 -0.280801
21.3606 26.447 10.3259 0.0419302 0.86056 -0.81246
20.7927 28.0204 12.6733 -0.290168 -0.373567 0.29716
23.5463 27.2297 12.0343 -0.715143 -0.631133 0.331258
22.7073 29.974 11.7644 -0.581885 -2.09708 -1.56864
25.7321 28.0123 13.7426 -1.27211 0.42484 -0.130392
25.4609 29.1833 11.1254 -2.61522 -0.587705 0.455047
27.6467 29.966 12.8337 -1.67345 1.12378 1.50898
27.5671 27.2845 11.6422 0.242938 0.595726 -2.58546
29.7528 28.0672 13.3506 1.0699 -0.843591 -0.591674
17.1999 31.5555 13.0425 0.168292 -0.926416 -0.315256
19.9536 30.7648 12.4035 -1.28941 -1.33847 -0.489854
22.1393 31.5474 14.1118 0.452595 -0.829786 -0.469586
24.893 30.7567 13.4728 0.382662 -0.834623 -0.00937941
10.567 6.66266 16.8538 1.18278 1.60137 0.0907216
15.5369 6.73047 16.3693 0.106936 0.564314 -0.982379
13.1875 6.11109 17.9202 1.04926 1.20822 -0.517955
17.643 4.83167 16.8862 -0.212818 -0.969855 0.073545
17.3719 6.00262 14.2689 0.594264 -0.0195348 -1.0896
19.7492 2.93288 17.403 -1.77573 -0.596307 -1.49748
19.4781 4.10383 14.7858 -0.99265 0.968757 -0.66032
23.2487 6.56471 17.0808 0.799109 -1.11321 0.159402
20.4459 5.69819 16.9835 -1.30018 0.745109 -1.36539
22.552 3.79939 17.5003 -0.0981766 -2.05338 -0.894496
22.2809 4.97035 14.8831 0.333968 1.14453 -0.930855
28.1577 5.53244 17.695 0.226951 -0.920527 -0.980461
27.8866 6.70339 15.0778 -0.0456646 -1.17781 -1.04479
25.3549 4.66591 17.5977 0.426657 -1.14332 -1.06495
25.0837 5.83686 14.9804 -0.821247 1.25528 -1.88138
30.9606 6.39896 17.7923 0.277619 0.0606083 -0.982074
11.2637 9.42798 16.4343 -0.754124 -0.544078 1.32563
10.2959 7.83362 14.2366 -0.481191 0.170885 0.366612
8.91434 8.80861 17.9851 0.933309 1.66542 -0.875414
8.64321 9.97957 15.3679 -0.879005 -0.591758 1.59067
13.8842 8.87641 17.5006 0.596282 -2.04761 -0.271741
13.6131 10.0474 14.8834 -2.35788 0.171331 -0.581305
12.9164 7.28205 15.303 -0.57211 1.07768 -0.986106
19.0365 10.3623 16.0471 0.458292 0.275721 -0.668608
16.2336 9.49578 15.9497 -1.17187 -1.71469 -1.09405
18.3398 7.59699 16.4666 -2.0562 -1.72636 0.560062
20.1748 6.86915 14.3663 -1.44903 1.89704 -1.98046
23.9454 9.33004 16.6612 -0.0387216 3.1264 -0.595728
21.1426 8.46351 16.5639 -0.136092 -0.791407 1.11003
22.9776 7.73567 14.4636 0.513442 -0.662456 -0.493155
26.7483 10.1966 16.7586 -0.700367 -0.459924 0.364644
28.5833 9.46871 14.6582 -0.644197 0.825858 0.905123
26.0516 7.43123 17.1781 0.768032 0.82035 0.134928
25.7805 8.60218 14.5609 -1.95359 -0.32831 0.22415
31.6573 9.16428 17.3727 0.467613 -0.704445 -1.96406
31.3861 10.3352 14.7555 0.869681 0.627799 0.951195
28.8544 8.29776 17.2754 -1.96751 -0.379623 0.662113
30.6894 7.56991 15.1751 -2.50273 0.341724 1.28036
6.99053 12.1255 16.4993 0.61385 -1.99903 -0.214999
5.33786 14.2714 17.6306 1.64059 0.0790126 0.744935
10.3078 14.3392 17.146 0.105565 -1.72445 -0.647357
9.61105 11.5739 17.5656 0.280803 -0.369351 -0.785539
9.33991 12.7449 14.9484 -1.54787 0.396262 -2.96603
15.2776 14.407 16.6615 -0.154229 0.875035 -0.686525
14.5809 11.6417 17.0811 0.232032 0.563833 1.46489
14.3098 12.8127 14.4639 0.270309 -0.983867 -0.0554726
12.9283 13.7877 18.2124 -0.167732 -0.0519354 -0.654739
11.9604 12.1933 16.0147 1.58436 0.825985 -1.64736
17.8982 13.8555 17.7278 0.513698 -0.0781918 0.402885
20.0043 11.9567 18.2447 -0.564385 0.600921 -0.175727
19.7332 13.1276 15.6275 1.42398 0.0746259 -0.765833
17.2015 11.0902 18.1474 0.888072 -0.00773826 0.527517
16.9303 12.2611 15.5302 -1.15561 -0.492374 -1.18232
22.536 13.9942 15.7248 -0.344833 0.604641 0.872474
21.8393 11.2288 16.1444 0.491246 -2.02953 -0.562368
27.445 12.9619 16.339 -0.409116 -0.365497 0.789899
24.6422 12.0954 16.2417 -2.46524 1.80755 -1.08969
30.2478 13.8284 16.4363 -1.03234 -1.64838 2.29681
32.354 11.9296 16.9532 -2.51813 0.334861 -0.528806
32.0829 13.1006 14.336 0.0823078 -1.34743 -0.224618
29.5511 11.0631 16.8559 -0.58263 -0.25024 -0.804381
29.28 12.234 14.2387 -1.05599 0.460614 0.552616
34.2686 13.8832 16.0443 0.926244 0.424631 0.0532502
6.03456 17.0368 17.211 -0.67812 0.51394 0.146248
5.76343 18.2077 14.5938 0.279574 1.1113 0.232845
5.06672 15.4424 15.0134 -0.748859 0.00872567 -0.458125
3.41404 17.5883 16.1447 0.438714 0.242518 -2.32822
11.0045 17.1046 16.7265 1.03521 -1.15565 -1.90201
10.0366 15.5102 14.5288 -0.418511 2.34534 0.359273
8.65508 16.4852 18.2774 -1.15297 0.270665 -0.00234586
8.38394 17.6561 15.6602 0.401468 -0.296484 1.07262
7.68723 14.8908 16.0797 -0.299468 -0.87091 -0.418292
15.9744 17.1724 16.242 0.766135 1.07415 0.0995172
13.625 16.553 17.7928 1.09415 0.736161 -1.43954
13.3538 17.7239 15.1756 -0.534643 -3.0737 -0.364944
12.6571 14.9586 15.5952 0.0702545 0.366198 1.14604
18.5949 16.6208 17.3083 -2.80895 0.649191 -1.57971
18.3237 17.7917 14.6911 1.13975 -0.453255 0.850276
17.627 15.0264 15.1106 -0.396477 -2.29503 -0.771425
24.2006 18.3538 17.5029 -0.753296 -0.432252 -0.49296
21.3977 17.4873 17.4056 1.14989 0.397243 -0.950001
23.5039 15.5885 17.9225 2.04039 -1.54264 -1.6021
23.2327 16.7595 15.3053 0.710705 -0.0502529 1.93045
20.701 14.722 17.8252 0.96297 0.767279 0.289433
20.4299 15.8929 15.208 -1.24856 2.55992 0.997805
26.3067 16.455 18.0198 -0.89271 -1.40525 1.14177
26.0356 17.626 15.4026 -0.636629 -0.0254168 0.452806
28.2213 18.4087 17.1109 -0.26658 -1.36767 -0.640638
28.1417 15.7272 15.9195 0.814498 -0.0661317 0.217992
25.3389 14.8607 15.8221 -0.34348 0.352276 1.1693
30.3274 16.5099 17.6278 0.725739 0.715397 1.83224
30.0563 17.6808 15.0106 -0.729273 1.07498 -1.98357
32.4336 14.6111 18.1447 0.000985435 -0.686959 -2.78351
32.1624 15.782 15.5275 0.764285 -1.42705 -0.175472
34.3482 16.5647 17.2358 -0.290539 1.72169 -0.140015
34.077 17.7357 14.6186 0.77735 -0.483431 -0.403361
36.4543 14.6659 17.7527 2.15442 -0.489456 0.762478
36.1832 15.8369 15.1355 -1.04476 1.01963 -3.43992
5.0786 21.9481 17.9228 -0.19397 1.04741 -1.48463
6.73127 19.8021 16.7915 1.59559 1.38339 -1.83844
4.11075 20.3537 15.7252 -0.248397 -1.39999 -0.177819
10.0485 22.0159 17.4383 0.86504 1.23648 1.3152
11.7012 19.8699 16.307 0.961164 -0.314601 -0.0460337
9.35179 19.2505 17.8578 -0.541849 1.39234 2.6197
9.08065 20.4215 15.2406 1.5588 -1.27015 -0.641834
15.0184 22.0837 16.9537 -0.290799 -0.531823 -1.45229
14.3217 19.3183 17.3733 -1.14442 0.970145 1.94499
14.0505 20.4893 14.7561 0.420671 -0.104879 1.33238
19.9883 22.1514 16.4692 1.4718 0.51898 0.575827
17.6389 21.5321 18.0201 0.0165293 -0.482534 0.55503
19.2916 19.3861 16.8887 -0.93319 -0.0342466 1.07877
19.0204 20.5571 14.2715 1.82468 -0.504123 -0.285981
16.6711 19.9377 15.8224 -1.56219 0.0737465 -0.934978
22.0944 20.2526 16.9861 -1.25542 -0.537762 -1.84767
21.8233 21.4236 14.3689 0.26424 0.772162 -0.996909
24.009 22.2063 16.0772 0.0488953 -0.288646 2.14545
23.9294 19.5248 14.8857 -1.43714 -1.3199 0.3023
21.1266 18.6583 14.7884 0.122247 1.71106 2.13826
26.1152 20.3075 16.5941 0.128225 0.97107 -0.662217
28.3009 21.0902 18.3024 1.08664 -0.822269 0.142929
28.0298 22.2611 15.6852 -0.809114 -2.17976 0.260705
27.9502 19.5796 14.4937 -0.590936 -2.53844 -1.55636
30.1359 20.3623 16.2021 -0.900978 0.0613285 -1.05428
32.3216 21.145 17.9104 0.137915 -0.687064 -0.982198
32.0505 22.316 15.2932 -2.58214 -0.565449 0.447152
32.242 18.4635 16.7189 0.216425 -0.975943 -0.0292792
34.1566 20.4172 15.8101 -1.17193 -0.268433 1.22253
36.3423 21.1998 17.5184 1.63637 -2.93713 1.5478
36.2628 18.5184 16.3269 1.74121 -1.13922 -0.273358
7.42798 22.5675 16.372 -0.14537 0.186629 -2.14652
4.80747 23.119 15.3056 -0.00939651 1.18139 1.08508
6.58891 25.3118 16.1021 0.617757 -0.538056 0.614869
4.23953 24.6925 17.653 -0.954196 0.832182 -1.37844
9.77735 23.1868 14.8211 -0.436147 -1.05516 -0.082856
11.5588 25.3796 15.6176 -2.17697 0.186384 -0.58973
9.20942 24.7602 17.1685 0.474335 1.47826 0.0287426
8.93829 25.9312 14.5513 -1.12228 -0.106197 -1.65013
14.7473 23.2546 14.3365 0.89351 1.45967 -0.0155477
12.3979 22.6352 15.8874 -0.489993 -0.862028 -0.45997
14.1793 24.828 16.6839 0.367048 -0.555695 -1.16671
11.8299 24.2087 18.2348 -0.336056 0.612346 0.0854028
17.3678 22.703 15.4029 2.13143 -0.321547 0.585619
19.1492 24.8958 16.1994 -1.70611 -1.17304 1.24777
16.7998 24.2764 17.7503 0.712469 -0.647909 2.39153
16.5287 25.4474 15.1331 0.110161 -0.410237 -0.45593
22.174 22.9341 18.1775 1.11697 1.60539 -1.76563
21.9029 24.1051 15.5603 -0.454391 0.305976 2.1389
21.335 25.6785 17.9077 -0.949376 0.0423089 1.40375
24.0886 24.8878 17.2687 -0.111956 -0.884647 0.250501
23.8175 26.0587 14.6515 -0.988922 -0.851882 1.52755
26.1947 22.989 17.7855 -1.34314 1.78241 -0.0613347
25.9236 24.1599 15.1683 -1.78266 0.353111 0.551566
28.1093 24.9426 16.8767 0.95851 0.437199 -0.959461
27.8382 26.1135 14.2595 0.328229 0.506306 -0.737947
30.2155 23.0438 17.3935 1.00832 1.22564 1.1204
29.9443 24.2148 14.7763 0.488573 0.401034 -0.713271
32.1301 24.9974 16.4847 1.2683 -0.334087 0.163236
34.3158 25.7801 18.193 -2.47629 -0.166615 0.847823
34.2362 23.0986 17.0015 0.352587 -0.247717 0.302682
33.9651 24.2696 14.3843 0.0301083 0.955886 0.339258
36.1508 25.0523 16.0926 0.362583 -1.42377 1.3957
36.0712 22.3708 14.9012 2.36098 -2.01459 -2.09256
10.9909 26.953 17.965 -0.0742144 -0.749067 0.314572
10.7197 28.124 15.3478 -0.126211 -1.40725 0.538765
8.37036 27.5046 16.8987 -0.552554 0.376691 0.650989
10.1518 29.6974 17.6952 -1.3179 1.46098 -1.73628
15.9608 27.0208 17.4804 0.708277 -0.855939 -0.637702
15.6896 28.1918 14.8632 -0.934947 0.913092 1.75915
13.3403 27.5724 16.4141 -0.343004 0.428322 -0.552194
15.1217 29.7652 17.2106 1.19403 0.0587933 -1.85166
18.3101 27.6402 15.9296 -0.669476 0.00909881 0.500039
17.7422 29.2136 18.2769 -0.640356 -0.246863 0.659114
20.2247 29.5938 15.0207 0.134143 -0.973253 0.709694
21.0638 26.8494 15.2905 -0.218729 -1.17571 0.879602
20.4959 28.4229 17.6379 0.71546 -0.14844 0.999915
23.2495 27.6321 16.9988 -2.28376 -2.06721 1.25283
22.9784 28.8031 14.3816 0.448358 0.0633939 0.119398
26.0032 26.8414 16.3598 2.78589 -0.850024 1.4265
25.1641 29.5858 16.09 0.581411 1.63261 -0.103475
28.1889 27.6241 18.0681 1.16985 0.484559 0.461817
27.9178 28.795 15.4509 -0.411869 2.83537 0.762745
30.1035 29.5777 17.1593 -1.04458 -0.486353 -1.77
30.0239 26.8962 15.9678 0.123649 0.775048 2.1244
32.2097 27.6789 17.6761 -0.449127 0.924472 -1.60022
31.9385 28.8499 15.0589 -1.64841 -0.758299 1.92793
34.1243 29.6326 16.7672 0.66252 -0.326012 0.66184
34.0447 26.9511 15.5758 -0.496359 0.338264 1.16318
36.2304 27.7338 17.2841 -0.56594 0.150351 0.725365
14.8506 30.9361 14.5934 1.88112 -1.24545 0.532838
12.5012 30.3168 16.1443 -0.574307 0.309614 0.702957
14.2826 32.5096 16.9408 -1.16096 -0.298439 -0.1287
17.4711 30.3845 15.6597 -1.06884 0.708664 -0.918331
16.9031 31.958 18.0071 -0.677284 0.733713 0.646139
16.632 33.1289 15.3899 0.0472707 -0.468138 0.41468
19.6568 31.1672 17.3681 0.781614 0.296195 -0.0949207
19.3857 32.3382 14.7509 -0.318926 -1.2107 -0.484975
18.8177 33.9116 17.0983 0.923256 0.502421 1.7419
22.4105 30.3765 16.729 -0.44021 -1.39406 0.000608102
21.5714 33.1209 16.4592 -2.02523 0.108437 -0.478555
24.3251 32.3301 15.8202 -0.68609 1.47305 0.774315
23.7571 33.9036 18.1675 0.720309 -0.357837 -0.000319854
27.3499 30.3685 17.7983 1.20854 0.537861 -0.190606
27.0787 31.5394 15.1811 -0.553374 2.65038 0.379599
26.5108 33.1128 17.5285 0.271094 -1.62997 -0.803471
29.8324 30.7487 14.542 -0.346498 -1.88845 -0.10328
29.2644 32.3221 16.8894 -1.97374 -0.0351378 -0.744063
32.0181 31.5314 16.2504 1.1805 0.141691 1.34619
16.0641 34.7023 17.7373 -1.07328 -0.327013 -0.246951
10.8381 5.49171 19.471 -0.379572 -0.681659 -0.170238
15.808 5.55952 18.9865 -0.6499 -0.0297851 -0.650841
13.4587 4.94014 20.5374 2.27395 -0.316903 0.882225
18.882 5.25508 21.701 1.7473 -0.307065 -2.61845
18.6109 6.42604 19.0838 -0.566792 -0.0749449 -1.10438
16.0792 4.38857 21.6037 2.52639 0.435668 0.800552
17.9142 3.66072 19.5034 0.535306 -2.11314 0.132878
21.6849 6.1216 21.7983 -1.21588 0.731942 0.863963
23.5199 5.39376 19.698 -2.10897 -1.28407 1.66212
20.717 4.52724 19.6007 3.1374 -1.17289 -0.141377
26.3227 6.26028 19.7953 2.24558 0.65348 0.42037
7.53281 9.7836 21.7337 -0.253188 -0.924965 -0.191425
11.806 7.08608 21.6687 -1.60269 0.0394034 -0.2901
11.5349 8.25703 19.0515 2.16959 0.159818 1.22695
9.88218 10.403 20.1828 0.444812 1.63713 -0.772931
9.18548 7.63766 20.6024 0.229792 -0.357413 0.307723
15.1232 9.29982 22.3155 -0.174666 -2.35131 1.53984
14.8521 10.4708 19.6983 1.01562 -2.07657 -0.226858
14.1554 7.70546 20.1178 0.450806 1.88254 -1.60657
12.5027 9.8514 21.2491 -1.16593 -1.06458 -1.1595
17.4726 9.9192 20.7646 -0.759657 0.361434 2.0989
19.5787 8.0204 21.2815 0.104992 0.543827 0.256143
19.3076 9.19136 18.6643 -0.270858 1.28797 -0.774438
16.7759 7.15388 21.1841 0.666553 -0.478862 1.91913
16.5048 8.32483 18.5669 0.91309 0.665094 -1.35525
22.3816 8.88693 21.3788 -0.386916 0.366012 1.58248
22.1104 10.0579 18.7616 -1.05506 0.0158913 -1.84962
24.2166 8.15909 19.2784 -0.0955999 -0.38904 -0.935752
21.4137 7.29255 19.1811 -0.372306 0.246322 -3.50609
27.9873 10.62 21.5734 -1.08178 -0.952339 -0.721296
25.1844 9.75345 21.4761 -0.634879 -0.716703 -0.719672
27.2906 7.85465 21.993 1.56524 -0.298568 -0.51848
27.0194 9.0256 19.3758 0.422539 0.24967 1.37042
24.4877 6.98813 21.8956 1.88029 1.50622 0.301101
30.0934 8.72117 22.0903 -1.10681 -1.10078 0.00732802
29.8223 9.89212 19.4731 -1.22129 1.03715 2.42211
31.9284 7.99333 19.9899 -0.91125 0.940036 -0.0762536
29.1256 7.12681 19.8926 -0.189214 0.191997 -0.0716552
32.8963 9.58769 22.1876 0.819727 -0.834265 1.25583
7.26167 10.9546 19.1165 0.103969 0.771182 0.0672984
5.60899 13.1005 20.2478 -0.341818 0.44164 -0.994796
10.85 11.9973 22.3805 0.159948 0.511815 0.385008
10.5789 13.1683 19.7632 0.7515 -0.525247 0.00913862
8.22951 12.5489 21.3141 -0.225045 -1.32641 1.06616
7.95837 13.7199 18.6969 -0.0953219 1.04251 -1.15285
15.8199 12.0651 21.8959 -0.69783 1.25383 1.66747
15.5488 13.2361 19.2787 -0.419416 -0.416439 0.553333
13.1994 12.6167 20.8296 -1.4047 1.7471 0.605828
12.2316 11.0224 18.6319 -0.962998 -0.0267748 1.27328
18.1693 12.6845 20.345 0.690106 -2.23219 1.58321
23.775 14.4176 20.5397 1.50613 -0.599437 -0.834783
20.9721 13.551 20.4424 -0.370014 -0.163757 -1.75168
23.0783 11.6522 20.9592 1.55034 -0.156874 -1.47077
22.8072 12.8232 18.342 -1.15712 -0.686834 0.765333
20.2754 10.7857 20.8619 0.35729 0.654452 -0.357028
28.4128 14.5562 18.5367 2.60125 -1.60611 -1.71222
25.8811 12.5188 21.0565 -0.983976 1.91861 0.655757
25.61 13.6897 18.4393 1.30051 -0.132511 -0.27577
27.7161 11.7909 18.9562 -0.286258 0.760503 1.97336
24.9133 10.9244 18.8589 -0.0636943 0.0483706 -0.686308
28.684 13.3853 21.1539 0.0100699 -1.04661 0.896064
30.7901 11.4865 21.6707 -3.43922 0.186287 -1.00545
30.519 12.6574 19.0535 -0.50781 0.0849288 0.982074
32.7047 13.4401 20.7619 -0.352304 1.05913 0.0476896
32.6251 10.7586 19.5704 -0.155171 -0.331963 1.04411
34.8109 11.5413 21.2787 -1.04155 -1.21582 -0.57896
34.5397 12.7123 18.6615 -0.506227 0.061723 -0.657087
36.7254 13.495 20.3699 1.71203 0.943351 -1.78034
7.27354 17.4602 22.0259 0.482908 0.504455 -1.07175
6.57684 14.6949 22.4454 -0.134617 -0.904471 0.949079
6.3057 15.8658 19.8282 0.758155 -0.692552 2.08337
4.65303 18.0118 20.9596 -0.999105 -1.2213 0.853757
3.95632 15.2464 21.3791 -0.00871722 -1.80355 -0.0803002
3.68518 16.4174 18.7619 -0.500941 0.383804 -1.49537
11.5467 14.7627 21.9609 0.824261 0.344909 -0.266781
11.2756 15.9336 19.3437 1.7823 -1.97391 0.00133345
9.62293 18.0796 20.475 -2.38082 -1.9525 -1.72226
8.92622 15.3142 20.8946 1.19114 -0.200835 1.35016
14.5928 18.1474 19.9905 0.762617 -0.764505 -0.935182
13.8961 15.382 20.41 -1.23226 0.211708 1.26546
12.2434 17.528 21.5414 1.50578 -0.245642 -0.311315
19.8339 17.0442 22.1232 0.620504 2.38307 -2.79819
19.5627 18.2152 19.5059 0.271611 1.24389 0.624485
18.866 15.4498 19.9255 1.76686 -0.964539 0.793461
17.2133 17.5958 21.0568 -0.406044 1.70366 0.00948608
16.5166 14.8305 21.4764 0.443664 1.2241 -3.08583
16.2455 16.0014 18.8592 -1.14109 1.0052 1.75888
22.6367 17.9107 22.2205 -1.40068 -0.471797 -0.540513
21.6689 16.3164 20.0228 -0.211843 -0.682759 2.75033
24.4717 17.1829 20.1201 -0.539175 1.56842 -0.582373
26.6574 17.9656 21.8285 1.21015 0.557042 2.45034
26.5778 15.2841 20.637 -1.23118 0.673405 -1.15052
28.4924 17.2377 19.7281 -0.606565 -2.11352 -0.702683
28.7636 16.0668 22.3453 -0.589612 0.153443 -1.56572
30.6782 18.0204 21.4365 -0.229286 -0.105437 3.26357
30.5986 15.3389 20.245 1.20479 -0.126887 0.253366
32.7843 16.1216 21.9533 -0.425509 -1.1079 1.00068
32.5132 17.2926 19.3361 0.9625 2.71905 0.472767
34.6989 18.0753 21.0445 0.551671 -1.37541 -0.600365
34.6193 15.3938 19.853 0.686253 1.30091 0.290348
36.805 16.1765 21.5613 1.18717 1.65989 0.904144
36.5339 17.3474 18.9441 0.413734 -2.62298 0.221651
5.34974 20.7771 20.54 -1.05141 0.775349 0.386793
7.00241 18.6311 19.4087 0.658306 -0.673168 0.598505
4.38189 19.1827 18.3424 -0.152176 1.26784 0.282891
10.3196 20.8449 20.0555 -0.969689 -1.13081 -0.740671
7.97025 20.2256 21.6064 0.487538 -1.30538 -1.16706
7.69911 21.3965 18.9892 -1.0491 3.14076 -2.5003
15.5607 19.7417 22.1882 0.287669 1.26477 0.778678
15.2895 20.9127 19.5709 1.28505 0.555191 1.30942
12.9401 20.2933 21.1218 0.466979 0.928601 0.256661
12.669 21.4643 18.5046 -0.410792 -2.48644 -2.44917
11.9723 18.6989 18.9242 -0.328047 0.292532 -0.59422
17.91 20.3611 20.6373 0.931751 -0.697874 1.19642
16.9422 18.7667 18.4396 -0.212808 -0.592494 0.428449
20.5306 19.8095 21.7036 0.479156 0.539351 -0.955301
20.2594 20.9805 19.0864 1.10841 1.0686 0.432118
22.4452 21.7632 20.7947 0.339235 -1.86289 0.278546
22.3656 19.0817 19.6033 0.997472 -1.46302 -1.63483
24.2802 21.0353 18.6944 0.023157 0.770202 1.47355
24.5513 19.8644 21.3116 -1.3468 -0.771943 -0.599629
26.4659 21.818 20.4027 2.23245 1.27627 0.288208
26.3863 19.1365 19.2113 -0.92889 0.483596 0.560543
28.572 19.9192 20.9196 -0.507074 0.0870706 1.78745
30.4866 21.8728 20.0107 -0.0923109 -0.48588 -0.237827
30.407 19.1914 18.8193 0.178978 1.21899 -1.04002
32.5928 19.974 20.5276 1.50839 -2.40348 0.00885111
34.7785 20.7567 22.2359 -0.342766 -0.777366 -0.515993
34.5074 21.9277 19.6187 0.388612 -0.0426504 -0.529208
34.4278 19.2462 18.4273 -1.33562 -0.497755 -1.34371
36.6135 20.0289 20.1356 -1.06025 0.851202 -0.663289
7.13119 22.9699 21.3366 0.669435 1.34475 -1.43949
6.86005 24.1409 18.7193 0.836452 0.673142 -1.91993
4.51066 23.5215 20.2702 1.20385 0.668521 0.511469
6.29211 25.7143 21.0667 0.602285 -0.0219159 -0.36829
9.7517 22.4183 22.4029 -0.447524 -2.05436 -2.33285
9.48056 23.5893 19.7857 0.175523 -1.27654 0.165722
11.262 25.7821 20.5822 0.742777 -0.623936 -0.966058
8.91264 25.1627 22.1331 -0.323393 -0.440274 0.447619
14.7216 22.4861 21.9183 -0.848214 -1.81579 0.254561
14.4505 23.6571 19.3011 0.364227 0.071656 -0.00316093
12.1011 23.0377 20.852 -0.759885 -0.584895 2.25001
13.8825 25.2305 21.6485 0.824741 -1.54058 -0.853681
19.6915 22.5539 21.4338 -2.17361 -0.347603 -0.27962
19.4204 23.7248 18.8166 -1.82492 0.405863 -0.178684
17.071 23.1055 20.3675 -1.13601 -0.413679 -1.40968
18.8524 25.2983 21.164 1.52395 1.01258 0.482842
16.2319 25.8499 20.0976 0.169678 0.235968 0.721696
21.6061 24.5075 20.5249 1.38785 -1.19995 -2.09164
24.3597 23.7168 19.8859 -0.322823 2.06641 0.215398
23.7918 25.2902 22.2332 1.6744 -0.895436 0.795838
26.5455 24.4995 21.5942 -0.591634 0.513369 1.74171
26.2743 25.6704 18.977 0.509219 0.607662 -1.1456
28.3805 23.7716 19.4939 1.91828 -0.435217 -0.791922
28.6516 22.6007 22.1111 0.229801 0.133196 0.653935
30.5662 24.5543 21.2022 1.72184 -0.526375 0.559872
30.2951 25.7253 18.585 1.1729 -1.38479 -0.0133399
32.6723 22.6555 21.7191 1.1677 1.66812 0.900361
32.4012 23.8265 19.1019 -1.80715 -0.0292979 0.269038
34.5869 24.6092 20.8102 0.154247 0.382191 1.44088
36.6931 22.7104 21.3271 0.653759 1.74269 0.585246
36.4219 23.8813 18.7099 -0.145569 1.76524 -2.35031
6.02098 26.8852 18.4495 -1.24117 -1.11336 -0.342542
3.6716 26.2659 20.0004 -0.583625 -2.76777 -1.39141
5.45305 28.4587 20.7969 0.419734 -1.81953 1.52495