ITEM: TIMESTEP
0
ITEM: NUMBER OF ATOMS
100
ITEM: BOX BOUNDS ss ss ss
1.2103798490852755e+01 2.8520126604463126e+01
1.2538071724088731e+01 2.8243926217190104e+01
1.5156514091043885e+01 2.5633486110771333e+01
ITEM: ATOMS x y z vx vy vz
15.4132 13.8216 17.9701 1.24727 0.804555 -0.0557769
13.7605 15.9675 19.1014 0.153227 -1.07046 1.43713
18.7304 16.0353 18.6169 1.13761 -1.78471 -1.79681
18.0337 13.27 19.0364 0.829224 0.0624126 -1.21137
17.7626 14.4409 16.4192 -0.172993 -1.0273 -1.41585
16.3811 15.4159 20.1678 -0.342356 -0.174503 0.977376
19.8687 12.5422 16.9361 -0.705583 -2.54836 -0.0471717
23.6394 15.003 19.2311 -0.177773 -0.532868 0.300115
23.3683 16.174 16.6139 0.835673 -1.1601 1.28214
20.8366 14.1365 19.1338 -1.58519 0.883665 1.77702
20.5654 15.3075 16.5166 -0.442779 1.32091 -0.426243
22.6716 13.4087 17.0334 -0.857656 0.0125126 0.85659
26.4423 15.8696 19.3284 -0.278738 -0.585476 -1.32526
25.4744 14.2752 17.1307 -0.594404 -0.123818 0.853383
16.1099 16.5869 17.5506 -1.13752 -0.740363 -1.60611
14.4573 18.7328 18.6819 0.123048 -0.67784 -0.709365
12.1079 18.1135 20.2328 0.805086 0.546636 1.02543
19.4271 18.8006 18.1973 1.15412 0.393522 1.18957
19.156 19.9716 15.5801 -1.45668 -1.01305 -2.43339
18.4593 17.2063 15.9997 -1.25424 -0.900389 -2.0834
17.0778 18.1813 19.7482 -1.28192 0.435401 0.49864
16.8066 19.3522 17.131 -1.22099 -0.91828 -1.45547
22.23 19.6672 18.2947 2.29971 -0.474096 0.568755
24.3361 17.7684 18.8115 -0.733641 -0.143001 -1.81067
24.065 18.9393 16.1943 1.80668 -0.125455 -0.872245
21.5333 16.9018 18.7142 -2.09538 -0.453586 -2.02089
21.2622 18.0728 16.097 -0.451034 0.217048 -2.05927
26.2507 19.722 17.9027 1.41018 0.50157 1.45999
26.1711 17.0405 16.7112 1.04562 1.45163 0.17164
28.3569 17.8232 18.4195 -0.961506 -0.538602 2.38748
15.154 21.4982 18.2623 -3.01826 -2.20086 -0.619895
12.8046 20.8788 19.8132 0.470455 0.410029 1.36429
20.1239 21.566 17.7778 -0.168369 1.59272 -1.82101
19.8527 22.7369 15.1606 -1.73647 1.13343 0.237888
17.7745 20.9466 19.3287 1.54008 0.399438 0.356433
17.5033 22.1175 16.7115 -1.39369 1.02011 0.744059
19.5559 23.1394 20.1252 0.831332 -0.332317 -0.377614
19.2848 24.3103 17.508 0.822956 -0.215523 0.327119
16.9354 23.691 19.0589 -1.9302 -1.45393 0.94581
20.395 20.395 20.395 1.97554 -0.862198 -0.441831
22.3096 22.3486 19.4861 -1.15769 1.0191 -1.16137
22.0384 23.5196 16.8689 1.15445 -0.382346 0.678381
21.9589 20.8381 15.6775 1.05386 0.279731 -1.06564
24.2242 24.3023 18.5773 0.299372 -2.13429 0.0387465
24.4157 20.4498 20.003 -0.553487 0.314544 2.25878
24.1446 21.6208 17.3858 -0.295395 -1.0433 -0.315172
26.3303 22.4035 19.0941 1.05583 -0.180719 0.191276
28.4365 20.5047 19.611 1.62305 1.09974 0.598693
18.7169 25.8837 19.8554 -0.288536 0.132199 1.37539
21.4705 25.093 19.2163 0.735592 -1.10393 1.59223
26.4099 25.085 20.2856 0.161337 0.984038 1.2571
19.9694 16.4587 23.4318 -0.898078 2.35273 -2.51405
19.0016 14.8644 21.2341 -1.49913 -0.596986 -0.557199
21.8044 15.7309 21.3314 0.112974 -0.265384 -0.221794
15.6962 19.1563 23.4968 -0.0348465 0.350166 1.16795
15.4251 20.3272 20.8795 -0.535639 -1.44427 -0.268252
13.0757 19.7079 22.4304 0.54974 0.11431 1.67339
14.7284 17.5619 21.2991 0.730334 -0.818764 2.4257
18.3168 18.6047 24.5631 0.379029 0.653545 -1.18605
18.0456 19.7756 21.9459 1.10327 1.10971 0.257526
19.6983 17.6297 20.8145 -0.662884 -0.0392672 -0.173358
17.3489 17.0103 22.3654 0.204529 0.822455 -1.17705
20.9373 18.0531 25.6294 1.0532 0.701907 1.11095
20.6661 19.224 23.0122 0.905171 0.305309 -0.0713875
22.8519 20.0067 24.7205 -0.0427826 -0.00939097 1.26835
22.7723 17.3253 23.5291 0.914824 -0.648888 1.34207
22.5011 18.4962 20.9119 -0.0307756 -0.532109 0.592151
24.6869 19.2789 22.6202 1.10152 1.83548 -1.90623
24.6073 16.5974 21.4287 -0.0116876 1.01806 -0.72349
26.5219 18.551 20.5199 0.287928 1.38478 0.942631
14.8572 21.9006 23.2269 -0.306444 -0.642415 -1.01494
14.586 23.0716 20.6097 -1.86118 -0.0584946 -1.48769
12.2367 22.4522 22.1606 -0.477323 -1.26331 0.462516
20.0982 20.7975 25.3596 -0.206132 0.821262 0.0848406
19.8271 21.9684 22.7424 -1.65366 -0.330648 0.364876
17.4777 21.3491 24.2933 -2.52348 -0.329404 -0.59263
17.2065 22.52 21.6761 -2.10257 0.369183 -0.539968
19.2591 23.5418 25.0898 1.02947 -0.292819 0.0807681
16.6386 24.0934 24.0234 -2.15447 2.19662 0.0255594
22.5807 21.1777 22.1033 0.372238 0.0761905 -0.455218
22.0128 22.7511 24.4507 1.03847 -0.420354 -1.37698
21.7417 23.9221 21.8335 0.763453 2.20295 -0.546945
24.7665 21.9604 23.8117 1.68559 -0.53735 -0.0212241
24.4953 23.1313 21.1945 2.53504 -1.14573 -0.69496
26.681 23.914 22.9028 0.125621 -0.472849 -0.271415
26.6015 21.2325 21.7113 0.213022 -0.0974606 0.983931
28.516 23.1862 20.8025 0.325847 0.863319 0.476042
14.0181 24.645 22.9571 -1.47925 -0.323233 1.82092
15.7995 26.8378 23.7536 -0.478835 1.54418 0.643461
18.988 24.7128 22.4726 -1.4503 0.408988 0.207995
16.3675 25.2644 21.4062 0.50558 2.45978 -3.56962
18.4201 26.2862 24.82 0.0062636 1.44406 0.146594
18.1489 27.4572 22.2028 -1.25242 -0.0538773 0.581289
21.1737 25.4955 24.1809 1.69715 -0.399521 -0.70635
20.9026 26.6664 21.5637 0.0745627 -1.42132 0.427817
23.9274 24.7047 23.5419 -0.13786 -0.0480493 -0.598462
23.6562 25.8757 20.9246 -1.05951 -0.159566 1.64874
20.3347 28.2398 23.9111 0.458565 -0.425952 1.42357
23.0883 27.4491 23.272 0.761348 0.241305 0.68051
25.842 26.6584 22.633 3.6457 -0.612147 0.215459
ITEM: TIMESTEP
1000
ITEM: NUMBER OF ATOMS
100
ITEM: BOX BOUNDS ss ss ss
1.3388982470301746e+01 2.7104197565099142e+01
1.3125498041297929e+01 2.7254198629841309e+01
1.4315678201608755e+01 2.6096711850670665e+01
ITEM: ATOMS x y z vx vy vz
16.8213 14.5356 18.0123 -2.63153 0.59272 -1.50698
15.2289 16.6941 19.0752 1.92277 0.719326 -0.379564
18.851 15.9798 19.4911 0.267144 -1.66 3.03002
18.2464 13.0709 19.8027 -0.259993 -0.153505 -1.1036
17.9202 15.3279 15.781 1.18156 -0.932525 -0.84345
16.5071 15.1493 20.7941 -2.62075 1.06937 2.01615
19.3744 13.7469 17.665 -0.483687 -0.870533 1.12821
23.3673 15.1471 19.3174 0.00988769 -0.494504 0.460389
22.8124 16.7831 16.6501 -1.73608 0.108868 1.71376
20.9254 14.2257 19.8605 1.17111 -0.251993 0.254733
20.1114 16.2402 16.7413 0.132803 0.787293 -1.10325
21.9408 14.4364 17.3961 -0.302054 -0.80466 -1.67857
25.8875 15.9588 20.0646 -0.799132 0.437985 2.27372
25.1429 15.7278 17.5037 -2.16953 -0.782818 0.531336
17.1181 17.4738 17.6735 1.07831 0.564967 -0.161856
15.4492 19.3179 18.4461 3.13778 0.974433 -0.128808
13.4475 19.0618 20.2479 0.976492 -0.892691 0.455021
19.4115 18.9272 18.2675 0.518682 -2.30393 0.676806
19.2235 20.5548 14.9734 0.048206 0.557178 -2.22272
18.5484 17.9182 15.3012 1.46878 -1.92849 0.586313
17.2443 18.0677 20.3902 0.399822 -1.65756 3.37395
17.5019 20.204 16.6901 0.887429 -0.568034 1.8741
22.0138 19.8363 18.227 -1.05707 0.904781 -0.603955
24.0617 17.9752 18.8348 0.0344228 -0.686713 -0.0180465
23.5498 19.499 15.7463 0.175707 -1.51918 0.680917
21.3362 16.9535 18.9756 -2.22084 -0.316042 1.51445
20.9394 18.7845 15.9205 -1.60733 2.39593 -0.470928
25.6629 19.9446 17.6277 -1.30026 3.09195 0.288904
25.5962 17.8086 15.8557 0.171335 1.51576 0.163412
26.8321 17.8113 18.3431 2.24671 0.487641 -0.0386607
15.496 21.7889 17.1117 0.0393964 0.270044 0.360147
13.4684 21.303 18.9441 -0.49857 1.23911 -1.6889
19.9488 21.8481 17.265 -0.125511 0.401143 -0.841041
19.8021 23.286 14.14 1.42272 1.85998 -2.65246
17.6921 21.099 19.3707 -0.33941 -1.07871 0.285758
17.4663 22.808 15.3125 2.0767 0.677415 -3.42443
19.4463 23.4495 19.9111 -0.722494 1.30638 -2.29956
19.3176 24.748 16.3278 -0.857053 2.63759 -1.33862
17.5918 23.5124 17.996 0.775967 0.948436 -1.15315
20.2451 20.4388 20.5657 -0.788091 0.573993 1.05603
22.0767 22.5255 19.2126 -0.283003 -0.142835 -0.265062
21.9735 23.9266 15.7703 0.647338 1.54277 -0.776969
21.8315 21.3094 14.8709 -1.38497 0.336257 -1.84231
23.6243 24.3493 17.7505 -0.887332 0.602084 0.272579
24.4651 20.4266 19.878 -1.33473 -2.37315 -1.0699
23.4316 21.7978 16.8742 -0.103147 0.800752 -1.26972
25.6398 22.514 18.6812 -0.938397 0.0916732 -1.59546
27.1208 20.6239 19.8259 1.00047 -0.747127 -1.45592
18.7972 25.8561 18.8299 2.01475 -0.694768 -0.883937
21.1016 24.7395 18.2153 -1.36757 -0.195478 -0.993458
25.6705 25.099 19.4019 -0.330607 1.55768 1.16334
20.1578 16.1494 24.1997 0.200035 0.435825 0.234071
19.2179 14.7792 22.1193 -0.583099 -1.92697 -0.797653
21.7913 15.8032 22.0821 1.56241 0.741055 -0.348998
15.9867 18.7838 24.0179 -0.398161 1.02499 0.441125
15.7474 20.1573 21.1449 3.67833 -0.0583946 1.03419
13.4004 19.5053 22.8223 -1.30328 -0.59408 1.40031
14.9825 17.2712 21.5937 1.24177 -0.696438 -0.869358
18.4826 18.237 25.2136 0.85728 1.35636 -2.57352
18.2039 19.5098 22.7495 -1.50351 0.244101 1.02707
19.8356 17.3389 21.4928 -0.0807105 -1.04429 -1.41838
17.6405 16.926 23.0423 -2.54047 -1.09083 -0.260195
21.0488 17.7962 26.322 1.54149 -0.0956598 4.01507
20.8906 18.9426 23.532 3.29742 0.100094 1.74567
22.7742 19.6193 25.6971 -0.329968 -0.128279 0.84451
22.8008 16.8931 24.3971 -2.72626 -0.476573 -0.684301
22.7542 18.3852 21.2035 0.472252 -1.383 -0.178728
24.2313 18.9611 23.4638 0.287258 0.559832 -1.14125
24.2995 16.3927 22.1822 0.298855 -0.626847 0.525947
26.0661 18.4751 20.8605 -1.18534 1.12443 -0.917844
15.3292 21.4278 23.7403 1.35737 1.97643 0.417729
15.5454 22.753 19.9375 0.449915 0.859989 -2.23672
13.5309 21.6517 21.5536 1.43801 -0.860178 -0.994445
20.0949 20.3455 25.7383 1.56174 -0.276383 -0.644946
19.7727 21.6495 23.2718 -0.70304 0.42189 -0.0998501
17.6715 20.9628 25.0033 -2.4928 -0.252936 2.23104
17.3637 22.3828 21.8919 -1.05644 -0.866246 2.39592
19.5266 23.1984 25.5965 0.855924 0.235829 1.12583
16.8594 23.5419 24.4712 -2.47766 -0.955103 -1.31851
22.3736 20.8844 22.4676 1.49967 0.442592 -0.547831
21.9889 22.071 24.8549 -0.0579458 -0.493729 -0.486994
21.6497 23.9042 21.9983 -2.50194 -0.516149 1.0536
24.5776 21.415 24.5413 0.747366 -0.285478 0.564306
24.3497 22.9572 21.1975 -1.73968 -1.39095 -1.63235
26.2494 23.3096 23.558 0.6933 0.330546 2.91111
26.013 21.0292 22.2191 0.0536153 0.398434 0.0891757
27.0987 23.3053 20.7688 2.88517 -1.32055 -0.572895
14.8829 23.9248 22.4218 1.11037 -0.259643 1.89213
17.1059 26.0618 23.1183 -0.326367 -0.270021 0.952199
19.0949 24.301 22.6626 0.487588 -3.57925 1.7063
16.8435 24.8959 20.7006 0.729441 0.511416 -0.27031
18.7888 25.6755 25.3751 -1.37432 0.611396 2.49624
18.3269 27.2883 21.1975 -0.153244 0.325737 0.0499446
21.2738 25.2791 24.4718 0.449295 -0.571484 0.22745
20.6705 26.1053 20.787 -0.606354 -1.92492 -1.79166
23.7585 24.26 23.6599 1.34098 0.687916 2.16942
23.0787 25.4118 20.3239 -0.226892 -0.188907 -1.30554
19.8434 27.092 23.1474 -1.47948 0.442442 -0.0287614
22.5779 26.4594 22.6571 0.216692 0.27579 0.125634
25.6664 25.4176 22.1001 -0.123748 1.02793 -0.903691
ITEM: TIMESTEP
2000
ITEM: NUMBER OF ATOMS
100
ITEM: BOX BOUNDS ss ss ss
1.3309893821128362e+01 2.7043819368284748e+01
1.3430814735443713e+01 2.7170582023123721e+01
1.4147155473356166e+01 2.5660479535904322e+01
ITEM: ATOMS x y z vx vy vz
17.547 15.6733 15.7994 2.18025 0.0442412 1.61736
17.0137 17.4766 17.478 -1.56246 1.92769 0.0672452
19.0719 13.8114 17.4196 3.07478 2.14253 1.87211
19.9154 16.3107 16.8496 -0.767187 1.41753 -1.61123
21.8577 14.4354 17.4261 1.57777 -1.14045 0.426342
22.9624 17.1306 16.7434 0.784958 -0.407929 -0.488709
24.4296 15.179 17.5417 0.467523 -1.85484 0.940033
25.4869 17.4231 16.8295 1.45512 2.10989 0.409982
15.4423 22.031 17.0848 0.534171 1.49491 0.100618
18.952 20.5946 14.6674 -1.43905 -0.989448 0.463306
18.3291 17.87 15.2222 0.159654 -2.00455 -1.14332
17.6291 20.2458 16.9734 -1.92972 1.72257 -0.49833
21.0413 18.6486 15.4739 -1.07832 0.28537 0.714689
20.262 21.6508 17.225 0.0670254 0.552577 0.524763
21.5398 21.3229 14.7737 0.690816 -0.579057 1.56699
23.5955 19.4598 15.5374 1.49715 -1.17031 0.592415
25.245 19.9552 17.6415 1.40785 0.273336 0.449017
23.4785 21.9182 16.529 1.11277 0.0142021 0.899593
17.6937 22.4618 15.6085 -0.952759 0.899316 -2.69105
19.8095 22.9753 14.2526 -2.40157 0.150821 -1.50202
19.2091 24.4993 16.3248 -1.80983 0.7009 2.98017
21.6355 23.7453 15.9123 2.81661 -1.38746 1.24075
23.6534 24.3287 17.8029 1.10362 0.671336 -1.07826
16.2085 14.6676 17.9728 -2.62147 -1.02706 0.206963
15.0396 17.0292 19.099 0.180494 -0.891038 -0.288136
18.1641 13.2034 19.9222 -1.61134 -2.36217 -0.621245
16.5223 15.4531 20.6059 1.06144 0.237485 0.121923
18.5968 15.8044 19.0625 0.250266 0.282197 -1.43902
20.7447 13.9072 19.4569 2.21481 -1.22056 -1.39295
21.6372 16.8392 19.139 -0.645918 -0.283929 -0.291068
20.0378 17.4009 21.1742 0.425531 0.107479 0.78397
23.4512 14.7975 19.9327 -0.766652 -1.6623 0.0809303
26.1905 15.5848 19.2633 2.8662 -0.652511 -0.504012
15.3237 19.6867 18.2811 2.09839 1.52255 -1.7316
13.3136 19.5788 20.2166 0.439162 0.845234 2.46174
17.2386 18.0464 20.3384 -1.10277 -1.27603 0.18208
13.4731 21.622 18.6749 -1.79737 0.140501 0.192119
15.6575 20.1907 21.2983 0.648418 -2.52684 -0.443009
13.3481 22.0229 21.464 1.33322 -0.491159 1.50131
19.5703 18.6298 18.3026 -2.5376 -0.9428 -1.77646
22.4124 19.6048 17.9739 -0.26986 1.3576 0.252639
18.0156 20.9855 19.6729 -1.24242 0.466 -0.0252075
20.5897 20.2038 20.3442 -1.13529 -0.000157368 -0.557096
24.4135 17.5808 19.3876 2.1017 -0.280149 1.73732
27.2091 18.003 18.7983 0.748327 1.92322 0.0822628
24.3951 20.2305 20.2489 1.44102 -0.498364 -1.82601
27.1562 20.835 19.6251 0.392492 -2.22737 -1.04707
22.8291 18.4287 21.3489 -0.0399171 -0.460031 -2.65094
26.4091 18.358 21.0893 0.31167 -0.978068 -0.0557206
17.8422 23.2703 18.1704 -1.48232 -0.13217 -1.75148
15.5547 22.571 19.9406 0.500681 1.30304 -2.29342
17.5704 24.4301 20.6843 -2.43814 1.14704 0.95331
19.8593 22.8028 20.742 -1.01594 1.34227 1.11379
22.5259 22.2445 19.2715 -0.254153 0.136681 2.47998
18.5858 25.7882 18.5665 -0.267671 1.79238 -0.307598
20.5922 24.0112 18.5351 -2.16941 1.10872 -1.94675
18.042 27.1354 21.0074 -1.306 0.0849394 -0.00731691
20.2695 25.8924 20.6213 -0.948404 0.253276 -2.50701
25.1411 22.5663 18.7108 3.6978 -0.808383 0.00661552
25.6902 24.9797 19.8103 -0.448768 -1.04536 -0.822473
24.3516 23.1654 21.3922 0.257685 -1.36613 0.748481
27.1624 23.2546 20.8924 0.517762 -1.05215 0.780883
22.863 25.1879 20.1518 2.51271 -1.90584 0.643163
15.1436 17.4814 21.8254 1.27712 0.675191 -0.113192
17.7007 16.8271 22.8776 -0.922329 -0.16258 0.436973
20.1111 16.4485 23.7903 -0.199609 0.99514 0.429112
19.4078 14.765 21.5182 -0.439423 -2.62142 0.529717
21.9854 15.6818 22.0438 0.0432477 -0.517761 -2.22179
23.0751 17.3618 24.085 -3.0272 0.19512 -2.17764
24.5383 16.4537 21.9101 0.614157 -2.42356 0.148597
15.9482 19.0412 24.1599 0.344989 1.04932 -1.03842
13.3849 19.4463 22.8672 -4.37998 0.241487 0.585556
15.0704 21.6074 23.5568 0.887636 -1.55804 0.817036
17.7111 21.2096 24.638 -1.47999 -0.244723 0.414053
17.2747 22.3479 22.3049 -0.157796 0.556269 0.245934
18.5706 18.4602 24.6544 1.99982 -1.18714 1.91267
18.1874 19.5805 22.3174 -2.56653 -0.645148 -1.59726
21.2539 17.7694 26.0488 1.43538 -0.614992 2.93859
21.1871 19.1244 23.3999 -1.4692 -1.65026 0.13889
20.2075 20.2536 25.7454 -0.321676 -0.965407 0.789881
19.9678 21.6997 23.2294 -0.254938 0.989109 -0.0809306
22.118 22.2742 25.0373 -0.0632939 0.215475 -1.65157
23.2261 19.7818 25.3725 -0.16857 1.63998 0.79469
24.7365 19.227 23.1217 0.222367 3.63542 -0.738531
22.9133 21.2969 22.659 0.0742741 1.66263 -3.69513
24.8725 21.8422 24.4485 0.599878 -0.36657 0.0129887
26.3281 21.1062 22.2641 0.877353 -1.03417 -0.629136
16.8145 23.6225 24.512 0.470468 0.350559 3.83454
15.154 23.9175 22.4409 -0.702273 -0.340469 -0.331572
16.9463 26.0981 23.1034 -0.759037 0.93265 0.522208
19.3313 23.1508 25.5915 -1.18591 1.83935 0.440041
21.8047 23.8497 22.4977 -0.214487 0.591379 0.711844
19.0937 24.4149 22.8744 2.54451 0.279964 -1.46984
18.5256 25.7145 25.536 -0.878279 2.78798 3.80711
21.1592 24.9867 25.0058 -0.82356 -0.0964923 -0.130028
19.5045 27.1449 23.2337 2.32251 -1.69358 -1.3316
21.9846 26.3088 22.7333 -1.14849 -0.454972 -0.510251
26.0987 23.8742 23.371 -0.834246 0.58162 1.22898
23.7125 24.4524 24.1789 0.454501 1.9535 1.78141
24.6519 25.7351 22.239 0.941088 0.571949 -0.700281
ITEM: TIMESTEP
3000
ITEM: NUMBER OF ATOMS
100
ITEM: BOX BOUNDS ss ss ss
1.2946479944370871e+01 2.7425347572971116e+01
1.3492793323447913e+01 2.7387669034502817e+01
1.4494099696481799e+01 2.5600021892347677e+01
ITEM: ATOMS x y z vx vy vz
17.7623 14.9663 16.2251 0.00292985 -1.53762 -1.1647
16.1908 17.331 17.3522 0.232988 -1.167 -0.514082
20.043 13.3465 17.1264 0.63402 -3.03852 -0.971001
20.4942 15.6214 15.9017 0.190388 0.135513 0.0437337
22.7006 14.4437 17.4176 -0.376232 -2.63406 -1.78894
18.6217 17.428 15.816 -1.748 1.02706 -0.0492131
23.14 16.4241 16.3084 -1.92649 -1.02089 1.88965
25.4156 15.2721 17.857 -0.0982637 -0.85151 0.578254
25.6362 17.2858 16.1805 -1.27565 0.468928 1.84723
15.5966 21.6022 17.6506 -2.41267 0.715302 -0.857781
17.2513 19.859 16.955 -2.17207 -0.602341 0.127383
19.3558 20.0008 15.4943 0.0584287 -1.54515 1.41807
21.1917 18.0456 15.903 -1.89879 -0.660226 -1.01175
19.945 21.6363 17.92 -2.31857 -0.0979046 -0.564826
21.9306 20.9482 15.9489 -1.04272 1.18521 2.58025
19.2058 18.9042 18.3179 -1.57132 1.24232 -2.20305
22.377 19.6884 18.1336 1.78493 -0.212633 -1.97283
24.107 19.3416 16.1836 1.2261 -0.93082 -2.00213
26.2197 19.7664 17.6384 -0.1851 1.38174 0.589545
24.3539 21.8506 16.9517 2.59925 -0.843178 0.573849
17.7267 22.2242 16.0186 -0.306071 -0.110932 1.33029
17.7651 23.4284 18.3912 -1.50482 -0.130801 -3.41902
20.1611 22.1688 14.5362 -1.15172 -1.73178 1.81508
19.3868 24.3235 16.5416 -0.493648 -3.42862 0.193141
22.0336 23.5631 16.4255 0.276356 -1.23793 -0.987892
23.7187 24.2088 18.2305 -0.0886771 0.0946437 -1.2209
15.4191 14.8621 17.998 0.291649 -4.19098 0.0584283
14.3531 16.839 19.5309 -2.00036 0.63414 -0.97881
17.8086 13.7514 18.8749 0.695044 -0.211816 -0.707272
16.5661 15.423 20.4726 0.0649061 2.37682 -2.28159
14.9072 17.5051 21.9893 -0.0925474 0.63704 -2.68343
18.6839 16.2087 18.4064 -0.489677 -1.38169 1.72067
20.6951 14.3298 19.1971 -0.0436603 -0.60067 0.298677
21.472 16.8494 18.5487 0.835254 -0.889736 0.103605
19.9733 17.5075 20.674 -1.17629 0.305252 -2.20447
18.9007 14.9338 21.3328 -1.65138 -0.259598 0.880433
21.8928 15.6955 21.7275 1.26481 -1.55764 2.52574
23.6279 15.4354 19.8761 1.01378 -0.528274 -0.848814
26.2631 15.8914 20.3434 -1.12908 2.47825 -1.14928
24.3999 17.7311 18.661 -1.64025 0.175233 -2.53989
24.3468 16.5776 22.0501 -0.840375 3.26377 0.40518
15.2598 19.3128 19.0024 0.0552225 0.680786 -1.21502
13.2179 18.9996 20.6539 1.17313 -0.897952 1.11304
17.1198 17.8379 20.114 -1.2783 -2.88812 0.0764882
13.576 21.1787 19.3683 -0.970655 0.483026 1.45403
15.4331 20.3631 21.4955 2.48009 0.357257 1.43158
13.105 21.986 21.8538 4.18447 1.3226 -1.67423
17.6003 21.0516 19.4823 1.25998 2.29533 0.114051
20.4108 20.3349 20.4778 3.33047 2.08337 0.157515
22.7321 18.3363 20.6527 -0.337941 0.632481 0.453136
22.3885 22.2644 19.5338 1.36672 1.68911 0.395476
27.1338 17.4041 18.5034 1.3174 0.0117479 -1.37152
24.486 20.3809 19.8445 -0.237464 0.667367 1.67471
27.521 20.6318 19.6189 2.27493 -0.172632 1.26849
26.1763 18.5271 20.6378 -0.290387 -2.16409 3.01883
26.0288 22.6613 18.8998 -1.09446 -0.0296726 -0.107658
15.3147 22.7627 20.0552 -0.646469 -0.354431 1.01952
17.2769 24.8067 20.8423 -1.1568 0.48913 1.53983
17.9953 27.3803 21.3292 -0.852553 -0.89286 3.17957
19.503 23.1718 20.4704 -1.13426 1.51081 -1.00485
18.849 25.9553 18.5867 -0.186747 0.353668 -1.41564
21.0263 24.8175 18.6107 0.730477 0.161173 0.565778
20.2624 26.0395 20.9754 0.419991 1.21321 1.10088
25.6594 25.2736 19.5704 0.511693 1.53214 1.38821
24.4371 23.3926 21.2051 -0.156143 -0.153328 1.45596
27.3506 23.7988 20.7706 1.78501 2.05453 -0.197982
22.8772 25.7254 20.5674 -0.034786 -1.18647 -0.504877
17.3807 17.0752 22.7932 0.7023 2.7711 0.774493
19.9348 16.471 23.4668 0.568821 0.225138 0.608795
22.5872 17.5107 23.7545 1.10185 1.47824 0.3841
15.8702 18.8222 24.2021 -0.575898 -0.399256 0.167774
13.3121 19.7475 23.1539 -4.07626 -0.531593 -2.01093
14.9242 21.8339 23.8892 -1.69117 -1.33999 1.05721
17.4935 21.0514 24.7551 -0.00705679 1.50172 0.303039
17.1316 22.43 22.0869 -2.11201 1.42214 -1.8816
18.4554 18.3093 24.8174 3.55591 0.20042 -2.06416
18.0274 19.5601 22.2477 1.00784 0.0216537 -2.24451
21.0075 18.0251 25.6382 0.312995 1.0815 1.16734
20.6622 19.1209 23.0121 0.0421457 2.11891 0.332712
20.1165 20.4469 25.5517 -0.0209142 -3.04916 -1.29838
19.7066 21.7638 23.0435 -0.364834 0.761986 -0.313926
21.8676 22.3038 24.4923 0.673344 -2.49083 2.15385
22.5597 20.9461 22.1989 1.37591 2.44375 -0.447872
22.8681 19.9266 24.9701 0.831922 -2.12513 -1.65693
24.618 19.2035 22.9103 -0.730525 0.649941 0.372374
24.5164 21.7215 23.943 2.62452 0.817494 -1.1791
26.219 21.35 21.8711 -0.576415 -1.66433 0.0218231
16.9164 23.835 24.4072 0.88115 1.48793 0.211539
14.8513 24.1032 22.4713 -0.372599 0.746379 -0.644486
16.8003 26.0513 23.3635 1.16667 0.690115 1.88147
19.3764 23.0567 25.4553 -0.940427 0.406199 0.2214
21.6035 23.8754 22.1368 1.02126 -0.91153 -1.02195
19.1911 24.6142 22.9415 1.50685 -1.41436 1.62879
18.5487 25.7678 25.3351 -2.4569 1.36844 -0.0437092
21.356 25.1331 24.7502 -0.901945 -0.661834 -1.28606
19.5608 27.3389 23.5838 -1.66667 0.272044 1.02256
22.2163 26.5761 22.9441 1.31647 0.866014 0.508499
26.3874 23.635 23.1332 4.57713 -0.693018 1.90747
23.9142 24.3975 23.8039 1.43069 0.293804 -1.94149
25.1375 25.8816 22.1457 -2.25315 0.13904 2.53702
ITEM: TIMESTEP
4000
ITEM: NUMBER OF ATOMS
100
ITEM: BOX BOUNDS ss ss ss
1.2816822004719397e+01 2.7921092525746442e+01
1.2908669983885106e+01 2.7275279909426271e+01
1.4984232151549664e+01 2.5609457842809729e+01
ITEM: ATOMS x y z vx vy vz
17.815 14.7065 16.883 -1.6628 0.414699 -5.14283
16.1767 16.8409 17.4091 2.4615 -0.203507 0.534023
15.7035 14.498 18.3451 1.41307 -2.11349 0.166235
14.0321 16.4866 19.3795 -0.298911 1.23089 0.439348
19.7712 13.1296 17.3356 -0.686626 2.244 -1.51527
20.352 15.5029 16.5866 0.996208 0.101747 -2.30298
22.5304 13.8129 17.1992 -0.235523 1.78795 0.200215
18.6379 17.4653 16.1991 0.360558 0.138934 -0.0845286
18.1159 13.3759 19.1854 -0.00264981 -1.48933 -2.09859
18.7968 16.3289 18.7916 0.253517 2.73317 1.27202
20.8248 14.3418 19.3378 -2.41786 -0.808043 -0.608641
21.4989 16.9239 18.81 -0.228488 0.520974 0.0486059
23.2149 16.2612 16.7595 -0.993183 2.61066 -1.2324
25.2884 14.7442 17.3215 -1.77831 3.74266 1.64575
25.8753 17.165 16.839 -1.76686 0.0967992 -0.0291676
23.569 15.1456 19.3137 -2.14783 -1.65781 1.21611
26.5708 16.2711 19.2124 0.367369 0.68371 0.757691
24.251 17.8531 18.8938 2.91572 -2.16964 0.280003
28.0499 18.2261 18.5661 -2.07911 -0.674834 0.404927
15.244 21.7011 17.8542 -3.53868 0.220838 -2.22052
16.774 19.4442 17.0927 1.95609 0.352311 0.894282
17.4688 22.1255 16.4892 -0.272845 -0.465207 0.348777
14.566 18.8642 18.3219 0.0324592 0.368952 1.32621
17.0551 18.2985 19.6772 0.729683 -0.276206 3.81674
12.8838 20.9235 19.1943 1.56253 -0.753179 0.770106
17.7569 21.0618 18.9463 1.38021 -2.63602 0.877158
19.2976 19.8985 15.9689 1.43234 0.855172 -2.20855
21.4065 18.0866 15.9662 0.0320018 -0.35166 1.76055
20.0921 21.6372 17.7569 1.47435 -2.88695 0.999371
21.9296 20.7559 15.6667 -1.21307 -1.8947 -1.91386
19.5574 19.0181 18.4678 1.39851 -3.87911 -1.58428
22.1539 19.8024 18.543 1.76689 0.985899 0.442628
19.8769 22.4677 15.179 1.0358 0.370175 -3.38984
22.2754 22.7278 19.4024 1.33172 -0.336186 0.376329
23.85 18.9398 16.4953 1.71184 0.542782 -0.568527
26.0273 19.7395 17.7544 -1.31983 -0.904816 -0.564697
23.836 21.4898 17.3735 0.578551 -2.92383 -0.429912
24.4626 20.4158 19.9711 -1.24854 4.20272 -0.575599
27.8591 20.6323 19.7184 -1.27339 1.72411 -1.41508
25.9917 22.4727 18.5811 -0.237212 1.71602 0.726314
17.1186 23.7581 18.6196 0.553685 -0.415621 -0.966378
14.6886 23.3486 20.2744 -0.94949 -2.81899 -1.97304
19.0742 24.3683 17.0807 0.474152 1.08494 1.67299
21.9502 23.5941 16.5485 1.23821 -1.94669 -0.45879
19.5729 23.3484 19.9897 -0.20076 -0.498937 0.315185
18.7799 25.9959 19.3296 0.793169 -0.278084 2.31654
21.3686 25.236 18.5846 3.08566 0.415099 -0.9301
24.0971 24.4102 18.2004 -0.125553 -0.308843 -0.137152
26.0757 25.2371 19.7226 1.70657 0.12451 -1.30138
16.5633 15.5824 20.4321 -2.68616 1.02228 -0.259045
15.0718 17.644 21.6889 -1.29161 1.06689 1.61429
17.5156 16.9355 22.4965 -0.0541144 0.0147975 1.14178
19.1728 14.9867 21.2031 0.482956 0.273712 2.1303
22.0544 16.0169 21.5394 -2.495 -1.86831 0.66869
20.1424 16.4246 23.2725 0.559309 -0.165933 -1.9309
22.7783 17.2408 23.7418 -0.076953 1.76013 1.00066
24.6694 16.7479 21.3489 0.16773 1.50772 -1.56611
12.6946 18.7697 20.3576 1.33981 -0.874463 1.61003
15.3737 20.4083 20.6658 0.356901 -0.522644 -1.85968
12.8741 21.6313 21.4955 1.47297 -0.386643 0.0316026
15.7753 18.701 24.0523 1.3416 -0.239179 1.04511
13.5503 19.5439 22.6177 -1.46227 -1.97739 -1.1438
15.2517 21.333 23.3349 -0.443201 0.206767 0.283772
17.664 20.7282 24.3342 -0.722719 2.46734 -0.33612
17.2057 22.5241 21.5311 -1.37603 -0.473791 -1.49547
19.6605 17.9472 21.0209 -3.25805 -2.19849 1.21771
20.3438 20.7522 20.6618 0.00128358 -1.64543 -2.1056
22.3179 18.6322 21.2816 -0.768261 1.75504 1.80753
18.3444 18.0595 24.6668 -1.10677 -0.618561 2.12259
17.7693 19.9413 22.0167 -0.695816 -0.273692 -0.289978
20.697 18.0967 25.6273 0.554123 1.23838 0.763072
20.4563 19.4002 23.1533 -0.0252225 -1.08504 1.53554
19.9212 20.7128 25.7716 -0.476154 2.78602 -0.0138231
19.5119 22.0804 23.0075 -2.68865 -0.36354 -1.97952
21.8227 22.4614 24.6167 -0.831507 -0.159828 1.8579
22.54 21.6044 22.1936 1.0019 0.26784 1.03195
22.6284 19.9322 24.5647 -0.176432 -3.25946 -0.0841207
26.5448 18.7228 20.5558 1.70481 -1.68226 -1.03126
24.5751 19.1936 22.675 1.09301 2.6654 2.08933
24.4897 21.6441 24.197 2.0888 -0.838942 -0.0324306
26.3698 21.0662 21.8848 1.78009 -2.20714 -2.3507
16.9338 25.2509 21.0426 -1.30853 -0.76397 0.0794506
17.1695 23.5417 24.3001 -0.0566744 -1.44588 0.669946
15.0494 23.8427 22.5864 2.78955 0.706241 1.57342
16.7488 26.1392 23.4842 -0.728454 1.46982 2.44276
18.4533 27.4876 21.8598 2.69043 0.471715 1.92926
20.7169 26.7351 20.9343 0.506549 3.96837 0.0666185
19.452 23.154 25.5127 -2.24885 1.72413 0.174303
21.5774 24.0438 21.7603 0.632879 1.68489 -0.32564
19.3026 24.895 22.572 -3.90233 -0.741489 0.270083
18.6036 25.6086 25.2538 -0.391826 0.206487 0.418624
21.163 25.1648 24.7702 -1.94617 -1.69281 0.505225
20.1613 27.4901 23.7199 0.0802464 -2.04046 -0.120979
22.4865 26.726 23.026 -0.27016 0.176642 -2.05508
24.6456 23.1269 21.0841 3.92451 -1.29478 -1.05208
27.262 23.2822 20.753 -1.57986 0.554663 1.1812
23.4378 25.4909 20.5824 -0.171165 2.65204 -1.22647
26.3662 23.265 23.2337 -0.232237 -0.00592586 -1.27624
23.7834 24.2369 23.5509 -0.0287502 1.57068 0.783176
25.6717 25.6746 22.3274 0.565614 0.0300091 0.533126
ITEM: TIMESTEP
5000
ITEM: NUMBER OF ATOMS
100
ITEM: BOX BOUNDS ss ss ss
1.2856378180401348e+01 2.7879672519646409e+01
1.3246169285221196e+01 2.7384874904451522e+01
1.5081756358041426e+01 2.5643897887975641e+01
ITEM: ATOMS x y z vx vy vz
17.6212 14.8739 16.4104 -1.46084 0.19772 -1.38272
16.3283 16.9127 17.635 -2.98922 -0.0818016 -1.27635
16.0294 14.4803 18.2108 0.625176 -1.1815 -0.526845
14.3124 16.7193 19.2203 0.974051 -1.6714 -0.729114
19.6346 13.4161 17.2501 -2.75498 -1.18535 0.806094
20.5621 15.5357 16.4645 1.09325 -1.1675 0.00471811
22.4482 14.0606 17.3692 1.83868 -0.769428 -2.21475
18.4394 17.5364 15.9456 -0.0811187 1.98207 -1.56647
18.0172 13.2748 19.5886 2.44923 0.599029 -2.6135
18.8458 15.9026 18.6372 1.5694 -2.28353 2.32228
20.7761 14.1637 19.4234 -0.548639 -0.725778 0.590161
21.751 16.8783 18.741 1.88854 0.797482 -1.23464
23.105 16.2872 16.3077 0.520977 -1.40089 0.817236
25.341 15.2826 17.4635 -1.80669 1.30581 1.3756
25.9257 17.5406 16.2627 -1.62813 -0.313617 -1.64154
23.5633 14.8832 19.6679 -1.49183 -0.171072 0.390817
26.0684 15.6032 19.9992 2.03791 -1.79103 2.35416
24.6624 17.6268 18.6579 -1.37329 1.12871 -2.16364
15.4202 21.6633 18.0042 2.14861 1.48083 -0.539887
16.7632 19.6469 16.8712 -1.89292 -4.40551 -1.35118
17.6536 22.2868 16.6637 -0.514108 1.14667 -0.885031
14.5487 19.1494 18.4691 -0.48977 -0.175804 1.38732
16.9827 18.1582 19.891 0.316126 1.45176 0.465549
13.0125 21.3197 19.3107 -1.7588 0.99271 -0.302945
17.7954 20.9715 19.3421 0.278433 3.1617 0.661925
19.2119 20.1856 15.5783 -1.12519 -0.0873499 -1.2584
21.1104 18.2003 15.8803 0.953606 -1.27418 2.79891
20.109 21.6103 17.7903 1.80941 -0.729755 0.828624
21.7821 20.8261 15.6134 2.02313 0.738986 0.926068
19.3956 18.7469 18.0456 -0.335626 -0.383086 0.180818
22.2768 19.3856 18.1218 0.669433 -0.359923 0.66426
20.1066 22.6096 15.1498 -0.0918841 -0.874092 -0.918456
22.1899 22.5987 19.5528 -0.69248 0.959107 1.018
27.4601 17.4755 18.6886 -1.72077 1.10525 -0.530777
23.9721 19.1326 15.8793 0.35285 -2.06435 0.64104
25.9443 19.8363 17.7529 0.765272 0.661766 -2.20967
23.923 21.5482 17.6067 -0.744629 -0.0498349 0.42992
24.3726 20.3201 20.0229 3.17282 1.54074 -1.59313
27.4521 20.3006 19.8291 -1.02512 0.069374 1.37779
17.351 23.8193 18.7438 1.2105 2.32151 0.217747
14.6036 23.0236 20.4745 1.84003 1.53031 -1.54132
19.3968 24.45 17.0474 -0.474556 1.15125 1.71693
21.9361 23.2485 16.7648 -0.883118 0.318408 -0.430831
19.4336 23.3327 20.2794 -2.99579 0.619443 -0.0104198
18.6781 25.8423 19.7073 -0.108634 -0.850707 2.33624
21.2979 25.1082 18.7964 -0.333575 0.858828 -1.61188
25.9863 22.289 19.1483 -1.52733 -1.31891 0.255584
23.9699 24.3008 18.2504 -1.10457 -0.833944 -0.267748
25.9432 25.2295 19.7821 0.0715479 -2.8037 0.454861
16.6475 15.4452 20.2953 0.136542 -0.421402 0.379534
14.8787 17.326 21.4718 -1.41054 -0.812092 -0.339259
17.649 16.8974 22.2185 -2.27248 1.49996 -1.44845
19.2778 14.9824 21.349 2.11538 -0.847735 -1.57912
21.9414 15.6302 21.6315 0.930261 -0.342342 0.0097024
20.1908 16.533 23.4762 0.100333 -1.22221 2.2137
22.6722 17.4065 23.615 1.15922 -1.00823 -0.586377
19.9586 17.5595 20.7913 -0.968514 -1.28455 -0.155409
24.3994 16.4511 21.8427 0.117251 -0.185169 -1.32459
12.6991 19.1106 20.6322 -0.823368 -0.970673 0.610992
15.229 20.4293 21.0281 -1.11123 -1.44223 0.671929
12.8572 21.4225 22.1012 -0.0971904 0.877793 -0.152945
16.1358 19.1385 23.3251 0.705986 -1.79672 1.34826
13.4737 19.1917 23.2206 2.35648 0.646079 -1.56609
14.9863 21.6279 23.7293 -3.56832 -2.16359 -0.541158