ITEM: TIMESTEP
0
ITEM: NUMBER OF ATOMS
111
ITEM: BOX BOUNDS ss ss ss
1.3620899388895751e+01 2.8576110519746411e+01
1.2819121068443398e+01 2.8038668367666610e+01
1.3847912406035942e+01 2.6942087930695251e+01
ITEM: ATOMS x y z vx vy vz
18.5949 16.6208 17.3083 0.0856814 -0.0517836 -0.774133
13.625 16.553 17.7928 -1.18739 -0.474252 -0.117382
23.5039 15.5885 17.9225 3.89861 -0.678098 0.170559
20.701 14.722 17.8252 -1.03666 -0.414027 1.73884
20.4299 15.8929 15.208 -0.681293 0.262536 0.149358
22.536 13.9942 15.7248 -1.10962 -1.14893 0.763348
18.3237 17.7917 14.6911 -0.821217 0.113277 1.62214
16.6711 19.9377 15.8224 1.19326 0.0865601 -0.0280665
15.9744 17.1724 16.242 1.17936 1.30568 -0.561577
14.3217 19.3183 17.3733 1.27968 0.0556195 -0.405568
22.0944 20.2526 16.9861 -1.52023 -0.562986 -2.43501
19.2916 19.3861 16.8887 -1.96187 0.593967 -0.462392
21.3977 17.4873 17.4056 0.2978 1.4639 0.337985
21.1266 18.6583 14.7884 -0.950247 0.225632 0.89964
23.2327 16.7595 15.3053 0.508013 1.00481 0.244234
24.2006 18.3538 17.5029 -0.13455 -0.53425 -0.828316
23.9294 19.5248 14.8857 -1.68226 0.33473 -1.18517
26.1152 20.3075 16.5941 0.804931 -0.405186 1.95615
17.6389 21.5321 18.0201 0.0165584 0.771278 0.0750082
17.3678 22.703 15.4029 -1.42264 -0.116745 0.480118
15.0184 22.0837 16.9537 1.31686 -0.396733 -1.40474
19.9883 22.1514 16.4692 -1.74109 1.66139 0.430738
19.7172 23.3224 13.852 0.676489 0.883591 -1.11406
22.174 22.9341 18.1775 2.33949 -0.268497 0.650224
21.9029 24.1051 15.5603 1.10444 0.772463 -0.882451
21.8233 21.4236 14.3689 0.209274 0.630418 1.32436
19.0204 20.5571 14.2715 -1.76141 -0.973447 1.16317
24.009 22.2063 16.0772 -1.20964 -0.467439 -1.24997
26.1948 22.989 17.7855 -0.303831 -1.09526 1.07603
16.7998 24.2764 17.7503 2.73937 -1.06855 -0.597302
19.1492 24.8958 16.1994 -1.01293 1.31187 -0.947646
21.335 25.6785 17.9077 0.171972 -0.1789 -0.205073
24.0886 24.8878 17.2687 1.14957 -1.51558 -1.66469
16.5166 14.8305 21.4764 -1.14514 0.138195 0.0235724
16.2455 16.0014 18.8592 -0.928396 -2.25717 -0.798201
13.8961 15.382 20.41 0.506238 -0.734243 0.306522
21.6689 16.3164 20.0228 0.609176 2.55009 -3.47216
19.1371 14.2789 22.5427 1.81408 -0.681606 -0.879312
18.866 15.4498 19.9255 0.197697 -1.43793 0.390347
20.9722 13.551 20.4424 1.57822 1.03975 0.00153376
22.8072 12.8232 18.342 -0.130501 2.57544 -0.248259
23.775 14.4176 20.5397 0.930302 0.0562849 0.701686
17.91 20.3611 20.6373 -1.48797 1.29732 0.824224
15.5607 19.7417 22.1882 -1.38548 0.302014 0.268873
17.2133 17.5958 21.0568 0.206455 0.916387 1.06768
16.9422 18.7667 18.4396 0.314184 -0.107104 0.652598
14.5928 18.1474 19.9905 0.771916 0.794409 0.852581
20.5306 19.8095 21.7036 1.96422 -0.914451 -0.500588
22.6367 17.9107 22.2205 -0.768727 -0.133203 -0.390735
22.3656 19.0817 19.6033 1.09643 0.582803 1.11048
19.8339 17.0442 22.1232 -3.16297 -2.09394 -0.648276
19.5627 18.2152 19.5059 -2.4139 -0.391079 -0.637355
24.5513 19.8644 21.3116 0.181291 0.738653 -1.21147
24.4717 17.1829 20.1201 0.457794 0.589102 1.53133
26.6574 17.9656 21.8285 -1.40469 -0.436672 2.24736
26.3863 19.1365 19.2113 -0.25227 1.5288 1.16942
28.572 19.9192 20.9196 -0.409581 -0.509919 0.36189
15.2895 20.9127 19.5709 -0.183551 0.299787 1.57217
17.071 23.1055 20.3675 1.85357 -0.730686 -0.037007
14.7216 22.4861 21.9183 1.32284 0.518358 1.21172
14.4505 23.6571 19.3011 -0.331268 -0.510748 -1.74609
20.2594 20.9805 19.0864 -0.179851 1.84835 -1.77493
19.6915 22.5539 21.4338 0.0635954 -0.285037 1.26839
19.4204 23.7248 18.8166 0.509668 0.0795257 -0.354537
22.4452 21.7632 20.7947 -0.0454144 -0.605155 0.552246
24.6309 22.5458 22.5031 -0.655705 0.30261 -2.01445
24.3597 23.7168 19.8859 -1.54532 -0.591307 -0.531614
24.2802 21.0353 18.6944 -1.2973 0.624815 0.606315
26.4659 21.818 20.4027 0.0623933 -0.513613 -0.412325
28.3009 21.0902 18.3024 1.21368 0.456753 1.11945
18.5813 26.4692 18.5468 -0.265487 -0.827393 -0.108682
16.2319 25.8499 20.0976 0.718461 -0.962697 1.16363
13.8825 25.2305 21.6485 1.47303 -1.39936 -2.39153
18.8524 25.2983 21.164 -0.552716 0.269079 2.37501
21.6061 24.5075 20.5249 1.71507 0.0326898 -0.825909
20.767 27.2519 20.2551 0.736791 0.205523 -1.15101
23.5207 26.4612 19.616 -1.22781 -0.48576 -1.30026
22.9527 28.0346 21.9634 -0.293821 -1.42141 1.27893
23.7918 25.2902 22.2332 -0.448939 -0.190936 1.19308
17.4845 16.4248 23.674 0.144313 -0.836207 -0.601135
20.105 15.8733 24.7404 -0.676064 -1.60606 -0.414002
21.94 15.1454 22.64 -2.10931 2.00577 0.0452113
24.7428 16.0119 22.7373 0.512057 0.0118381 1.72254
18.4523 18.0192 25.8717 0.987475 0.83215 0.0884403
18.1812 19.1902 23.2545 1.4556 0.391148 0.310212
15.8318 18.5708 24.8054 1.09855 -0.68629 0.0184359
14.864 16.9764 22.6077 -0.0363783 -0.959267 1.06061
21.0728 17.4676 26.938 0.978647 0.112857 0.827815
20.8017 18.6386 24.3208 0.854803 -0.0106412 -0.247284
20.2338 20.212 26.6682 0.710936 -0.61926 -0.263059
22.9874 19.4213 26.0291 0.964413 -0.535995 0.787014
22.9078 16.7398 24.8377 -1.03278 2.01003 -2.88164
24.8224 18.6934 23.9288 -1.5522 -0.855358 -2.20702
17.6133 20.7636 25.6019 0.736974 1.90233 -0.499834
17.3421 21.9345 22.9847 0.734764 -1.16695 1.7871
14.9927 21.3152 24.5355 0.160906 1.13441 0.566388
16.7742 23.508 25.332 0.787942 1.33955 -0.109807
14.1537 24.0595 24.2657 -0.571063 0.000700423 -0.163489
19.9626 21.3829 24.051 0.728449 -0.223104 0.571928
22.7163 20.5922 23.4119 0.885729 -1.00129 1.18965
19.3947 22.9564 26.3984 0.174918 -2.42541 0.210101
19.1236 24.1273 23.7812 1.09649 1.53063 -1.96246
22.1484 22.1656 25.7593 -0.177451 0.634273 -0.918656
21.8772 23.3366 23.1421 -0.882221 -0.263008 -1.89744
24.902 21.3749 25.1203 -2.3461 -0.654142 -2.09726
24.063 24.1193 24.8505 -0.480217 -1.03764 -1.37276
26.737 20.6471 23.0199 0.651097 -0.934193 2.63932
16.5031 24.6789 22.7148 -0.333336 -0.605755 0.0479668
21.3093 24.91 25.4895 -1.8501 0.695456 1.72444
21.0382 26.081 22.8723 -0.667765 1.41597 -0.384036
23.2239 26.8636 24.5806 -1.16385 -0.248938 1.78804
ITEM: TIMESTEP
1000
ITEM: NUMBER OF ATOMS
111
ITEM: BOX BOUNDS ss ss ss
1.4228377382281893e+01 2.7797698752892362e+01
1.3730283391447433e+01 2.7266115097244086e+01
1.4069646260235313e+01 2.6556059291904372e+01
ITEM: ATOMS x y z vx vy vz
18.5168 16.9806 17.213 1.85953 -0.701741 0.948802
14.1946 17.0738 17.9735 -0.32031 -1.77775 -0.21451
23.5284 15.8332 17.9934 -1.04063 -3.60941 -0.629107
20.3876 14.6729 17.9525 -0.50601 -1.39987 -0.161391
20.2377 16.2413 15.2497 -1.32212 -0.463396 0.318176
22.2932 14.5882 16.1796 0.454058 -3.10744 -1.86457
18.3691 18.1312 14.5926 1.7954 -0.652209 -1.12782
16.6971 19.9809 15.5652 0.219165 1.08966 0.754305
15.9574 17.3516 15.9448 -0.996234 -0.964691 -0.447106
14.4716 19.6004 17.0163 -0.170065 0.63009 -1.4433
22.2403 20.4363 16.6416 -1.00319 1.64637 -0.0446042
19.3676 19.4238 16.5928 -0.241336 2.71975 0.166002
21.4117 17.3609 17.4093 0.554386 0.785321 0.172378
21.1676 18.8158 14.6574 0.866197 -1.58329 -1.84547
22.9477 16.9917 15.1088 1.07902 0.631826 -2.68843
24.2297 18.4438 17.0908 -2.05271 -0.106859 1.08793
23.7351 19.6256 14.5469 0.393804 -1.06573 -2.06607
25.6898 20.5437 16.4956 -0.458156 0.209339 0.115992
17.7505 21.6309 17.5136 1.58836 -0.955766 -0.648615
17.404 22.6813 14.9414 -1.31048 0.605074 0.579347
15.3903 22.2805 16.3742 -0.905128 1.08136 -1.09804
19.9653 22.3553 16.0312 0.343726 1.87894 0.585377
19.6656 23.4071 13.5546 -0.386925 0.348303 0.128069
21.9679 23.0205 17.758 -0.298844 -0.49363 -1.90693
21.7271 24.2461 15.136 0.630611 0.402484 -2.84011
21.904 21.5489 14.0453 -1.14634 -0.915359 -1.17594
19.1665 20.759 14.0043 0.395826 -0.534731 -1.82539
23.8535 22.3771 15.6131 -1.30578 0.601516 -2.09004
25.9437 23.2953 17.5093 0.896392 2.60857 -0.337379
17.0199 24.2414 17.4771 0.4019 -0.380349 0.701996
18.9789 24.8709 15.9383 0.735602 0.293331 0.802787
21.1463 25.6529 17.5409 0.13683 1.08283 -0.677403
23.7389 24.9485 16.7714 0.692428 0.124 -2.06375
16.8117 14.8752 21.7293 -0.851757 -1.39828 -0.688073
16.5223 15.9741 18.8415 -0.785616 -0.785144 -2.02422
14.4583 15.9457 20.3569 -2.651 -1.15035 -0.812719
21.7417 16.2109 19.9211 0.188776 -0.406026 1.90481
19.2064 14.2247 22.9844 -0.421945 -0.217372 1.41229
18.9153 15.3375 20.2423 -0.809721 1.53557 -0.417857
20.9264 13.7265 20.7381 0.154291 -1.38809 0.0463772
22.4901 13.2704 18.6694 2.28615 -1.11184 2.82923
23.6091 14.4726 20.6572 2.87706 0.029458 -0.480257
17.7476 20.3565 20.5989 0.664714 -1.24324 -0.246422
15.5666 19.4199 22.5752 0.166972 -0.363514 -0.535488
17.128 17.5717 20.9879 1.4064 1.01123 -0.00930487
16.6398 18.5863 18.3235 1.03377 1.55188 -1.44513
14.6049 18.5396 19.9431 -0.878622 -0.107987 0.554099
20.4874 19.925 21.9816 0.41436 -1.78157 2.46734
22.625 17.992 22.478 -0.110633 0.632836 -0.0492107
22.498 18.8713 19.5097 -1.26496 0.477203 -0.782952
19.632 16.8292 22.408 -1.39567 2.5227 -0.00295415
19.6349 18.2933 19.5563 0.107946 1.22128 -0.261071
24.7594 19.9129 21.4547 0.724219 0.179289 0.398432
24.7505 17.1032 20.5035 -1.62922 0.0529147 -0.0668415
26.5237 17.8772 22.1975 0.868186 1.85168 0.729053
26.2265 19.0434 19.3831 0.884451 -0.772163 -0.347469
28.0293 20.1809 21.0843 3.96666 0.368878 1.95868
15.3184 21.3125 18.9168 1.55138 -0.371994 1.20052
16.9381 23.0625 20.1117 0.148018 -1.17183 -0.519084
14.9256 22.1525 21.8613 0.250474 1.17774 1.83975
14.4686 23.7722 19.0367 -0.84515 -0.141532 -0.460839
20.2137 20.9723 18.9896 -0.30781 1.26837 -3.20806
19.5285 22.5987 21.4881 -0.298645 -0.493903 -0.551456
19.4106 23.7294 18.6551 -0.185601 0.836998 0.798934
22.5129 21.8856 20.7601 -0.0210853 0.397414 0.876509
24.7062 22.3554 22.9282 1.04897 -0.748553 -1.47308
24.2236 23.9893 19.3213 -0.460274 -0.262243 0.685702
24.4282 21.3904 18.6375 0.529228 -0.504756 0.256403
26.1319 22.0246 20.7188 -0.863745 -2.39129 -0.737043
27.2645 21.2403 18.7764 2.51555 0.101721 0.187228
18.5693 26.4166 18.1756 -0.800634 0.300108 -0.224469
16.2863 25.9118 19.8791 -0.180584 0.714034 0.634611
14.6033 24.6879 21.4429 -2.06866 1.64991 -1.60131
18.7579 25.6757 20.6019 -0.41459 -0.928716 1.13653
21.5184 24.7247 20.5459 -2.31098 -0.141356 -1.72566
20.813 27.3816 19.8569 -2.76088 1.95064 -0.284035
23.3424 26.4105 19.4102 -0.924225 0.378562 -0.994496
22.7205 27.207 21.8694 1.56427 -0.0990962 0.149968
23.8137 24.7446 21.8608 -0.0036924 0.883834 -0.562512
17.4299 16.2921 23.9358 0.723222 1.1011 1.77279
20.1144 15.933 25.1421 -0.104221 0.235098 0.0854668
21.868 15.2328 22.9512 -1.14054 -1.36356 0.584111
24.4885 16.0875 22.9784 0.541872 -2.01014 1.18431
18.5522 18.0108 26.1621 -0.078319 0.431793 -3.91546
18.2916 19.0262 23.4791 -0.779213 -0.604488 -0.793316
16.1209 18.5954 25.1105 0.372202 -1.02302 1.59752
15.2104 16.8497 22.7463 -1.30481 1.26034 1.37645
21.2156 17.3769 27.2849 0.318832 0.100229 1.27194
20.8518 18.5313 24.6871 0.632219 0.920303 1.08083
20.559 20.0156 27.0801 1.33707 -0.157736 -0.164411
23.0457 19.3454 26.1978 0.670068 -0.0299037 -1.44767
22.8252 16.6757 25.1321 -1.64874 -1.07362 -1.37184
24.6895 18.4191 24.2252 -0.0170885 -0.355595 -1.93499
17.8399 20.5164 25.8482 -1.44397 1.73549 1.8746
17.1075 21.8914 23.0387 0.872726 0.250081 1.63028
15.3776 21.0768 24.9498 -0.36359 -0.604308 0.423214
16.9803 23.2948 25.6881 0.496543 2.7045 0.459204
14.9638 23.7155 23.9476 0.368465 -0.95674 0.675323
20.0054 21.1488 24.4536 0.518293 -0.360864 0.734957
22.7769 20.6 23.6844 -0.305187 -1.51353 -0.147845
19.4818 22.6479 26.765 0.190306 -0.847687 0.863886
19.1308 23.8177 24.2626 0.723442 -0.501092 -1.27859
22.0202 21.9438 26.1138 0.226399 -0.888521 1.32121
21.7856 23.4039 23.3242 -1.13645 -1.81419 0.387766
25.0734 21.0948 25.2996 0.650008 1.30599 3.24154
24.0874 23.5762 25.1609 2.58685 -0.466921 1.04937
26.6615 20.4368 23.3867 -0.454482 0.18484 3.03212
17.0397 24.6362 22.5748 0.0739217 0.73613 1.42613
21.5004 24.4482 25.896 -0.650986 0.34469 2.22558
20.7213 25.7784 22.7636 -0.517786 0.139286 -0.0808602
22.9329 25.8281 24.1722 -1.04218 1.98212 4.11673
ITEM: TIMESTEP
2000
ITEM: NUMBER OF ATOMS
111
ITEM: BOX BOUNDS ss ss ss
1.4228377382281893e+01 2.7797698752892362e+01
1.3730283391447433e+01 2.7266115097244086e+01
1.4069646260235313e+01 2.6556059291904372e+01
ITEM: ATOMS x y z vx vy vz
18.5493 16.188 17.3878 -0.827345 0.148345 0.387726
13.7061 16.8538 18.0838 -0.658698 -0.205874 -0.602391
23.5935 15.5422 17.9844 1.29557 -0.718768 -0.575943
20.7423 14.6194 17.9 -1.92614 -0.747047 0.608853
20.1991 16.1201 15.2751 -0.38184 0.601133 0.616164
22.1155 14.4685 15.8892 -0.70261 1.07769 -1.8085
18.2248 17.8097 15.1105 -1.56685 0.0115777 -2.72096
16.7095 19.8716 15.9993 0.800867 0.531641 -0.889775
15.8735 17.3895 16.4653 -0.436779 0.0766232 -1.4632
14.3305 19.4971 17.4561 1.28109 0.347808 -1.82818
22.2828 20.3188 17.0544 2.06394 0.877626 -2.96592
19.4179 19.4948 16.8552 -1.54624 -0.261056 -2.51996
21.4049 17.6178 17.4134 0.0236304 2.30865 1.32161
20.8608 18.6297 14.7646 -0.627919 2.88549 0.264596
22.9224 17.1046 15.4817 0.308192 0.679259 -2.00462
24.5065 18.1902 17.5225 -1.20783 2.1598 -3.46005
23.8884 19.6083 14.9765 -0.778928 -0.462377 -2.40307
25.8583 20.2041 16.5642 0.398968 0.727539 -0.0664149
17.4926 21.493 18.1157 -1.85829 -0.628902 -0.670018
17.3273 22.6882 15.6815 0.036037 0.346721 -2.85755
14.9538 22.2019 17.1533 0.250297 2.43509 -1.68068
20.0432 22.095 16.5395 -0.113797 1.81419 0.708797
19.5023 22.967 14.184 -0.0658152 0.391757 -1.3226
22.3804 23.0973 18.0837 -0.856557 0.219913 -0.216922
21.8447 23.9979 15.6836 -1.23771 0.391784 1.57593
21.7437 21.3177 14.5546 0.655173 2.61259 -1.90829
18.8452 20.5292 14.4269 -1.00633 1.55514 -1.54202
24.0427 22.3061 16.0097 -0.886777 -1.02816 -1.38096
26.1313 22.9841 17.7361 0.79946 -0.0890868 -0.768878
16.6672 24.424 17.8251 -0.645959 1.82625 -2.44265
19.1272 24.8882 16.315 1.13235 1.5168 -0.523524
21.4025 25.7199 18.0082 -0.127768 1.28936 -1.05302
23.9715 24.87 17.1538 0.753937 -1.18235 -1.28037
16.8567 14.8829 21.3317 0.495124 -2.52393 2.05155
16.2406 15.9382 18.74 1.38698 -1.86199 -1.39216
14.4372 15.5212 20.4129 -0.759625 0.822776 1.09631
21.6666 16.2891 19.9596 -0.319451 0.418203 0.37431
19.2352 14.079 22.5145 0.823009 -0.880785 3.07315
19.0158 15.1865 20.0315 -2.63268 -2.15856 -0.680673
21.2459 13.6024 20.4517 0.700439 -2.6062 2.1409
22.8845 13.2357 18.2773 1.29279 -0.837387 -0.0136383
23.6398 14.5579 20.6312 1.52892 -1.31514 2.30652
17.6892 20.1079 20.6878 -2.01065 -2.08555 -0.435221
15.3787 19.5591 22.3228 0.403621 0.198518 2.76682
17.3536 17.2206 20.9097 -2.04925 0.00838578 -0.211556
17.0117 18.8623 18.405 -0.892741 0.698723 -0.978568
14.8603 18.1933 19.9831 1.03321 -0.114144 1.44925
20.5734 19.8511 21.7214 0.56734 -1.70783 0.16237
22.7953 17.8394 22.0428 3.30133 -1.72144 -0.318021
22.7103 19.1677 19.6659 -0.28908 -0.915574 0.273426
20.0319 16.7451 22.0287 0.729647 -2.67126 0.859274
19.6552 18.2831 19.6116 -1.74098 -1.39516 0.283293
24.9037 19.7112 21.0957 1.16372 -0.141028 -0.246284
24.7294 17.0329 19.9288 0.287744 1.89499 -0.456978
26.4715 17.7041 22.1291 0.539639 0.621527 0.161697
26.7725 18.7836 19.2516 1.22438 -1.91001 0.92463
27.7585 19.7643 21.3271 2.96288 -0.471087 -0.0847713
15.0769 20.8636 19.6033 0.372014 -2.01083 -1.75895
17.2065 23.4207 20.4662 -1.15691 0.341104 -0.312437
14.7212 22.5239 21.7388 -1.30774 0.615176 -0.621519
14.6586 23.5846 19.4228 -0.666164 -0.623557 -0.0462203
20.5298 21.0579 18.9191 0.937595 0.523839 -0.664173
19.8138 22.4805 21.0895 -1.63433 -1.7648 -1.33081
19.4108 23.7021 18.7023 0.713443 0.603441 -3.02927
22.3333 22.0428 20.6802 -1.66808 0.310348 0.448162
24.6346 22.6358 22.4978 -1.75606 0.447874 -2.43548
24.4338 23.7536 19.7938 -0.184523 -0.765404 -0.424745
24.4342 21.0679 18.7205 1.27438 -0.405612 -0.325684
26.642 22.2258 20.5671 1.5191 -1.926 -0.0739646
27.6205 21.0444 18.687 1.37137 0.209614 1.08758
18.6131 26.2517 18.7321 0.187319 1.3503 -1.44454
16.4021 25.8161 20.0132 0.296496 0.830217 -0.342382
14.3488 25.1144 21.5612 -1.83937 -2.83804 0.706071
19.002 25.4854 21.2188 0.777664 -1.54826 0.630695
21.5551 24.8161 20.5866 -1.42267 1.5522 0.0947858
20.687 27.3361 20.107 0.355204 -1.82534 -1.46889
23.5657 26.2416 19.4385 2.86142 -0.462156 0.417828
22.4954 27.221 21.7211 -0.835566 2.24318 1.52665
24.3615 25.3275 21.9934 1.49136 1.55528 0.689389
17.5486 16.1999 23.531 -1.04727 -0.406899 -0.53256
20.1041 16.1436 24.6076 0.728843 0.332161 3.61336
22.0174 14.9562 22.6169 0.603251 -0.707366 0.159002
24.5773 16.0077 22.6219 0.456675 -3.25809 0.0687431
18.3759 18.0931 25.6059 -0.82929 -0.227154 2.52041
18.0847 19.0814 23.0335 -0.362723 0.506483 1.01002
15.7209 18.6539 24.6034 -0.0579502 0.366793 3.68987
15.1353 16.7636 22.5887 0.903095 0.349444 0.4103
20.9158 17.8472 26.7068 0.741056 -1.16099 0.039862
20.7956 18.7033 24.0731 2.40655 1.18658 -0.0496267
20.2017 20.2807 26.5963 0.51989 -0.593429 0.762499
23.0329 19.2234 25.8997 -0.463329 -1.61127 0.962282
22.8349 16.8302 24.7598 -1.36547 2.0305 1.47709
24.7329 18.7885 23.8379 0.604689 -1.63684 1.64241
17.4083 20.6412 25.4401 1.72359 1.06056 -0.533223
17.0804 22.1082 23.0679 -2.40406 0.758415 1.89783
14.9828 21.365 24.4565 -0.664073 -0.535576 0.35146
16.7908 23.634 25.2054 -0.905393 -0.120641 -1.18931
14.6336 23.9789 24.0839 -2.45491 -1.16376 0.799601
20.047 21.4021 24.088 -2.44737 2.18251 1.59044
22.8049 20.6621 23.362 -0.567248 1.47096 2.07539
19.1146 22.8662 26.2176 0.60892 0.361074 1.60673
18.9389 24.0842 23.5906 0.623377 0.795122 -0.866769
22.1832 22.2089 25.7855 -0.358255 -1.50263 1.13415
22.0508 23.5998 23.2963 1.70285 0.82712 -0.533459
24.8101 21.3147 25.0916 0.761261 0.507443 -0.359619
24.049 23.9752 24.9336 2.00145 1.1229 2.41579
26.4582 20.7527 23.1785 -1.25866 -0.415274 3.74105
16.648 25.3706 22.6984 0.879839 0.569934 0.899403
21.0484 24.6109 25.4008 0.767694 0.494135 1.69406
20.684 26.3954 23.392 -0.436525 1.84336 -0.203642
22.9081 26.0621 24.0975 -0.182101 -0.693376 0.751501
ITEM: TIMESTEP
3000
ITEM: NUMBER OF ATOMS
111
ITEM: BOX BOUNDS ss ss ss
1.4477483681431879e+01 2.7847818213572449e+01
1.3550468772610142e+01 2.7521256999779279e+01
1.3786062767926946e+01 2.6896622532796759e+01
ITEM: ATOMS x y z vx vy vz
18.4825 16.8658 16.9177 -0.255025 -0.118085 -2.3721
14.5041 17.2595 17.9769 -0.179511 1.3445 1.76301
18.501 18.1192 14.4567 1.59058 -0.707423 0.282703
16.1624 17.1531 16.1678 -0.822583 -1.72039 -0.127099
20.0814 14.9135 17.871 1.8862 -2.34064 1.01663
20.2676 16.5274 15.2709 2.01977 -2.04657 -0.131571
21.8827 14.7619 16.3396 -2.03808 -2.37259 -1.76405
21.4963 17.5944 17.4117 1.41536 -2.38715 0.287041
23.151 16.9483 15.5475 0.2117 -0.680539 -0.265033
23.3674 15.5894 17.9887 0.334086 -3.27379 0.750749
16.9168 20.1439 15.4271 -1.79155 1.64297 -0.959099
14.6876 19.6669 16.8641 0.67119 0.131607 -0.329853
17.9156 21.8181 17.5594 1.07549 0.650621 0.522162
17.6152 22.7377 14.9999 -0.165638 0.247301 -0.161898
15.3473 22.4374 16.55 -1.99028 1.30759 -2.36034
16.8355 19.08 17.9887 -1.85214 -1.80964 0.222429
22.0838 20.2662 16.8805 -0.546357 2.11375 0.00851497
19.2798 19.5505 16.568 1.21209 0.134257 -2.00833
21.3511 18.8628 14.6875 -0.662972 -1.37908 0.832118
20.175 22.2763 16.1051 0.14797 -0.966985 -1.46034
22.0548 21.6143 14.2062 -0.0538905 1.32238 -2.73224
19.1058 20.7539 13.9924 -2.83245 0.18833 0.468427
24.2735 18.2844 17.2893 3.49886 -0.747112 1.86507
23.8326 19.789 15.0742 1.74605 -1.71693 1.22454
25.9565 20.2703 16.6022 2.5266 0.86673 -2.18835
23.804 22.2525 16.0921 -2.43408 -1.45063 1.14319
17.1882 24.2982 17.6987 -0.0749492 2.47338 1.0118
19.9109 23.3868 13.6704 1.29263 1.892 -1.24826
22.0365 22.9101 18.1639 0.998613 -1.54905 0.472704
21.8089 24.1601 15.2954 1.49658 -1.0233 -1.99518
19.0917 24.7523 16.0801 -0.0557759 1.66247 -2.17981
21.253 25.4246 17.7795 -1.47323 0.345766 1.46028
25.6888 22.8394 17.5999 2.03947 -0.408248 0.240177
23.7927 24.8234 17.4266 -0.367832 -0.439981 2.71069
16.7656 14.7599 21.5435 -1.32868 -0.727687 0.87556
16.6054 15.9618 18.7243 -1.19706 -1.30998 -0.549288
15.0083 16.3403 20.5238 -2.4006 -2.41581 0.847244
18.8232 15.5015 20.2539 -0.602902 -0.0263561 -0.0550792
17.2445 17.5843 21.4163 -2.447 -2.73403 1.35078
21.5852 16.1385 20.1259 1.41929 -1.58828 -0.144089
20.8394 13.8108 21.1538 -1.41624 0.481192 1.56823
21.9757 13.6337 18.7942 -0.530074 0.744934 0.565631
22.5402 17.7513 22.2614 0.941347 -0.830581 0.594727
19.9345 17.082 22.2695 0.368038 0.0324896 -1.00473
19.0744 18.2247 19.5368 -1.62923 -0.0922209 0.852545
23.6316 14.7494 20.8278 1.53189 -2.43842 0.653691
24.4677 17.034 20.1195 -2.25783 -1.06612 -1.1756
26.3381 18.1026 21.8331 2.67384 0.402995 0.759699
17.5413 20.3247 20.6029 -0.312929 -1.57236 0.689929
15.3002 19.0816 19.9535 0.994563 -0.51663 -1.6341
15.1741 21.476 18.7537 -2.08343 1.58256 -1.53265
14.9041 21.5175 21.5202 0.810946 -1.57351 0.285033
20.3394 19.6381 21.5927 -1.32308 -1.65465 -0.858077
22.1744 18.8495 19.6252 -0.0166848 1.2159 0.496261
20.0324 20.8354 18.9316 0.777055 0.0725112 -0.421617
19.4799 22.3292 21.3252 0.957226 0.564234 0.531004
22.0956 21.5579 20.7067 -0.0194628 -0.236454 -1.15563
24.3255 19.7875 21.3287 0.522416 1.52757 -1.02762
26.0689 19.1842 19.2798 1.77781 -0.280175 0.641949
27.8876 19.921 21.0405 0.876169 2.55103 0.297217
24.3298 22.5406 22.216 -2.60075 -0.255828 0.215748
23.9858 20.9873 18.6378 0.240445 1.66263 0.931876
26.347 22.1009 20.3718 1.88308 1.50154 0.733071
27.5646 20.9011 18.5062 1.4867 0.496101 -2.70981
16.8987 22.9831 20.224 -2.01914 0.730466 -1.20467
14.6999 24.0057 18.8817 -0.937573 1.32112 -2.67292
18.6067 26.3422 18.6135 0.888504 1.14205 -1.37664
16.3667 25.685 20.0502 0.489699 1.05677 3.20294
14.5737 24.0961 21.3096 -0.0861557 -0.498476 4.34962
18.7227 25.4223 21.1653 -2.01796 1.39303 2.2445
16.8848 24.6103 22.6942 1.62607 0.682056 3.0951
19.5567 23.7427 18.7065 1.09012 2.06904 -0.717699
21.5041 24.4985 20.584 2.55333 1.2552 0.537312
20.6015 27.043 20.4199 0.21522 1.40314 1.38208
23.3088 26.3777 19.7083 -1.00843 0.959762 -0.950406
22.4054 27.3699 22.0238 -1.6589 -0.364264 0.636745
24.2305 23.6129 19.6446 -1.94404 0.570178 -0.0277761
23.8028 25.3083 22.1401 3.11375 0.525792 -0.561279
17.9032 16.5648 24.2864 2.38665 0.0417155 -0.918251
18.7376 17.8831 26.4019 0.0537411 -0.566177 0.217655
15.0815 16.8558 23.2392 -2.31148 -0.45724 0.771107
19.2012 14.5603 22.882 -2.45802 -1.3796 0.643818
20.4636 15.9491 25.1729 1.85073 0.246573 -2.60633
21.9155 15.2243 22.9986 1.49882 -1.85665 -1.26005
21.5132 17.6581 26.9542 -1.43312 -0.36831 0.712928
22.9841 16.8392 24.8312 1.3826 -0.818596 0.411947
24.6212 16.2498 22.7893 -0.743864 -0.525297 -0.402719
15.3376 19.1312 22.6439 -0.789242 -0.257527 -0.468582
18.0399 19.133 23.5227 1.90204 0.143748 1.50559
16.1507 18.3662 25.3471 0.0285324 -1.96095 -1.43002
17.9124 20.5069 26.1745 0.755899 -0.885547 -0.0691869
17.2551 21.8413 22.8705 -1.62674 0.0295928 -0.122492
15.7222 20.7536 24.7962 0.00783741 1.18632 1.4974
20.7 18.6867 24.3442 -1.37538 1.03256 -0.161654
20.3653 20.212 26.7353 0.236526 1.49079 -0.872395
22.9604 19.5849 25.8299 -2.02117 0.96268 -0.449592
19.878 21.2488 24.179 0.806507 -0.03316 0.481137
22.6472 20.5428 23.421 -0.921428 1.89883 -2.34364
19.5939 22.706 26.4621 -1.77635 0.969836 -0.234052
22.1291 22.0792 25.5208 -1.08028 2.2437 -0.70407
24.741 18.7462 24.0323 -1.49436 -1.1255 0.00133854
24.9968 21.158 24.9746 1.71276 -0.641773 1.12702
26.2801 20.5771 22.9344 3.16482 0.110167 -0.547378
17.3299 23.2085 25.3535 1.0729 1.26935 0.776733
15.0309 23.0946 23.7955 -2.75852 0.349902 -0.639071
19.1942 23.9723 23.9649 -2.23997 1.28781 1.1464
21.8351 23.365 23.1388 -0.985408 1.77865 -1.13208
21.1759 24.5441 25.6861 1.38266 1.11758 1.37853
20.7402 25.9862 23.062 0.484277 1.3007 0.204088
22.8829 26.0261 24.4836 -0.717072 -1.0388 0.883233
24.0761 23.6531 24.5244 2.03884 -0.493335 0.0451499
ITEM: TIMESTEP
4000
ITEM: NUMBER OF ATOMS
111
ITEM: BOX BOUNDS ss ss ss
1.4126026963669432e+01 2.8123203738722829e+01
1.3693706506265414e+01 2.7460595658422076e+01
1.4081777404884292e+01 2.6762219650953664e+01
ITEM: ATOMS x y z vx vy vz
18.6981 16.6334 17.3889 -0.802439 1.40927 0.039095
14.2795 17.3362 18.4005 0.494197 0.643561 -0.800624
18.3563 17.8017 14.9981 -0.723298 -0.577584 -0.600617
16.1074 17.557 16.5603 -0.326473 -1.72974 1.98321
20.6068 14.6715 17.5792 -1.52097 1.50605 -1.13694
20.6493 16.2505 15.1917 -0.0924541 1.9507 1.48549
22.7256 14.4902 15.9645 1.90363 0.933845 1.18713
21.3766 17.3696 17.323 1.28972 1.93667 -1.03096
23.2098 17.2701 14.9918 -1.82968 0.822228 -1.78347
23.7673 16.1638 17.9816 -0.664327 -0.0790707 1.26582
16.6864 20.1965 15.7216 -0.993905 -1.0745 -1.38446
14.8042 19.7113 17.56 1.92338 -0.162371 0.744666
17.4088 21.3533 18.2051 -0.180793 1.5572 -1.53589
15.1872 22.2594 16.9088 -0.451914 -1.17206 0.394662
21.729 20.083 16.9831 0.945974 -0.411716 -2.62779
19.239 19.4263 17.106 0.317914 0.695552 1.16861
21.0702 19.1092 14.631 0.163363 -1.21269 0.0497443
19.8978 22.1837 16.2294 -2.26505 -0.698981 0.504541
21.639 21.4938 14.4289 2.11877 0.326386 -0.390073
18.9294 20.6407 14.3337 -3.36291 1.77663 -2.17956
22.0494 22.7045 18.0575 3.81008 0.647531 -0.906764
24.245 18.6403 17.3095 2.42053 0.375739 0.564724
23.6874 19.8212 14.7701 -0.454584 1.34056 -2.00043
25.8598 20.3955 16.4883 -2.13847 -1.4319 1.83423
24.0858 22.1569 16.0812 -0.0118767 -1.63663 0.397423
26.1893 22.8209 18.0493 -0.498017 0.403827 -1.29399
27.7001 20.7552 18.5206 0.307813 -1.26121 -0.925674
17.5038 22.8653 15.6745 -1.74023 -2.24307 0.00812765
17.0068 24.2283 17.8304 -3.14047 1.25157 -0.275628
19.692 23.477 13.9483 1.18728 0.525158 0.692761
21.8675 24.0114 15.5673 0.620952 -0.720493 -1.38178
19.2269 25.0558 16.1054 -1.20723 -0.294321 -0.598283
21.5164 25.6928 17.5071 -1.93194 0.399985 -1.01543
18.6363 26.3987 18.5359 -1.37571 -0.86963 2.81508
23.9833 24.5124 17.7161 0.262066 0.0527012 -1.61319
16.877 14.8395 21.4632 1.42249 0.0346905 -1.07009
16.5022 15.8914 19.0521 0.397802 0.0730698 -2.36582
14.6681 16.7415 20.8946 3.15592 -0.080325 1.12837
17.186 17.4506 21.3372 -0.772276 -2.84117 -0.235943
19.0988 15.1995 19.9468 -0.44941 -0.801784 1.75347
21.8352 16.3019 19.8841 -1.65602 -1.708 0.561533
21.2268 13.8529 20.6597 1.27834 -0.761841 -0.839712
22.8903 13.6903 18.7041 -0.570088 -1.34359 -0.928897
22.5594 17.8875 22.1503 1.09143 0.925488 0.665115
19.972 17.1278 22.1238 0.919711 0.803213 -0.563253
19.5646 18.2009 19.7166 -0.190468 -1.24092 -1.0628
19.1555 14.5566 22.5946 -0.0332388 -3.05589 -0.0344885
23.9237 14.6395 20.8622 0.424834 -1.06706 -1.51678
24.4599 17.1739 20.2263 3.50998 -0.960624 -1.01622
26.279 17.9257 21.938 -1.78849 -1.39231 -1.12465
17.1197 18.6618 18.6146 1.07418 -1.70998 -1.56051
17.1069 20.3777 20.6932 0.331227 -1.09913 -1.1314
14.6649 19.326 20.0288 3.49256 0.182056 0.130618
14.6621 22.0447 19.3056 -1.6379 2.79855 -3.42571
14.7895 21.5088 21.7857 -1.25893 0.508116 -1.34245
20.3909 19.7763 21.69 -3.15362 -0.279497 -1.43987
22.3117 19.112 19.3685 0.931023 1.89562 -1.37162
20.1622 20.9533 19.0153 -0.0780015 -0.434443 -0.649215
19.6173 22.3902 21.2877 0.219319 -1.39152 1.67441
22.2059 21.4578 20.586 0.0111265 -1.29804 -0.692741
24.4613 19.9266 21.1049 1.25116 -2.78421 3.59877
26.1104 18.844 19.1679 -0.788526 -0.965854 1.77552
27.9282 19.6506 20.9699 0.00790006 -1.08964 -0.840461
24.6077 22.3013 22.622 2.25161 -0.152876 0.805719
24.2456 21.353 18.5924 2.03867 1.33036 -2.76973
26.493 21.7146 20.5069 -2.7952 0.792429 1.74829
16.9052 23.1781 20.2279 0.800093 1.4315 0.296718
14.481 24.4191 18.5458 0.494978 1.49791 0.141792
16.1983 25.8289 20.1332 1.42944 0.932225 -0.916545
14.51 24.2605 21.143 1.45637 1.34947 1.82945
18.8419 25.0481 20.9766 0.0427359 0.699844 -2.19383
19.3807 23.7187 18.5973 -0.372824 -1.51736 -0.996898
21.5642 24.3219 20.2995 -0.358442 1.28998 -1.84375
20.9105 26.9605 19.8505 -0.365578 0.829052 1.07263
22.7525 27.4449 22.0098 -1.3462 0.865265 1.03181
23.1903 26.1904 19.6529 -1.79955 -2.04681 1.99517
24.4299 23.5974 20.1115 0.910627 1.45239 -2.08342
23.7543 25.0226 22.1379 -2.39152 0.889872 0.0472565
17.8491 16.4298 23.7779 1.11315 -0.378641 -0.86677
18.6416 18.074 25.8382 -0.360519 -0.77758 -0.267854
15.5053 16.493 23.2628 0.924223 0.644205 0.573224
20.3865 15.9715 24.9713 -0.0305088 -1.70925 0.26759
21.8489 15.3709 22.6816 -1.00984 -1.2989 0.813328
21.1146 17.443 26.8767 -0.297744 0.346046 1.97452
22.9398 16.8461 24.976 -2.30665 0.690691 0.0395236
24.5831 16.1573 23.0428 0.0691207 0.0578567 2.42647
15.1054 19.0513 22.8701 -2.68091 -0.091607 1.83874
17.8262 19.2237 23.1915 1.21193 0.23644 0.0988115
16.1347 18.2234 25.1459 -0.155306 0.0907585 0.213028
17.7667 20.5764 25.682 0.493704 1.80472 -1.42123
17.2651 21.9499 22.9716 -0.191376 0.0882674 -0.496186
15.1868 21.083 24.6718 0.658411 0.0343309 0.739557
20.6527 18.6131 24.3436 -0.478459 0.181501 1.78312
20.2298 20.1474 26.7459 0.810707 1.77527 1.69084
22.9036 19.3596 26.1797 -1.11307 0.0817434 1.67525
19.8066 21.231 23.8936 -1.10332 0.426348 1.55438
22.6386 20.3722 23.1643 3.99125 1.96817 2.50313
19.4193 22.9054 26.1792 -0.434245 1.94951 2.80626
21.9536 21.9484 25.5518 -0.0515089 0.707225 1.9868
24.7723 18.6321 23.9015 -1.25975 0.370074 -2.06353
24.6473 21.2379 24.9802 1.6033 -1.3144 2.27991
26.4373 20.6347 23.1203 -1.33215 -1.9821 0.227991
16.791 24.9431 22.633 -0.781832 0.888568 -2.23381
16.8861 23.2004 25.2701 0.824319 0.241899 -0.453554
14.9781 23.4121 23.38 -0.270717 -2.35562 1.57786
19.2455 24.1108 23.6124 0.256253 -0.21133 -0.0186121
21.8512 23.2212 22.894 0.944609 3.31526 0.0521767
21.1909 24.6741 25.279 -0.277204 0.762907 -0.0190079
20.8534 25.9309 22.5097 0.756296 1.64461 1.91947
22.9282 26.1827 24.3691 0.38542 -0.703103 0.0516735
23.8931 23.7881 24.6498 0.902268 -1.02127 0.853312
ITEM: TIMESTEP
5000
ITEM: NUMBER OF ATOMS
111
ITEM: BOX BOUNDS ss ss ss
1.4103868654573358e+01 2.7878521511629508e+01
1.3341160502233054e+01 2.7011322313873233e+01
1.3950954741410840e+01 2.6857918049786168e+01
ITEM: ATOMS x y z vx vy vz
18.3618 16.4651 17.1316 -3.20274 1.22846 2.07471
14.4522 17.467 18.1145 2.13512 1.53737 0.125164
18.4104 17.7816 14.8194 0.376567 1.27434 1.14914
16.0767 17.333 16.0918 0.721647 0.556826 0.137956
20.4115 14.8832 18.0113 -0.933016 0.0594789 1.20788
20.3482 15.6611 15.2503 -0.704864 -0.920241 1.94238
22.103 14.2272 16.2461 1.45921 -1.8756 -2.0029
21.1382 17.4202 17.3659 0.145156 -1.156 2.6781