ITEM: TIMESTEP
0
ITEM: NUMBER OF ATOMS
1139
ITEM: BOX BOUNDS ss ss ss
5.0059167494327470e+00 3.5784083250567285e+01
3.4191795230265116e+00 3.7370820476973471e+01
3.1997224975470866e+00 3.7590277502452942e+01
ITEM: ATOMS x y z vx vy vz
23.476 11.1935 6.99519 -1.04423 -0.969484 0.466624
21.2739 11.7031 5.2104 -0.489038 2.71091 0.363529
19.001 13.2179 6.12359 1.87438 1.18321 -1.15863
18.5468 15.879 5.12029 -0.358394 -0.0534837 -0.462099
20.7489 15.3694 6.90508 -0.624326 1.53251 0.785147
23.0217 13.8546 5.99189 -0.173749 -1.21211 -0.498662
20.8197 14.3643 4.2071 -0.842564 -0.526621 -0.729015
24.7696 16.006 6.77338 -2.01923 -1.189 -0.34917
14.0011 18.9086 6.94667 0.296429 2.66921 -0.432893
16.274 17.3938 6.03348 -0.7991 -2.45365 2.96428
15.8197 20.0549 5.03018 -0.706756 0.623868 0.232308
18.0218 19.5453 6.81497 -3.37897 0.207983 -1.11958
20.2947 18.0305 5.90178 -1.02876 -0.916739 -0.827191
18.0926 18.5401 4.11699 0.269457 0.647248 1.4059
20.3654 17.0253 3.2038 -1.33998 1.81248 0.563395
22.0425 20.1819 6.68327 -0.248576 0.8013 1.8795
22.5675 16.5157 4.98859 -0.581752 -0.672478 -0.816246
22.1133 19.1768 3.98529 -0.120045 0.0321328 -0.669943
24.3154 18.6671 5.77008 -0.0250447 0.101433 -0.760622
11.274 23.0845 6.85657 -0.26834 0.576979 -1.20798
13.5469 21.5697 5.94338 0.0258329 -1.9588 0.168847
15.2947 23.7212 6.72487 -0.123352 2.03254 0.88129
17.5676 22.2064 5.81167 -0.344688 -0.352906 0.959808
19.3154 24.3578 6.59317 -0.234904 -0.947325 0.608852
19.8404 20.6916 4.89848 0.295303 -0.882732 -0.0862344
21.5883 22.843 5.67997 -1.02905 -0.851216 -0.176522
23.8612 21.3282 4.76678 0.104743 0.460435 1.14631
26.0632 20.8186 6.55157 -2.42965 1.86564 -1.14006
25.609 23.4797 5.54827 -0.0851245 -0.487768 -1.79745
23.3362 24.9944 6.46146 0.326278 -1.95004 -2.00166
27.3569 25.6311 6.32976 -0.736402 1.11274 0.142763
15.3638 10.9253 9.95658 0.624619 1.67508 -0.144928
19.8387 8.90086 10.8282 0.785257 1.13134 0.0374781
17.6366 9.41053 9.04339 1.96103 -0.421473 -1.11356
19.3845 11.562 9.82488 -1.148 -0.0321218 -0.343634
19.4553 10.5568 7.12689 0.9976 -0.230409 -0.0700666
23.8594 9.5375 10.6965 -1.10923 1.02602 1.91151
21.6573 10.0472 8.91169 -0.437563 -0.582254 1.92299
27.8801 10.1741 10.5648 0.613898 -1.54496 0.609759
25.6781 10.6838 8.77999 -0.534674 0.169153 -1.65206
12.6367 15.1012 9.86647 -0.726262 0.396674 1.98248
14.9095 13.5864 8.95328 -0.384111 -0.362759 0.470903
17.1116 13.0768 10.7381 0.414349 -0.7709 -0.0288048
16.6574 15.7379 9.73477 -0.132228 0.93553 -0.741805
17.1824 12.0716 8.04009 1.12686 0.800865 -1.48627
18.9303 14.2231 8.82158 -0.507964 -2.98259 -0.393411
16.7282 14.7327 7.03678 0.218713 0.450959 -0.457786
21.1323 13.7134 10.6064 -0.773946 0.630776 1.26324
23.4052 12.1986 9.69318 -0.455497 0.106795 1.70736
21.2031 12.7083 7.90839 1.36734 -0.553109 -0.552423
22.951 14.8597 8.68988 -1.71174 0.717976 -0.110583
25.153 14.35 10.4747 1.11981 -0.787277 0.0915453
27.4259 12.8352 9.56148 -0.563846 -2.07733 -0.769949
25.2238 13.3449 7.77668 -0.369061 -0.0591621 -0.894519
26.9717 15.4963 8.55817 0.0941604 -1.0005 1.57213
29.1738 14.9867 10.343 -0.237451 -1.32257 -0.685753
10.3638 16.616 10.7797 -1.44135 -2.30003 -1.40831
9.9096 19.2771 9.77636 -0.110919 -0.439469 1.89495
12.1825 17.7623 8.86317 1.23258 1.27371 0.463268
14.3845 17.2526 10.648 0.902854 0.0406955 0.439527
13.9303 19.9138 9.64466 -0.824314 -0.184034 0.47263
14.4553 16.2475 7.94997 -0.0712715 -1.80151 -0.817684
16.2032 18.399 8.73146 -0.907549 1.43107 0.945042
18.4053 17.8893 10.5163 -0.217383 0.139126 2.01234
18.476 16.8842 7.81827 0.858138 -0.62281 -0.633979
20.2239 19.0356 8.59976 -1.9614 0.167553 -0.434493
20.6781 16.3745 9.60307 0.322379 1.48757 0.510872
22.426 18.5259 10.3846 1.92577 1.9029 -0.66328
22.4967 17.5208 7.68657 -0.703486 -0.774753 0.584932
24.6988 17.0111 9.47137 -0.0945786 1.32911 -0.16126
26.4467 19.1626 10.2529 -2.19483 -0.337884 1.25129
24.2446 19.6722 8.46806 -1.84658 -1.56291 -1.17401
26.5175 18.1575 7.55487 -2.65925 0.172845 -0.249294
28.7195 17.6478 9.33966 -1.10948 0.291681 1.46519
30.4674 19.7992 10.1212 -0.389122 -2.00204 -2.24909
28.2653 20.3089 8.33636 -0.910319 1.88054 -1.17206
7.63674 20.7919 10.6895 -0.463617 -1.93847 -0.712915
7.18252 23.453 9.68624 2.01409 -0.324188 -1.56823
11.6575 21.4285 10.5578 0.277884 -2.61672 -0.0987497
9.45538 21.9382 8.77305 0.908742 0.474754 -0.28938
11.2032 24.0896 9.55454 0.55353 0.661452 -0.128707
11.7282 20.4234 7.85986 -0.1953 0.718939 -1.75174
9.00115 24.5993 7.76976 -1.0771 -2.07845 -0.369369
15.6782 22.0652 10.4261 0.719651 0.900286 0.317139
13.4761 22.5749 8.64135 -0.516805 2.35351 0.77047
15.7489 21.0601 7.72816 0.740742 0.0930917 1.64041
17.951 20.5504 9.51295 -1.02092 -0.63683 0.182015
19.6989 22.7018 10.2944 0.972675 0.554439 1.80585
17.4968 23.2115 8.50965 1.24078 -0.102923 0.168524
19.7697 21.6967 7.59646 -0.471099 0.11879 0.8827
21.9717 21.187 9.38125 -0.568353 -0.711551 0.47348
23.7196 23.3385 10.1627 -0.583201 -0.389103 1.61069
21.5175 23.8481 8.37795 -1.0059 -1.59609 2.21478
23.7904 22.3333 7.46476 -0.383246 -0.308601 0.722979
25.9925 21.8237 9.24955 -0.435032 -1.46179 -0.557095
27.7403 23.9751 10.031 0.057963 -0.754515 0.0851159
25.5382 24.4848 8.24625 0.583491 0.0951372 1.43006
27.8111 22.97 7.33306 -0.0331059 -0.69124 -1.3575
30.0132 22.4603 9.11785 0.138753 0.106802 -0.802517
31.761 24.6118 9.89934 -0.993804 -0.445724 -1.71096
8.93037 25.6044 10.4677 0.586929 -0.0335268 -0.340342
10.749 26.7507 8.55125 -0.35218 0.394312 1.48165
12.9511 26.2411 10.336 -0.564136 -1.13095 -1.347
15.2239 24.7263 9.42284 -0.181939 -0.092266 3.17891
13.0219 25.236 7.63806 -1.7783 1.09675 0.925869
14.7697 27.3874 8.41955 0.136273 0.578281 0.18473
16.9718 26.8777 10.2043 0.212472 1.23885 -1.08577
19.2447 25.3629 9.29114 0.751281 0.747902 1.76372
17.0426 25.8726 7.50636 -1.65388 -1.23718 -1.8414
18.7904 28.024 8.28785 0.694112 -0.433644 1.86565
20.9925 27.5144 10.0726 -0.710428 1.11788 -2.01505
23.2654 25.9996 9.15944 -0.911646 0.338163 -0.320176
21.0633 26.5092 7.37466 -0.095687 1.36994 0.47676
22.8112 28.6607 8.15615 -0.13515 -2.30061 1.52347
25.0132 28.151 9.94093 2.30381 -1.24024 1.1237
27.2861 26.6362 9.02774 0.465823 1.68498 -0.48648
25.084 27.1459 7.24295 0.798063 -0.693698 -1.68292
29.4882 26.1265 10.8125 0.407833 -1.06519 -2.63708
29.0339 28.7877 9.80923 1.67452 -1.5899 -0.921762
29.5589 25.1214 8.11455 -0.843259 1.24718 -0.711319
31.3068 27.2729 8.89604 -0.0712114 1.07521 0.984014
29.1047 27.7825 7.11125 -0.265292 -2.24144 0.211506
33.5089 26.7632 10.6808 -0.310689 -1.83066 -0.028247
12.4969 28.9022 9.33274 -1.03005 0.0573122 -1.91488
14.2447 31.0536 10.1142 0.49804 -1.96848 -0.610179
16.5176 29.5388 9.20104 -0.250418 1.33134 -0.819504
18.2654 31.6903 9.98253 0.463648 0.334756 -0.691691
20.5383 30.1755 9.06934 0.927418 0.717695 -1.37377
22.2861 32.3269 9.85083 -1.16182 -1.64117 -1.09118
26.7611 30.3024 10.7224 -1.91414 0.70466 0.287697
24.559 30.8121 8.93764 1.03828 -2.01516 -0.214061
26.8319 29.2973 8.02444 0.888598 0.843617 1.10677
20.0133 33.8417 10.764 -2.24656 2.12769 0.652771
16.2014 6.60824 14.6612 0.901154 1.51149 -0.0619675
13.9994 7.11791 12.8764 -0.465219 -0.798964 -0.504242
20.2221 7.24488 14.5295 -0.278153 -1.01811 0.824404
11.7265 8.6327 13.7896 -0.372415 1.71675 -0.0859042
11.2723 11.2938 12.7863 -1.49855 0.394514 -1.16803
13.4744 10.7841 14.5711 -0.192206 -0.558815 0.353839
15.7472 9.26934 13.6579 -0.337186 -2.53583 1.24398
13.5451 9.77901 11.8731 -0.0685846 2.08364 1.22199
15.818 8.26422 10.9599 0.718588 -2.18953 1.46503
17.4951 11.4208 14.4394 -0.10652 -0.483681 1.20239
18.0201 7.75455 12.7447 0.199491 0.408439 -0.694389
19.7679 9.90599 13.5262 1.47106 0.144654 -1.18685
17.5658 10.4157 11.7414 0.530573 -0.0320289 0.311633
22.0408 8.39119 12.613 -0.637534 2.28052 -0.509415
23.7886 10.5426 13.3945 -0.309917 0.287691 -0.498501
21.5866 11.0523 11.6097 -1.55902 0.482101 0.574908
24.2429 7.88152 14.3978 -0.641007 0.0548626 0.494809
26.0615 9.02783 12.4813 0.794121 -0.523659 1.02626
27.8094 11.1793 13.2628 -2.31824 1.35128 0.6333
25.6073 11.6889 11.478 0.437562 -0.0330989 1.32364
28.2636 8.51817 14.2661 -0.36514 0.227755 -0.0207065
30.0822 9.66448 12.3496 0.754145 -0.105366 1.01636
31.8301 11.8159 13.1311 0.162776 -0.915237 0.749645
32.2843 9.15481 14.1344 1.12916 0.438155 0.957214
6.72656 14.3234 14.6126 2.25606 1.27411 0.180174
8.54519 15.4697 12.6962 -0.835907 -0.0794507 1.17372
8.99941 12.8086 13.6995 -1.71182 1.75576 0.484748
10.7473 14.96 14.4809 0.809532 -0.415182 -0.913995
10.818 13.9549 11.783 -1.47948 0.491381 1.97381
12.5659 16.1063 12.5645 1.28102 -0.434874 1.32197
13.0201 13.4452 13.5677 1.55822 -1.68505 1.446
14.768 15.5967 14.3492 1.93393 -0.126305 -0.464089
15.293 11.9304 12.6546 1.07165 -1.8965 -1.30749
13.0909 12.4401 10.8698 1.10731 -1.73036 -0.431558
14.8388 14.5915 11.6513 0.949877 -0.879605 2.80052
17.0408 14.0819 13.436 -0.346058 -0.14396 -1.83638
19.3137 12.5671 12.5229 -0.388391 -2.22858 -0.835778
18.8595 15.2282 11.5196 -0.845407 0.269415 -1.75623
21.5158 12.0574 14.3077 -1.43362 0.277981 -1.16634
21.0616 14.7185 13.3043 1.89759 0.0681712 0.150571
23.3344 13.2037 12.3912 -0.538913 -1.13313 -0.798988
22.8802 15.8648 11.3879 0.281014 0.139339 0.604927
25.5365 12.6941 14.1759 0.263024 0.532778 0.0196029
25.0823 15.3552 13.1726 0.587105 -0.424876 1.41832
27.3551 13.8404 12.2595 -0.668129 -0.196654 1.57427
29.5572 13.3307 14.0442 -0.610774 1.37289 0.572393
29.103 15.9918 13.0409 2.45514 1.72008 1.32248
29.628 12.3256 11.3463 -0.924435 -1.07554 -0.706721
31.3758 14.477 12.1278 0.890963 1.29443 1.36365
33.5779 13.9673 13.9125 -1.2676 -1.26727 -0.422908
6.27233 16.9845 13.6093 -0.313212 0.477188 -0.562553
8.02019 19.1359 14.3908 -0.143315 3.54761 -0.575944
5.81811 19.6456 12.606 -0.0545297 0.2168 -1.11935
8.09097 18.1308 11.6929 -0.623711 -3.50023 -2.792
10.293 17.6211 13.4776 -1.21116 0.271608 0.353213
12.0409 19.7726 14.2591 -0.263758 -0.186197 -0.216026
9.83882 20.2822 12.4743 -2.65378 -0.187132 -1.72653
12.1117 18.7674 11.5612 0.381185 0.676343 -0.458343
14.3138 18.2578 13.3459 -0.812714 -0.29393 0.857082
16.1324 19.4041 11.4294 -1.14526 -0.430304 -1.24135
18.7887 16.2333 14.2175 0.969523 0.795276 0.219277
16.5866 16.743 12.4328 -0.399548 -1.34825 0.00216651
18.3345 18.8944 13.2142 0.477543 -0.774361 -0.443833
20.1531 20.0407 11.2977 -0.357536 -1.92953 0.0510401
22.8094 16.87 14.0858 0.138194 -2.60315 1.35407
20.6073 17.3796 12.3011 0.093638 -1.76479 -0.906366
22.3552 19.5311 13.0825 -0.897892 0.390934 0.0123504
26.8301 17.5066 13.9541 0.208916 2.18908 -0.803351
24.628 18.0163 12.1694 1.95073 -0.415116 -0.812988
26.3759 20.1677 12.9508 0.982356 0.465725 -0.957494
26.9009 16.5015 11.2562 -0.780946 -2.12778 0.231258
30.8508 18.1432 13.8224 -3.22968 -1.02997 0.484932
28.6488 18.6529 12.0377 -0.117232 2.41401 -1.08094
30.9216 17.1381 11.1245 -0.572846 -2.47706 -1.57556
32.5987 20.2947 14.6039 1.64973 1.69662 -1.49203
33.1237 16.6284 12.9092 -0.417512 -0.976631 -0.00665432
34.8716 18.7799 13.6907 0.282771 -0.220065 1.60674
32.6695 19.2895 11.9059 0.293176 1.68141 -0.069901
5.29311 23.3118 14.3007 1.02205 -1.18998 -0.454762
7.56597 21.797 13.3875 0.584363 -0.171139 1.64776
5.36388 22.3067 11.6027 -1.09402 -0.029965 -1.62879
7.11174 24.4581 12.3842 -1.10656 1.42708 -0.487739
9.31382 23.9485 14.169 0.0446724 1.23083 2.13212
11.5867 22.4337 13.2558 1.56445 -0.144092 -1.56214
9.3846 22.9433 11.471 0.183263 0.058781 0.38627
16.0616 20.4092 14.1274 1.19333 -0.892437 -1.28382
13.3345 24.5851 14.0373 -1.14491 -0.660242 0.687764
13.8595 20.9189 12.3426 -0.549235 0.634793 -0.25535
15.6074 23.0703 13.1241 1.41921 0.122294 -0.8208
13.4053 23.58 11.3393 -0.115397 -0.743321 0.0374788
20.0823 21.0459 13.9957 -0.172627 0.407677 -2.08545
17.8803 21.5555 12.2109 0.509822 -0.195975 1.53831
19.6281 23.707 12.9924 0.105667 0.949667 -1.56363
17.426 24.2166 11.2076 -2.59374 -0.475134 1.371
24.103 21.6825 13.864 2.17489 1.09473 1.48402
21.901 22.1922 12.0792 -0.619901 0.3929 -2.09124
23.6488 24.3436 12.8607 0.55409 -0.252666 0.775588
24.1738 20.6774 11.166 -0.604883 -0.784562 -0.00800582
25.8509 23.8339 14.6455 0.80276 -1.79183 0.323793
25.9217 22.8288 11.9475 -0.671789 -0.769607 0.488605
28.1238 22.3191 13.7323 0.342211 0.546342 -0.714443
29.8716 24.4706 14.5138 0.244963 0.647194 -2.53247
30.3966 20.8043 12.8191 0.904135 0.315658 0.390779
28.1945 21.314 11.0343 0.358706 0.637917 0.970435
29.9424 23.4654 11.8158 0.528162 -1.2555 -1.07938
32.1445 22.9558 13.6006 -0.293799 0.218737 -0.0357604
34.4173 21.441 12.6874 -1.278 0.97634 0.912983
32.2153 21.9507 10.9026 0.219248 -1.21542 0.262275
33.9631 24.1021 11.6841 0.504628 1.54057 0.148211
8.8596 26.6096 13.1657 0.892101 0.742482 1.42419
10.6075 28.761 13.9472 2.27241 -0.206392 0.0265625
11.1325 25.0948 12.2525 -1.7879 -0.678428 0.614725
10.6782 27.7559 11.2492 1.58485 -0.365904 0.57286
12.8803 27.2462 13.034 -1.87117 1.0724 0.60862
15.1532 25.7314 12.1208 2.36991 -1.52623 -0.364212
14.6989 28.3925 11.1175 -0.0519214 -0.470183 -0.274925
17.3552 25.2217 13.9056 -1.59642 1.42503 1.73163
16.901 27.8829 12.9023 -0.90086 0.472849 0.391656
19.1739 26.3681 11.9891 -1.01928 -0.277395 -0.146944
21.376 25.8584 13.7739 0.986881 -2.43797 -2.9797
23.1238 28.0098 14.5554 -0.177201 0.113531 -1.8637
20.9217 28.5195 12.7706 0.525661 1.22816 -0.183674
21.4467 24.8533 11.0759 0.952144 0.27505 1.6131
23.1946 27.0047 11.8574 -1.12725 -0.756638 0.652157
25.3967 26.495 13.6422 2.51554 0.330607 -0.021976
27.1445 28.6465 14.4237 2.27465 -2.32958 -1.31582
27.6695 24.9802 12.729 1.99215 -1.42426 -1.4288
25.4675 25.4899 10.9442 -0.0851659 -1.03802 0.390362
27.2153 27.6413 11.7257 -1.48054 0.910541 -0.0297314
29.4174 27.1317 13.5105 1.53049 -0.213712 -0.246447
31.6902 25.6169 12.5973 -1.01486 3.18534 -2.3851
31.236 28.278 11.594 1.24758 0.568972 -0.109209
33.8923 25.1072 14.3821 0.488231 1.06423 -0.587656
33.4381 27.7683 13.3788 -0.126884 0.254329 -2.01029
12.4261 29.9073 12.0307 1.76111 -0.521232 0.531444
14.6282 29.3976 13.8155 1.7896 -0.777742 -1.26776
16.376 31.5491 14.597 -0.593329 1.21382 1.97296
14.1739 32.0587 12.8122 1.202 -1.36457 -0.0171773
16.4468 30.544 11.899 1.0322 1.24654 1.10048
18.6489 30.0343 13.6838 -1.12081 -0.248503 -0.0207455
18.1947 32.6954 12.6805 0.502163 0.436876 -0.703766
18.7197 29.0292 10.9858 -0.87562 0.0974098 -1.07759
20.3967 32.1857 14.4653 -0.619135 2.35993 -0.919413
22.6696 30.6709 13.5521 0.815902 -0.239559 -0.836449
20.4675 31.1806 11.7673 1.9108 -1.02938 -1.65898
22.7404 29.6658 10.8541 2.0262 -0.902948 0.268145
24.4175 32.8224 14.3336 0.242445 2.55171 -1.32892
24.9425 29.1561 12.6389 0.857067 -0.178815 -1.14831
26.6903 31.3076 13.4204 -0.546945 0.394202 -0.452047
24.4882 31.8172 11.6356 1.76109 0.701936 0.615235
31.1652 29.2831 14.292 -0.308579 0.33417 -0.505877
28.9632 29.7928 12.5072 -0.422768 -0.0939208 0.683921
15.9218 34.2102 13.5937 0.144493 0.798743 2.13474
15.9926 33.2051 10.8957 0.741269 -0.308176 -1.03087
17.6697 36.3616 14.3752 1.07482 -0.801905 -0.548512
19.9425 34.8468 13.462 0.366443 2.53695 -1.10898
17.7404 35.3565 11.6772 0.48819 -0.784948 -0.340744
22.2154 33.332 12.5488 1.13251 0.572837 0.361411
9.90786 7.48639 15.7061 -0.481786 0.471326 -1.96441
12.1807 5.9716 14.7929 0.294208 1.25912 0.511298
12.1099 6.97672 17.4909 -0.667155 -0.359387 0.279874
14.3828 5.46193 16.5777 -0.964404 1.23287 0.825069
16.1307 7.61336 17.3592 -0.320284 -1.18084 0.114638
18.4035 6.09857 16.446 0.880877 -0.46155 -0.544067
16.5849 4.95226 18.3625 -0.977151 0.388022 -0.238632
22.4242 6.73521 16.3143 0.402395 0.279249 -2.16705
20.6056 5.5889 18.2308 -0.159944 -0.161028 0.688471
26.4449 7.37185 16.1826 2.60263 -0.36852 1.05247
24.6263 6.22554 18.0991 0.501722 0.519959 -1.08462
28.647 6.86219 17.9674 1.22331 0.699037 0.553736
7.63501 9.00118 16.6192 0.871169 2.03258 -0.323662
7.18078 11.6623 15.6159 1.36957 2.0103 -0.461953
9.38286 11.1526 17.4007 0.792753 -0.895577 1.72173
11.6557 9.63783 16.4875 -1.36798 -0.47668 -0.650954
9.45364 10.1475 14.7028 -0.089697 -1.31534 1.33842
9.83709 8.49152 18.404 0.590096 1.05405 0.206041
13.4036 11.7893 17.269 1.00868 -1.45232 -1.71868
13.9286 8.12303 15.5744 -0.91825 -0.00234038 0.986228
15.6764 10.2745 16.3558 1.81674 -0.458637 -0.350893
13.8578 9.12816 18.2723 1.23704 1.00011 0.604383
17.9493 8.75967 15.4427 -0.19591 -0.393556 0.0453234
19.6971 10.9111 16.2241 0.685101 -0.852773 1.02455
17.8785 9.7648 18.1406 -0.591532 1.68288 -0.795197
20.1514 8.25001 17.2274 1.4728 -1.61647 0.329635
21.97 9.39632 15.311 -1.15044 -0.217731 2.14333
23.7179 11.5478 16.0924 -0.17783 1.43707 1.1258
21.8992 10.4014 18.0089 0.298161 -1.61553 -0.807116
24.1721 8.88665 17.0957 1.69327 -1.11242 -0.759536
25.9907 10.033 15.1793 -0.902785 0.225265 0.546104
25.9199 11.0381 17.8772 0.990589 0.608309 -0.927647
30.0114 10.6696 15.0476 1.41913 -1.18097 -2.08514
28.1928 9.52329 16.964 -0.423964 0.924232 -1.63407
29.9407 11.6747 17.7455 -1.63093 -0.740301 1.90292
30.4657 8.0085 16.0509 -1.77373 -0.0296334 0.208878
34.0321 11.3062 14.9159 -0.0443606 2.33115 0.275192
32.2135 10.1599 16.8323 1.27763 -0.321477 0.125871
7.11 12.6674 18.3139 -1.40326 -0.617581 -2.15942
6.65578 15.3285 17.3106 0.882567 -0.126311 0.190962
11.1307 13.3041 18.1822 1.73476 -0.63277 0.0249826
8.92864 13.8137 16.3974 -0.00520303 -1.63355 -0.279759
10.6765 15.9652 17.1789 2.24019 -1.22335 2.26916
11.2015 12.2989 15.4842 -0.776642 -1.26248 -1.13857
15.1514 13.9407 18.0505 -1.24783 -0.518841 -1.90831
12.9494 14.4504 16.2657 1.77325 -0.947577 0.704395
15.2222 12.9356 15.3525 -1.54869 0.116642 -0.981963
17.4243 12.4259 17.1373 0.268997 -1.2814 0.768509
19.1721 14.5773 17.9188 0.0906302 -0.15394 -0.327803
16.9701 15.087 16.134 1.23997 2.43608 -0.602111
19.2429 13.5722 15.2208 -0.00702405 -0.864374 1.48912
21.445 13.0625 17.0056 -1.51528 0.95369 1.46943
23.1929 15.214 17.7871 -0.515438 1.47524 -0.48617
20.9908 15.7236 16.0023 0.546055 0.276396 -0.722876
23.2636 14.2089 15.0891 1.18554 0.855884 -0.290946
25.4657 13.6992 16.8739 0.708101 -0.45768 1.80561
27.2136 15.8506 17.6554 0.955069 0.140665 1.02966
27.7386 12.1844 15.9607 -0.781897 -2.08945 -0.238253
27.2844 14.8455 14.9574 1.05557 -1.16712 -0.0542304
29.4864 14.3358 16.7422 1.06031 1.01937 -0.0591877
31.7593 12.821 15.829 -0.921403 0.0682841 1.41922
31.3051 15.4821 14.8257 0.24304 1.6557 -0.415213
33.5071 14.9725 16.6105 -0.205847 -1.13328 0.919465
35.78 13.4577 15.6973 -1.01203 -1.19332 1.1597
35.3258 16.1188 14.694 -1.65576 -1.07286 0.840152
33.9614 12.3114 17.6138 0.582973 -0.800639 -1.55188
35.7092 14.4628 18.3953 -1.31963 -2.83235 -1.2753
8.40364 17.48 18.0921 -0.00205581 -1.22181 -0.72502
6.20155 17.9896 16.3073 -0.554707 0.500736 1.65482
7.94941 20.1411 17.0888 0.529634 0.606442 -1.19901
8.47441 16.4748 15.3941 -1.31807 1.79008 -0.145637
12.4243 18.1166 17.9604 1.58138 -1.6022 0.966451
10.2223 18.6263 16.1756 -1.76819 0.378049 0.487298
12.4951 17.1115 15.2624 4.50784 -0.957374 0.507395
14.6972 16.6018 17.0472 -2.79727 0.671731 -1.63727
16.4451 18.7532 17.8287 1.12399 -0.414706 0.80577
14.243 19.2629 16.0439 1.70789 0.392167 2.10004
16.5158 17.7481 15.1307 -0.0708524 0.781611 1.20151
18.7179 17.2384 16.9155 -1.40247 -0.0612029 -3.14302
18.2637 19.8995 15.9122 1.51428 -0.592886 -0.902349
20.4658 19.3899 17.697 1.36119 0.0807183 1.86128
22.7386 17.8751 16.7838 0.429527 0.830901 0.724421
20.5366 18.3848 14.999 -1.24579 2.59281 0.947318
24.4865 20.0265 17.5653 0.895483 1.91414 0.699967
25.0115 16.3603 15.8706 -2.11341 0.907906 0.594822
26.7593 18.5117 16.6521 0.198372 0.253739 0.766353
24.5573 19.0214 14.8673 0.962689 -0.787553 -0.91187
28.9614 18.0021 18.4369 3.58061 -0.662124 0.509871
31.2343 16.4873 17.5237 0.111059 -0.736134 1.46998
29.0322 16.9969 15.7389 -0.359889 -0.550849 1.88723
30.7801 19.1484 16.5204 -0.610037 -0.218584 0.732992
28.578 19.658 14.7356 1.233 0.730077 0.337321
32.9821 18.6387 18.3052 0.770417 0.725872 1.24429
35.255 17.1239 17.392 -0.289296 -0.322444 0.361649
33.0529 17.6336 15.6072 -0.677808 -2.19405 -0.193008
34.8008 19.785 16.3887 1.46778 -0.258677 0.512327
5.67655 21.6558 18.002 -2.26121 -2.04658 1.21103
5.22233 24.3169 16.9987 1.50596 0.00931109 3.55268
5.74733 20.6507 15.304 -2.15432 0.236606 -0.591543
7.49519 22.8022 16.0855 -0.0144805 0.756097 -1.52425
9.69727 22.2925 17.8703 2.78528 -0.83387 1.3856
11.9701 20.7777 16.9571 0.179708 0.799275 -0.833665
9.76805 21.2874 15.1723 0.25658 0.614497 -0.144734
11.5159 23.4388 15.9538 0.926937 0.914506 -0.237606
13.718 22.9291 17.7386 1.03457 1.61818 0.395867
15.9908 21.4143 16.8254 1.23709 0.485744 0.895539
13.7888 21.924 15.0406 0.514126 -1.5272 -1.20658
15.5366 24.0754 15.8221 1.06514 0.948661 -0.797896
17.7387 23.5658 17.6069 -1.71228 -0.49726 0.23652
20.0116 22.051 16.6937 2.03421 -1.52069 -1.64433
17.8095 22.5606 14.9089 0.811114 0.327241 -0.0495842
22.2136 21.5413 18.4785 0.235886 0.540095 -0.868247
21.7594 24.2024 17.4752 0.697344 -0.0222597 1.89705
22.2844 20.5362 15.7805 0.879385 0.335386 -1.75025
24.0323 22.6876 16.562 -0.285593 2.42259 1.02752
21.8302 23.1973 14.7772 -0.19613 -0.596511 0.538313
26.2343 22.178 18.3468 -0.820899 -1.80419 0.302019
26.3051 21.1728 15.6488 0.920979 0.223709 -0.0353905
28.053 23.3243 16.4303 -1.41207 -0.482605 0.938667
28.5072 20.6632 17.4336 0.722618 -0.8222 -0.565436
30.2551 22.8146 18.2151 -0.926579 0.951813 1.8446
30.3258 21.8095 15.5171 -0.510531 0.692568 0.586205
32.5279 21.2998 17.3019 -1.04916 0.745049 -0.816006
34.2758 23.4512 18.0834 0.170937 -0.871976 -0.192858
32.0737 23.9609 16.2986 0.678169 -0.00102238 1.02976
34.3466 22.4461 15.3854 1.24658 -0.645537 -0.0313998
6.97019 26.4684 17.7802 1.70542 -0.678256 2.34215
7.04096 25.4633 15.0822 2.31106 -0.886431 -0.730494
8.78882 27.6147 15.8637 0.0230567 -1.05216 0.791945
9.24304 24.9536 16.867 -1.02722 -1.29188 0.16669
10.9909 27.105 17.6485 -0.303529 2.59655 -0.259539
11.0617 26.0999 14.9505 -0.965349 1.91119 0.561887
13.2638 25.5902 16.7353 1.3133 0.350288 -0.856638
15.0116 27.7417 17.5168 -0.293373 -0.177205 -0.864298
12.8095 28.2513 15.732 1.29808 -0.120272 -0.343674
15.0824 26.7365 14.8188 -0.34802 0.638049 0.816882
19.4866 25.7172 18.3884 -1.22111 0.660149 -1.19621
17.2845 26.2269 16.6036 -0.497969 0.9591 0.876255
19.0323 28.3783 17.3851 -0.648652 0.754799 0.732041
19.5573 24.7121 15.6904 -0.297485 -1.16209 -0.415752
19.1031 27.3732 14.6871 -0.115833 -1.11745 0.690242
23.5073 26.3538 18.2567 -0.00920336 -0.365756 -0.531941
21.3052 26.8635 16.4719 0.0614845 0.845413 0.0396632
23.578 25.3487 15.5587 0.104949 -0.350838 -0.430991
25.7801 24.8391 17.3435 0.875779 -1.22433 -0.756994
27.528 26.9905 18.125 -1.14026 -1.83539 -1.14823
25.3259 27.5002 16.3402 -0.232659 -0.0945976 -0.301324
27.5988 25.9854 15.427 1.19196 0.496805 0.500046
29.8008 25.4757 17.2118 -0.39464 -2.26512 1.12098
31.5487 27.6271 17.9933 0.451003 1.22602 -3.03276
29.3466 28.1368 16.2085 -0.395967 2.85036 0.822207
31.6195 26.622 15.2953 -2.08528 0.298051 2.14417
33.8216 26.1123 17.0801 0.771948 -0.739495 -0.862325
33.3673 28.7734 16.0768 -0.380369 1.00742 -1.3416
10.5367 29.7661 16.6452 2.592 -1.59774 -1.78393
12.2845 31.9176 17.4267 0.799826 -0.0519027 0.161254
12.3553 30.9124 14.7287 -0.883549 0.819597 -1.0634
12.7388 29.2565 18.43 -0.983584 -1.93304 -0.266888
14.5574 30.4028 16.5135 -0.351881 0.374429 1.11823
16.3052 32.5542 17.295 -2.3689 -2.95107 0.36788
14.1032 33.0639 15.5102 0.771816 -0.595446 -0.882861
16.7595 29.8931 18.2983 0.995777 0.464551 -1.04484
16.8302 28.888 15.6003 0.8448 1.23002 -0.841798
18.5781 31.0394 16.3818 1.5942 0.555263 -0.281144
20.7802 30.5297 18.1666 0.0608364 -0.430661 0.523859
23.053 29.0149 17.2534 1.46333 -0.912416 -2.46398
20.851 29.5246 15.4686 -3.19252 -1.22737 0.303303
22.5988 31.6761 16.2501 -0.816209 -0.813001 0.363491
24.8009 31.1664 18.0349 -1.63986 0.689286 3.0052
27.0738 29.6516 17.1217 0.558925 1.14435 -0.810591
24.8717 30.1613 15.3369 -1.6516 -0.638184 1.21372
26.6195 32.3127 16.1184 -0.683375 1.26087 1.69103
28.8216 31.803 17.9032 0.815052 0.498963 0.292635
31.0945 30.2882 16.99 -1.66499 1.15712 1.58797
28.8924 30.7979 15.2052 -1.21253 0.238204 1.31861
14.0324 34.069 18.2082 -0.856732 -0.0106451 0.0540371
15.851 35.2153 16.2917 -0.0543215 -0.708321 0.415239
18.0531 34.7056 18.0765 0.589901 -0.82912 0.215502
20.326 33.1908 17.1633 0.757668 -1.1353 1.40159
17.5989 37.3667 17.0732 -0.118403 -1.3522 0.66096
18.1239 33.7005 15.3785 -0.550592 0.357642 0.81612
19.8717 35.8519 16.16 -1.85028 -2.3186 1.82065
22.0738 35.3423 17.9448 -1.03501 0.722849 0.110665
22.1446 34.3372 15.2468 1.16174 1.28219 1.63437
24.3467 33.8275 17.0316 0.976369 -2.91839 0.679368
14.312 6.46705 19.2756 -0.664201 -0.0178226 -0.801413
14.2412 7.47218 21.9736 -0.571554 2.00343 -0.476913
16.5141 5.95739 21.0604 -1.19952 0.715813 -0.0789304
18.3327 7.1037 19.1439 -1.16113 -1.05357 -1.2541
18.787 4.4426 20.1472 0.398353 -0.0685101 -0.662273
20.5348 6.59403 20.9287 0.350182 -0.261014 0.188811
22.8077 5.07924 20.0155 -0.296998 1.70358 -0.285331
20.989 3.93293 21.932 0.439059 -1.80158 1.54606
24.5555 7.23067 20.797 0.754505 -0.481294 -0.525277
26.8284 5.71588 19.8838 -0.918233 0.915851 -0.240318
25.0098 4.56957 21.8003 -0.418429 -0.809925 2.29727
7.56423 10.0063 19.3172 -0.293199 -0.433544 0.415857
7.49345 11.0114 22.0152 2.65969 0.967259 1.11868
11.5849 10.643 19.1855 -0.615886 -0.692134 0.325443
9.76631 9.49664 21.102 0.395541 0.167515 0.944115
11.5142 11.6481 21.8835 0.256043 -0.31552 -1.85157
12.0392 7.98185 20.1888 -0.161192 -0.776912 0.943722
15.6057 11.2796 19.0538 -0.0563922 1.06253 -0.393373
13.787 10.1333 20.9703 0.538627 0.0680683 -0.997807
16.0599 8.61849 20.0571 0.077444 0.585771 -1.10929
17.8077 10.7699 20.8386 -2.05356 0.109237 0.218893
20.0806 9.25513 19.9254 -0.971257 -0.00797749 1.19172
18.262 8.10882 21.8419 0.324443 -1.47512 -1.36604
21.8285 11.4066 20.7069 1.55403 0.853282 -1.69531
22.3535 7.74034 19.0122 -0.883207 0.591301 -0.0744689
24.1013 9.89177 19.7937 1.03924 1.5658 -0.661828
22.2827 8.74547 21.7102 0.016657 0.949742 0.247637
26.3742 8.37698 18.8805 0.664162 -0.641365 0.601604
26.3034 9.38211 21.5785 -1.08416 -0.318265 0.251223
28.122 10.5284 19.662 1.58556 1.41907 -1.80359
30.3949 9.01362 18.7488 -0.938732 0.873844 -1.30652
28.5762 7.86731 20.6653 0.443049 -0.710538 -2.09849
30.3241 10.0187 21.4468 0.831289 0.628365 0.827962
32.1427 11.1651 19.5303 -0.826399 0.476257 -1.03894
7.03923 13.6725 21.0119 -0.0194717 1.21857 1.06975
8.78708 15.824 21.7934 -0.289221 1.03462 0.518605
8.85786 14.8188 19.0954 0.0946363 0.33443 1.22628
9.31208 12.1577 20.0987 -0.342308 -2.2306 0.862979
11.0599 14.3092 20.8802 -0.546049 0.403834 0.663224
12.8786 15.4555 18.9637 2.46467 -1.07462 -0.52136
13.3328 12.7944 19.967 -0.960789 -0.174508 -3.19516
15.0807 14.9458 20.7485 1.31255 1.05753 -0.412907
15.5349 12.2847 21.7518 1.59904 3.03612 -2.12788
16.8993 16.0921 18.832 0.2537 0.797828 -1.03843
17.3535 13.431 19.8353 2.2485 2.08056 1.04674
19.1014 15.5825 20.6168 1.28871 0.014838 0.447775
19.6264 11.9162 18.9221 1.27386 -0.218349 -0.830602
19.5556 12.9214 21.6201 2.13723 -1.66137 1.00678
21.3742 14.0677 19.7036 -0.78689 -1.64062 0.573229
23.6471 12.5529 18.7904 -0.770392 0.60446 -0.644147
23.5763 13.558 21.4884 -0.620063 2.60614 -0.377362
25.3949 14.7043 19.5719 -0.587127 -2.09103 -0.751459
27.6678 13.1895 18.6587 -0.411378 0.398006 0.206686
25.3242 15.7094 22.2699 -0.417783 -0.764247 -0.201469
25.8492 12.0432 20.5752 1.18835 -0.188992 1.33732
27.597 14.1946 21.3567 -1.15905 0.292473 0.0123953
29.4157 15.341 19.4402 1.18958 0.142829 1.35014
31.6885 13.8262 18.527 -0.288049 -0.332634 -0.114672
29.8699 12.6798 20.4435 -0.213992 -0.2452 -0.609408
31.6177 14.8313 21.225 -0.631404 1.43479 -1.27376
33.4364 15.9776 19.3085 -0.924122 -0.178423 -0.63661
33.8906 13.3165 20.3118 0.409068 1.8648 0.0718107
35.6384 15.4679 21.0933 0.78379 -0.95181 -0.359707
32.072 12.1702 22.2283 -0.0964296 -0.479993 2.03847
6.06 19.9999 21.7033 -1.29729 1.21668 0.932252
6.585 16.3336 20.0086 -0.997753 1.02442 -0.949442
8.33286 18.4851 20.7901 1.07983 -0.148131 0.820064
6.13078 18.9947 19.0053 1.55207 2.16171 0.630311
10.6057 16.9703 19.8769 -0.419524 -1.20021 -0.022574
12.3536 19.1217 20.6584 -2.75967 -1.77862 -0.272151
10.1515 19.6314 18.8736 0.638557 0.642309 -1.51014
14.6264 17.6069 19.7452 0.352053 -1.86676 0.22907
16.3743 19.7584 20.5267 1.11452 1.59998 -1.78486
14.1722 20.268 18.7419 -0.206446 -0.681798 2.67441
12.8078 16.4606 21.6617 0.228415 0.0946732 0.598092
18.6471 18.2436 19.6135 -1.16861 0.559901 0.579913
16.8285 17.0973 21.53 -1.80264 0.602169 0.587851
20.92 16.7288 18.7003 -0.811291 -0.137996 1.81712
22.6679 18.8802 19.4818 0.297999 -0.564476 -0.102788
20.8492 17.7339 21.3983 0.988046 -0.439205 -0.219643
22.5971 19.8853 22.1798 0.0937841 -1.12998 1.80393
23.1221 16.2191 20.4851 -1.08012 1.07225 -0.692724
24.9407 17.3654 18.5686 0.686678 0.239112 -1.22064
26.6886 19.5168 19.3501 -0.289479 -0.646218 -1.33463
24.8699 18.3705 21.2666 -0.0449615 0.361274 -1.01476
27.1428 16.8557 20.3534 0.18138 -0.698747 -0.209213
30.7093 20.1535 19.2184 0.417868 0.735465 0.54061
28.8907 19.0072 21.1349 -0.257202 -0.628979 1.40985
31.1635 17.4924 20.2217 -0.0365936 2.35646 1.22572
29.3449 16.3461 22.1382 0.377137 -0.260724 1.10562
32.9114 19.6438 21.0032 -0.390875 -0.598347 0.224351
35.1842 18.129 20.09 1.18133 1.63182 0.888073
33.3656 16.9827 22.0065 0.756696 -0.456398 0.405467
5.60578 22.661 20.7 -0.111465 -0.882228 0.198119
7.87863 21.1462 19.7868 -0.0739834 -0.96739 -1.97898
7.42441 23.8073 18.7835 0.448131 0.0876182 0.104338
10.0807 20.6365 21.5716 0.9318 -0.705982 1.15025
9.62649 23.2976 20.5683 -1.33301 -0.790881 -0.660277
11.8993 21.7828 19.6551 -0.899466 -1.28452 1.61464
11.4451 24.4439 18.6518 -1.26942 0.447873 -0.142924
14.1014 21.2732 21.4399 -2.15422 -0.362872 -0.298535
15.8493 23.4246 22.2214 -1.81916 0.399476 -0.175598
13.6472 23.9343 20.4366 -0.537731 1.54851 -0.639828
15.9201 22.4195 19.5234 1.13777 0.405832 -0.989322
18.1221 21.9098 21.3082 -0.463094 0.317334 2.12706
19.87 24.0612 22.0897 -0.278042 -0.815052 -0.170084
17.6679 24.5709 20.3049 0.101792 1.72638 2.10947