ITEM: TIMESTEP
0
ITEM: NUMBER OF ATOMS
1103
ITEM: BOX BOUNDS ss ss ss
3.9711047315067818e+00 3.5348449935920399e+01
3.0711612934603680e+00 3.7647986576649529e+01
4.6877003558790209e+00 3.6102300415061357e+01
ITEM: ATOMS x y z vx vy vz
19.4969 9.79653 7.82326 -0.284022 0.485732 -0.990511
16.6941 8.93 7.72594 0.485582 0.30919 -2.29701
22.2998 10.663 7.92057 0.256904 -0.00190757 1.36352
15.2846 13.5941 6.78952 1.34897 0.0374594 0.452994
14.5879 10.8288 7.20908 -0.377622 1.33015 1.47028
12.9353 12.9747 8.3404 -1.2774 -0.499727 -1.44605
18.0875 14.4606 6.88684 1.34272 0.801912 0.232699
17.3908 11.6953 7.30639 0.388383 -1.44468 -1.32193
22.9965 13.4284 7.50103 -1.13727 -0.836693 0.917928
20.1936 12.5618 7.40371 -0.566977 0.474809 -0.554823
25.7993 14.2949 7.59834 -1.05337 -0.551516 -0.161407
25.1026 11.5296 8.01789 1.20597 1.65831 0.0587644
30.7083 13.2626 8.21253 -0.802416 1.30661 -1.94701
27.9055 12.3961 8.11521 0.300613 -1.3788 0.658346
13.632 15.7401 7.92085 -0.92831 1.23649 0.88429
16.9492 17.9538 8.56763 1.74484 -0.663626 2.35959
18.7842 17.226 6.46729 -1.07786 1.42494 -0.456185
15.9813 16.3594 6.36997 -1.75776 -0.685583 0.617156
21.587 18.0925 6.56461 -0.0955545 0.253938 -2.07647
20.8903 15.3272 6.98416 0.637428 1.07777 0.296802
26.496 17.0602 7.1788 0.667254 -0.458568 0.709159
23.6932 16.1937 7.08148 0.329498 0.622468 -0.827448
29.2989 17.9267 7.27611 -0.986077 0.831853 0.474533
31.405 16.0279 7.79298 2.13719 -1.6857 1.04939
28.6022 15.1614 7.69566 -0.868505 -0.672769 0.225638
15.0254 21.2707 7.08175 0.890631 -1.51574 -0.822346
14.3287 18.5054 7.5013 2.3915 -1.53849 -0.382452
17.6459 20.7191 8.14808 3.11774 -0.680296 0.416772
17.3747 21.8901 5.53088 0.528595 0.953197 0.270631
19.4809 19.9913 6.04774 -3.19923 -1.03012 0.460523
16.6781 19.1248 5.95043 0.305795 0.15511 -1.04315
20.4487 21.5856 8.2454 0.615074 -1.05889 1.18527
22.2837 20.8578 6.14506 0.612084 -0.422393 1.4376
25.0866 21.7243 6.24238 0.165357 -2.59208 1.38727
27.1927 19.8255 6.75924 -1.1768 0.2541 1.27956
24.3899 18.959 6.66193 -0.275121 0.341904 -0.558458
29.3785 20.6082 8.46758 0.847464 -0.352475 1.77872
15.7221 24.036 6.6622 0.410986 -0.507261 -1.13148
13.3727 23.4166 8.21307 1.24034 0.0950012 -1.8008
18.3426 23.4844 7.72853 0.342913 1.27651 0.782267
18.0715 24.6554 5.11133 1.33553 0.587087 1.31867
21.1454 24.351 7.82585 -1.73315 2.02346 0.451651
20.8743 25.5219 5.20865 0.676044 2.39006 -2.80032
23.2516 22.4522 8.34272 -0.66242 -0.208303 0.918498
22.9804 23.6231 5.72551 -0.0626677 -1.30124 1.44178
20.1776 22.7566 5.6282 1.36156 -0.998911 -0.664608
25.1662 24.4058 7.43384 0.905119 0.351401 -1.72553
27.2723 22.507 7.95071 -0.652411 1.27941 1.65777
14.0694 26.182 7.79353 0.751131 -0.613086 2.39489
19.0393 26.2498 7.30898 0.901486 -0.178885 -0.043161
18.7682 27.4207 4.69178 0.852589 0.0528763 0.665846
16.4188 26.8013 6.24265 -1.36868 -0.598788 -2.07765
18.2002 28.9941 7.03916 0.816994 -0.879318 1.80982
15.8509 28.3748 8.59004 -0.633217 0.05002 0.532152
20.9539 28.2034 6.40011 -0.46083 0.485187 -1.85344
23.1396 28.9861 8.10845 0.903456 -0.104055 0.291302
23.06 26.3046 6.91698 0.0205325 -1.61384 -0.185188
15.1302 8.4869 12.4435 -2.41218 -0.170325 0.774817
14.8591 9.65785 9.82628 -0.440981 0.349791 1.0967
12.5097 9.03848 11.3771 1.03845 2.70895 0.629201
12.2385 10.2094 8.75995 -0.324994 -0.746106 0.0175822
17.9331 9.35342 12.5408 -1.75348 1.11281 1.43411
17.6619 10.5244 9.92359 -1.14682 0.740298 -0.02051
16.9652 7.75905 10.3431 -0.449542 0.432625 -1.47534
22.5709 9.49209 10.5378 -0.854513 -0.521454 1.56636
19.7681 8.62558 10.4405 1.1606 -0.689799 -0.751081
25.3737 10.3586 10.6351 -0.34933 -0.632765 -0.208946
11.5537 13.9497 12.0889 0.793022 -0.471078 -0.520134
10.857 11.1844 12.5085 -0.952062 -1.43648 0.856767
10.5859 12.3554 9.89126 2.66835 -0.160534 0.40131
8.9332 14.5013 11.0226 -0.687018 0.411275 2.43787
15.5558 12.4232 9.40673 2.29701 2.09725 1.06642
13.9031 14.5691 10.538 -2.25854 -0.225452 0.0745813
13.2064 11.8038 10.9576 0.602987 -1.39111 -0.713515
16.5236 14.0175 11.6044 -0.456854 -1.95637 -0.681054
18.6298 12.1187 12.1212 0.379217 1.60162 1.04728
18.3586 13.2897 9.50405 0.253914 -0.393893 -1.07784
15.8269 11.2522 12.0239 -0.0189539 1.07393 -0.358825
21.4326 12.9853 12.2186 0.542631 1.0827 1.13861
21.1615 14.1562 9.60136 -0.605617 1.42583 -0.113628
23.2676 12.2574 10.1182 0.414794 -1.06899 -1.96223
20.4648 11.3909 10.0209 -0.93868 -0.24128 0.756182
24.2354 13.8518 12.3159 -0.50595 0.435591 0.736992
26.0705 13.1239 10.2155 0.710968 -1.41678 1.16769
28.8733 13.9905 10.3129 1.59935 -0.550554 -1.68372
30.9794 12.0917 10.8297 0.441169 -1.09956 -1.14169
28.1766 11.2251 10.7324 -0.431229 0.780514 0.592208
7.28053 16.6472 12.1539 0.0827707 1.46593 -0.654456
11.2826 15.1207 9.47172 -1.03371 -0.302577 0.241628
9.62991 17.2666 10.603 0.482094 -0.702748 -2.11348
14.5998 17.3344 10.1185 -0.104856 -0.761254 0.0337344
12.2504 16.7151 11.6694 1.02875 -1.32989 0.421148
11.9793 17.886 9.05217 0.784483 -0.342931 0.0171932
17.2203 16.7829 11.1848 1.53386 0.0182938 3.58445
19.3265 14.8841 11.7017 0.514018 1.52345 0.0818495
19.0553 16.055 9.0845 -1.07687 -0.0373114 -1.58242
16.2525 15.1885 8.98718 0.201444 0.0459681 0.403327
20.0232 17.6494 11.2822 -0.661314 -0.207985 1.57879
22.1293 15.7506 11.799 0.536252 -1.26659 -1.11659
21.8582 16.9215 9.18182 -0.994898 3.17884 -2.43663
24.9322 16.6171 11.8963 2.00203 -1.42718 -1.45204
24.661 17.7881 9.27913 1.55202 -0.211371 -0.284503
27.0383 14.7183 12.4132 0.720181 1.38207 -1.3525
26.7672 15.8893 9.796 0.885793 0.730452 -1.82319
23.9643 15.0227 9.69868 0.279907 0.132 0.657295
27.735 17.4836 11.9937 2.52741 0.335472 -0.0315934
29.8411 15.5848 12.5105 1.30364 0.377821 -0.0560148
29.57 16.7558 9.89331 -0.855542 -0.557509 -1.47728
31.7557 17.5385 11.6016 -2.15436 -0.81175 0.928613
31.6761 14.857 10.4102 -0.146049 -1.05077 0.704425
33.8619 15.6397 12.1185 -0.9252 2.11796 -2.89614
33.5907 16.8106 9.50131 0.231617 0.963007 -0.673716
11.2945 21.6263 12.3811 0.947061 0.246336 1.56729
10.3266 20.032 10.1835 -0.552641 -2.08502 -0.776348
8.67395 22.1779 11.3148 1.01028 0.603089 -0.943391
7.97724 19.4126 11.7344 -0.0277033 0.140509 0.687468
15.5677 18.9288 12.3162 -0.956097 -1.92356 -0.285182
15.2965 20.0997 9.69895 0.106578 -2.14118 -0.3397
13.6438 22.2457 10.8303 0.3154 2.34424 -1.88443
12.9471 19.4804 11.2498 -2.59039 -0.498408 1.34611
12.676 20.6513 8.63262 -1.0047 -0.295203 -0.186101
17.917 19.5482 10.7653 -0.421504 0.693562 -1.41294
16.2644 21.6941 11.8966 -0.797901 -1.79682 0.268423
23.5227 21.2812 10.9599 -0.856912 0.643571 -1.24072
20.7199 20.4147 10.8626 -0.988754 0.377444 -0.471846
22.826 18.5159 11.3795 -1.5567 0.473385 0.623525
22.5549 19.6868 8.76226 -0.525255 -1.13601 -0.764667
19.752 18.8203 8.66495 2.47286 1.71386 1.31247
25.6289 19.3824 11.4768 -0.384225 -2.2286 -0.772965
25.3577 20.5534 8.85958 1.91284 0.0731885 0.198603
27.4639 18.6546 9.37645 2.29812 -2.31867 -1.33975
27.5435 21.3361 10.5679 -1.63199 -0.62476 1.19514
29.7292 22.1187 12.2762 -0.284257 -2.26047 0.196308
29.6496 19.4373 11.0848 -0.628287 -0.14924 -0.13484
31.5642 21.3909 10.1759 0.997862 -1.53116 2.10878
31.4846 18.7094 8.98444 1.77464 1.06002 2.14648
33.7499 22.1736 11.8842 2.36822 -1.96855 -2.09229
33.6703 19.4921 10.6928 2.16954 -0.464152 0.704799
7.02127 24.3239 12.4462 -0.0945189 -1.07424 0.314727
11.72 25.5626 9.34441 -0.899877 0.953645 1.78103
9.37065 24.9433 10.8953 0.0840886 -0.431737 0.454869
11.0233 22.7973 9.76394 -1.12035 -0.779633 0.591963
14.3405 25.011 10.4107 -1.08914 -0.397082 -1.39875
11.9912 24.3917 11.9616 0.737429 -0.825508 -0.613935
19.3104 25.0788 9.92619 -1.34646 -0.301521 0.580982
16.9611 24.4594 11.4771 -0.555084 0.0498905 -0.115401
16.6899 25.6304 8.85986 1.07752 0.57274 1.19992
18.6137 22.3135 10.3457 1.0647 -0.101622 0.267152
15.9932 22.8651 9.2794 0.408906 0.100273 0.0195497
21.4962 25.8615 11.6345 0.141086 -0.207567 -0.280441
21.4166 23.18 10.4431 -1.57473 0.127723 -0.935655
23.3312 25.1337 9.53418 1.38347 2.02376 -0.352767
23.6023 23.9627 12.1514 -0.699841 0.451247 0.151362
25.5169 25.9163 11.2425 2.04688 -1.50425 -1.61418
25.4373 23.2349 10.051 -1.23118 2.60285 0.986061
27.3519 25.1885 9.14218 1.00233 -2.89614 0.652182
27.623 24.0175 11.7594 -0.801434 -0.796687 0.350949
29.5376 25.9712 10.8505 0.778995 -0.710072 -1.67646
29.458 23.2897 9.65904 1.46673 -0.431235 -1.25749
31.6438 24.0724 11.3674 0.813435 -0.913002 -0.33997
11.1521 27.136 11.6918 0.0714546 0.83879 -0.00711943
13.5015 27.7554 10.1409 0.190906 -0.869665 -0.263885
15.2829 29.9482 10.9374 -1.6558 -1.08269 0.803728
12.9335 29.3288 12.4883 -0.199389 -0.608122 0.513535
18.7425 26.6522 12.2736 1.17836 -0.497974 -1.045
18.4714 27.8232 9.65637 0.88384 2.04273 -0.220569
16.122 27.2038 11.2072 -0.891796 -0.436934 2.0296
17.9034 29.3966 12.0038 -0.20266 -1.13251 0.903464
21.225 27.0324 9.01732 -1.93439 -0.25676 -1.8779
20.6571 28.6059 11.3647 -0.706426 -0.5722 0.358437
20.386 29.7768 8.7475 -0.943104 -0.291904 0.930675
23.4108 27.8151 10.7256 -2.04442 1.46292 -0.13209
25.5965 28.5978 12.434 -1.20905 0.681687 -1.17528
25.3254 29.7688 9.81678 -0.872679 -1.37128 1.11555
25.2458 27.0873 8.62531 0.721839 -0.000622962 1.91189
27.4315 27.87 10.3336 -1.0133 0.747207 0.0894624
29.6172 28.6527 12.042 -0.265196 -0.966181 0.650689
17.6323 30.5676 9.38655 -0.274539 -0.316331 0.331184
17.0644 32.141 11.7339 1.39655 0.136486 -0.0136382
19.818 31.3502 11.0949 0.498689 0.484369 -2.45359
22.5717 30.5595 10.4558 1.23658 0.557322 2.41603
24.7574 31.3422 12.1642 -0.481373 1.60852 -0.649537
27.5111 30.5515 11.5251 -0.959705 -0.967009 0.532356
17.5075 5.41715 15.5776 -1.08656 1.9242 -0.825569
17.2363 6.5881 12.9603 0.0414192 -1.76316 -0.0737985
20.3103 6.28367 15.6749 0.625991 -1.93581 -0.226078
11.1282 10.0135 15.1257 -3.15433 -0.773432 -0.219632
15.4013 7.31595 15.0607 0.208451 0.358982 1.35767
13.7487 9.46189 16.192 0.050084 0.962018 0.257678
13.4775 10.6328 13.5748 0.468783 1.74565 0.438161
12.7808 7.86752 13.9944 0.930056 0.49819 -1.50275
16.098 10.0813 14.6411 1.26266 1.00601 0.653305
18.2042 8.18247 15.158 -2.15794 0.415656 -2.40629
21.007 9.04898 15.2553 1.29161 0.50106 -0.303995
20.7359 10.2199 12.6381 0.0687405 1.62971 -0.0216035
23.1132 7.15019 15.7722 0.251257 -0.322615 0.272999
22.842 8.32114 13.155 0.951198 1.70931 -0.897545
20.0392 7.45462 13.0577 0.474722 0.157391 1.74871
23.8099 9.91551 15.3526 -0.407041 1.38625 0.465162
25.916 8.01671 15.8695 -1.30678 -2.64581 -2.64056
25.6449 9.18766 13.2523 0.579347 0.51265 -1.46324
28.7189 8.88324 15.9668 -0.0981424 -2.01018 -0.977334
28.4477 10.0542 13.3496 0.331524 1.19207 -1.00574
31.5217 9.74976 16.0641 0.891702 0.730704 -1.06593
9.47548 12.1594 16.257 -2.04302 -0.190213 0.123389
9.20434 13.3304 13.6398 2.4259 -0.870099 1.12913
14.4454 12.2272 15.7725 1.45641 0.131597 2.22466
14.1742 13.3982 13.1553 -0.990188 -0.61566 -1.79267
11.8249 12.7788 14.7061 -0.269817 1.70784 -0.265659
17.7626 14.4409 16.4192 -0.422398 -0.996181 -0.0465175
19.5976 13.7131 14.3189 0.217144 -1.23748 0.210468
16.7948 12.8466 14.2216 -0.0924551 -1.34999 0.589474
18.9009 10.9478 14.7385 0.757874 1.62455 -1.72912
22.4004 14.5796 14.4162 0.355278 0.620929 0.947379
21.7037 11.8143 14.8358 -0.886607 -0.237931 0.854521
23.5387 11.0865 12.7354 -2.41087 -0.374115 0.421723
27.3094 13.5474 15.0304 0.397112 -1.33571 0.0587262
24.5066 12.6808 14.9331 -0.313804 -2.20381 0.951284
26.6127 10.782 15.45 -1.8712 -0.406987 1.5853
26.3416 11.953 12.8328 1.14233 0.185604 0.909136
30.1123 14.4139 15.1277 0.599279 3.00783 -0.329245
29.4156 11.6486 15.5473 -0.794437 -0.914187 -0.451319
29.1444 12.8195 12.9301 -0.166125 0.481257 -0.374504
31.2506 10.9207 13.4469 0.188816 -1.02837 0.137348
32.2184 12.5151 15.6446 -0.0257411 1.43867 1.3168
31.9473 13.686 13.0274 -0.0284342 -1.65314 -0.515951
34.133 14.4687 14.7357 -2.49965 0.383068 1.20223
7.55167 15.4763 14.7711 0.58321 -1.52044 -0.154732
5.899 17.6222 15.9024 -0.583848 0.333011 0.614154
10.8689 17.69 15.4179 0.30936 -1.62063 -0.802836
10.1722 14.9247 15.8374 0.968477 -0.665894 -0.623033
9.90105 16.0957 13.2202 -0.890461 0.917801 -0.241116
8.24838 18.2416 14.3516 -0.651546 0.834568 0.75452
15.1421 14.9925 15.3529 -0.123483 -0.468477 1.91998
14.8709 16.1635 12.7357 0.276792 -2.63978 -0.087888
13.2183 18.3094 13.867 0.710765 0.871223 0.307043
12.5216 15.5441 14.2866 -0.012442 0.371826 -1.04952
18.4593 17.2063 15.9997 0.250038 0.546639 -0.881554
18.1882 18.3772 13.3825 -0.351938 -2.27967 -0.804851
17.4915 15.6119 13.802 0.289293 -0.234264 1.55197
15.8388 17.7578 14.9334 -0.287734 2.5996 -0.263256
21.2622 18.0728 16.097 -2.47395 0.582751 0.860282
23.0971 17.3449 13.9967 0.775537 1.11698 0.100783
20.2943 16.4784 13.8994 0.432596 -0.0499692 1.34279
25.9 18.2115 14.094 0.522997 -0.0380031 0.388788
25.2033 15.4461 14.5135 -0.672914 -0.778163 0.479555
28.0061 16.3127 14.6109 0.554805 -0.253187 0.780384
30.1919 17.0954 16.3192 -0.552897 -1.39851 1.91499
29.9207 18.2663 13.702 -0.762076 1.6207 1.20221
32.0269 16.3675 14.2189 -0.594067 -0.979099 0.35317
34.2126 17.1502 15.9272 1.03101 -0.846071 -0.49188
33.9415 18.3212 13.31 1.72967 0.945579 -1.83554
6.5957 20.3876 15.4829 -2.16153 0.903239 -0.985152
6.32456 21.5585 12.8657 -2.0956 -1.28606 1.50457
5.62786 18.7932 13.2852 1.13893 -0.0354596 1.16197
3.97518 20.9391 14.4166 -0.155516 0.373531 0.693024
11.5656 20.4554 14.9983 0.956035 0.520162 1.77458
10.5978 18.861 12.8007 -0.74742 0.604408 -0.654479
8.94508 21.0069 13.932 1.70126 -1.12279 -0.760736
14.1861 19.9038 16.0647 -0.285283 -0.178874 -0.888764
13.915 21.0747 13.4475 1.01515 0.468256 -1.08385
19.156 19.9716 15.5801 0.296292 0.911127 1.36616
18.8849 21.1425 12.9629 0.329499 -0.1491 0.937507
16.5355 20.5232 14.5138 0.906576 1.91523 0.680868
21.9589 20.8381 15.6775 0.502556 0.616763 1.63836
21.6877 22.0091 13.0603 -0.101358 -0.534346 -0.559992
20.991 19.2437 13.4798 0.147177 0.217319 -1.49949
24.065 18.9393 16.1943 0.829389 -1.17126 0.459068
23.7939 20.1103 13.5771 0.783506 2.1114 -0.464848
25.9796 20.8929 15.2855 -0.35473 -0.144363 -1.76791
25.7084 22.0639 12.6683 0.972133 0.800185 0.272749
28.0857 18.9942 15.8023 0.982843 -2.43519 -2.96826
27.8146 20.1651 13.1851 -0.169447 0.121295 -1.86707
30.0003 20.9478 14.8935 -0.766822 1.08752 0.142158
32.1065 19.049 15.4103 -0.705302 1.33796 0.614011
31.8353 20.2199 12.7931 -1.33326 1.99913 0.741304
34.0211 21.0026 14.5014 1.64728 -2.90463 1.52554
7.29241 23.1529 15.0634 -0.604005 -0.430965 1.54938
4.6719 23.7045 13.997 -0.420022 0.905663 -1.66516
6.45335 25.8973 14.7935 0.583585 -0.816056 -1.60586
4.10396 25.2779 16.3444 -1.31937 0.747221 -1.50008
9.91292 22.6014 16.1297 -0.497706 0.946725 0.836348
9.64179 23.7723 13.5125 -0.636806 0.747972 0.677586
11.4232 25.9651 14.309 -0.298993 -1.17381 -0.447862
9.07386 25.3457 15.8599 -0.465761 -1.50602 -0.61084
14.8828 22.6691 15.6451 -0.279102 -0.641791 -1.36295
14.6117 23.8401 13.0279 -0.315471 1.88295e-06 0.921272
12.2623 23.2207 14.5788 0.201738 0.244703 0.732157
14.0438 25.4135 15.3753 -0.613013 -0.227419 0.69093
19.5816 23.9079 12.5434 0.0281619 0.63542 0.263197
17.2322 23.2885 14.0943 -0.730557 2.12917 -2.33142
19.0137 25.4813 14.8908 -0.122295 0.264684 1.71511
16.6643 24.8619 16.4417 0.421591 0.739711 0.504036
16.3931 26.0329 13.8244 1.55279 1.01489 0.499413
19.8527 22.7369 15.1606 -1.27624 1.24293 0.995938
21.7673 24.6905 14.2517 1.61026 0.113768 -0.794555
23.953 25.4732 15.9601 0.877254 0.53113 1.00277
23.8735 22.7917 14.7686 -0.444736 0.552969 1.03138
25.788 24.7454 13.8597 1.5155 -0.582143 -0.857771
27.9738 25.5281 15.5681 1.59226 0.568642 -0.27311
27.8942 22.8466 14.3766 -3.18881 -1.21647 0.305351
30.0799 23.6293 16.0849 -1.07085 -0.87857 -0.141215
29.8088 24.8002 13.4677 0.295755 -1.97166 -1.98055
31.9945 25.5829 15.176 -0.203744 -0.211884 -0.554185
31.9149 22.9014 13.9846 0.427238 1.89752 0.106037
34.1006 23.6841 15.6929 0.348828 1.82884 0.602282
33.8295 24.8551 13.0757 0.686891 1.73674 0.577493
8.80272 26.5167 13.2427 0.0386852 -0.793386 0.0166611
10.5842 28.7095 14.0392 0.109564 0.0651628 -0.863672
8.23479 28.0901 15.5901 1.45184 0.436478 -2.0808
13.7726 26.5844 12.7581 -1.04049 0.741521 -0.872327
15.5541 28.7772 13.5546 -1.27927 -1.28256 -0.444494
13.2047 28.1579 15.1055 -0.187443 0.390353 -2.09511
18.1746 28.2256 14.621 -0.929621 0.0633044 1.41769
15.8252 27.6063 16.1718 0.139258 -0.936105 0.742396
20.9282 27.4349 13.9819 -0.978367 -0.809335 1.54208
20.3603 29.0083 16.3293 0.110122 2.75404 -0.260918
23.114 28.2176 15.6902 2.62427 -0.36403 0.526234
22.8428 29.3886 13.073 0.981379 0.28616 -1.9879
23.6819 26.6442 13.3429 -1.10846 -0.0720002 0.705824
25.8676 27.4269 15.0512 -1.71167 -0.480991 0.271739
27.7822 29.3805 14.1423 0.595061 -0.807095 0.214722
27.7026 26.699 12.9508 0.767457 -1.11607 1.3947
29.8884 27.4817 14.6592 -0.38651 -0.377391 1.01615
32.0741 28.2644 16.3675 0.385987 -0.221856 1.15137
31.8029 29.4353 13.7503 1.09283 0.0517047 1.09731
31.7234 26.7539 12.5588 -0.609518 1.47326 -1.23298
33.9091 27.5366 14.2672 0.428028 2.0417 1.76422
10.0162 30.2829 16.3866 -0.353713 1.02724 -0.0739598
14.9861 30.3507 15.902 0.0654849 -1.78695 -0.89416
14.715 31.5216 13.2848 -0.914289 0.373836 0.0097887
12.3656 30.9022 14.8357 0.12838 0.77986 2.08712
14.1471 33.095 15.6322 0.343776 2.51781 -1.16381
17.3355 30.97 14.3511 -1.27073 1.08093 -1.12861
16.4964 33.7144 14.0813 0.251093 0.117008 0.624351
19.5212 31.7527 16.0595 -0.496979 0.0795425 1.74826
19.2501 32.9237 13.4423 1.08956 -0.80884 0.118202
20.0892 30.1793 13.7121 0.122816 0.933275 0.814948
22.2749 30.962 15.4204 -0.272364 -1.34356 -0.667212
22.0038 32.1329 12.8032 -0.596137 -2.49231 -1.57142
21.4358 33.7063 15.1506 -0.298593 0.766112 1.90311
25.0286 30.1712 14.7814 -0.854502 0.00794 0.061154
24.1895 32.9156 14.5115 -2.47599 1.8335 -1.1237
26.9431 32.1249 13.8725 0.71676 -0.315302 -1.01765
26.3752 33.6983 16.2199 0.565292 -1.99326 -0.272262
29.968 30.1632 15.8507 -2.27539 2.12052 0.657363
29.6968 31.3341 13.2334 -0.0159499 -1.97998 0.246621
29.1289 32.9076 15.5808 1.55243 0.88473 -1.60715
31.8825 32.1168 14.9418 -0.439284 2.41396 0.426537
33.9887 30.218 15.4586 0.194076 -0.0234965 -0.100557
15.9285 35.2878 16.4287 0.239845 2.62709 -0.393084
18.6822 34.4971 15.7897 -3.43157 0.169646 -1.08749
15.6725 6.14499 17.6779 1.1563 -1.56932 -1.25713
13.3231 5.52562 19.2288 -2.55181 -0.359184 -1.11982
13.052 6.69657 16.6116 0.0153259 -1.27389 1.34445
18.7465 5.84056 20.3924 0.0890881 2.12267 -0.0255157
15.9436 4.97404 20.2951 0.806929 -2.64799 1.25258
17.7786 4.24619 18.1948 -0.738246 0.0683092 -0.454498
23.3843 5.97924 18.3894 -1.07481 0.76771 0.978608
20.5815 5.11272 18.2921 0.118902 0.805908 0.0472704
26.1872 6.84575 18.4867 -1.00633 1.01277 -0.741705
11.6704 7.67155 20.3601 -0.972924 -0.291307 -0.107212
11.3993 8.84251 17.7429 -2.0313 -0.587673 -1.07452
14.0198 8.29094 18.8092 0.371988 -0.253995 0.213443
12.3671 10.4369 19.9405 -0.905733 2.47207 -0.40675
17.337 10.5047 19.456 0.774476 -0.604402 -0.924873
19.4432 8.60588 19.9729 1.33068 1.07132 -0.380676
19.172 9.77683 17.3557 -1.77231 0.621561 0.605298
16.6403 7.73935 19.8755 -0.273776 0.910874 -0.350552
16.3692 8.91031 17.2583 -0.652696 -0.358713 0.343441
18.4753 7.01151 17.7752 -0.30187 -0.494698 -0.478056
22.246 9.4724 20.0702 0.992401 0.283719 -0.677336
21.9749 10.6434 17.453 -1.27583 1.4986 -1.64876
21.2782 7.87803 17.8725 -0.541388 2.02736 -0.405742
25.0489 10.3389 20.1675 0.65511 -1.78279 -2.02011
26.8839 9.61108 18.0672 0.554408 -0.92421 0.605905
24.081 8.74456 17.9698 -2.31291 0.613231 0.58939
29.6867 10.4776 18.1645 -0.791933 0.344589 0.785786
28.99 7.71229 18.584 0.816931 -0.493238 -0.579659
31.7929 8.5788 18.6813 -0.0607414 -1.13322 -1.1225
7.8228 14.3053 17.3883 1.28712 0.146248 0.935265
10.4433 13.7538 18.4546 -0.584933 -1.35564 -1.94164
9.74662 10.9884 18.8742 -1.67468 0.497358 0.826868
8.09394 13.1344 20.0055 0.732795 1.40433 0.612775
15.4132 13.8216 17.9701 -1.84323 -2.32698 1.74263
14.7165 11.0562 18.3897 -1.84502 0.651997 -0.646384
13.0638 13.2022 19.521 -0.777323 -1.64067 0.567291
12.7927 14.3732 16.9038 -1.05894 1.07715 -0.71298
12.096 11.6078 17.3233 0.703753 1.27148 0.155157
18.0337 13.27 19.0364 0.874254 1.26891 1.33808
17.0659 11.6756 16.8388 -0.0399393 -0.711747 0.358382
20.8366 14.1365 19.1338 0.774617 -0.741485 -0.931207
22.9427 12.2377 19.6506 -0.121018 1.30097 -0.154927
22.6716 13.4087 17.0334 -2.20929 -0.360177 1.24275
20.1399 11.3712 19.5533 -1.13441 0.258304 1.44229
19.8687 12.5422 16.9361 -0.402654 -2.02943 -2.2858
25.7456 13.1042 19.7479 1.90101 1.88278 -0.642937
25.4744 14.2752 17.1307 -0.617574 -0.798622 -0.00237612
24.7777 11.5099 17.5503 -0.276257 -0.412626 0.518832
28.5484 13.9708 19.8453 -0.379739 -1.94072 0.085142
30.6546 12.072 20.3621 1.55006 -1.19749 -0.569442
30.3834 13.2429 17.7449 -1.08407 1.88053 -0.34977
27.8517 11.2054 20.2648 -0.27158 1.06596 0.605072
27.5806 12.3764 17.6476 -0.193099 0.299181 -0.881473
32.5691 14.0256 19.4533 2.20917 0.210389 -0.28391
32.4896 11.3441 18.2618 1.21429 -0.521372 -0.478156
34.6753 12.1268 19.9701 1.1466 0.0258253 0.104658
34.4042 13.2978 17.3529 0.270187 0.0858104 -1.05885
6.17013 16.4513 18.5196 3.28008 -1.46423 -0.568287
11.14 16.5191 18.0351 1.47221 -1.62708 0.348258
8.79065 15.8997 19.586 -0.196944 0.168712 -0.233919
8.51951 17.0707 16.9688 -1.96877 -0.383315 0.504687
13.7605 15.9675 19.1014 1.20049 1.23356 0.482297
13.4894 17.1385 16.4842 -0.844434 -0.21838 0.47708
12.1079 18.1135 20.2328 -0.946907 1.3856 0.9431
18.7304 16.0353 18.6169 1.36356 0.0818509 1.86199
17.0778 18.1813 19.7482 0.534115 0.266816 -0.712526
16.3811 15.4159 20.1678 -0.0218504 0.748509 -1.49855
16.1099 16.5869 17.5506 -1.02283 -1.29354 0.177462
21.5333 16.9018 18.7142 0.585613 0.246096 0.315133
23.3683 16.174 16.6139 -1.12325 1.03103 1.74562
20.5654 15.3075 16.5166 -1.12543 1.00343 1.94512
24.3361 17.7684 18.8115 0.816578 -0.222329 0.444878
26.4423 15.8696 19.3284 1.44804 0.674798 0.0998125
26.1711 17.0405 16.7112 0.699421 -2.20057 1.55653
23.6394 15.003 19.2311 0.45583 1.23176 -3.08729
28.3569 17.8232 18.4195 0.090258 0.946246 -1.53791
28.2773 15.1417 17.2281 -0.630498 0.38674 -2.07128
30.463 15.9244 18.9364 -2.40245 1.1029 -1.82368
32.3776 17.878 18.0275 -0.685509 0.291872 -1.05128
32.298 15.1966 16.8361 -0.079262 0.0531911 -0.102398
34.4837 15.9792 18.5444 1.73418 -1.11177 -0.306676
7.83468 20.811 20.2978 -2.00503 0.114565 -0.466224
7.56355 21.982 17.6806 -0.600712 -0.758852 0.426984
5.21417 21.3626 19.2314 -0.228923 -0.361333 0.265171
6.86684 19.2166 18.1001 0.978771 0.971181 2.21715
4.51746 18.5972 19.651 1.50977 -1.60766 0.00686166
4.24632 19.7682 17.0338 1.15235 -0.528619 -0.697058
10.1841 21.4304 18.7469 1.05353 0.930782 -0.82288
9.48736 18.665 19.1664 0.37723 1.19653 -1.46387
9.21622 19.836 16.5492 0.399097 0.263085 -2.15338
15.154 21.4982 18.2623 0.685302 0.237851 -1.2344
12.8046 20.8788 19.8132 1.1656 0.835712 -0.295767
12.5334 22.0498 17.196 -2.12112 0.893229 0.575241
14.4573 18.7328 18.6819 1.30951 0.343005 -0.866527
11.8367 19.2844 17.6156 -1.0487 -0.676368 0.165652
17.7745 20.9466 19.3287 2.11599 -0.285217 0.593052
17.5033 22.1175 16.7115 0.927157 0.533367 -0.852699
19.4271 18.8006 18.1973 0.304573 -0.5551 -0.101696
16.8066 19.3522 17.131 0.429163 0.826713 0.719895
20.1239 21.566 17.7778 1.46747 0.547014 0.579043
22.23 19.6672 18.2947 0.616775 0.220179 1.86327
24.4157 20.4498 20.003 -1.44758 -1.27923 0.290958
24.1446 21.6208 17.3858 0.122248 -1.72815 -0.496304
26.2507 19.722 17.9027 1.05113 -1.90204 -1.22455
28.4365 20.5047 19.611 -1.61614 1.42436 1.76254
28.1653 21.6756 16.9938 -0.124307 -1.11209 0.706789
30.5426 18.6059 20.1279 0.0510441 0.424333 1.17466
30.2715 19.7768 17.5107 -0.127231 -0.51817 -1.78307
32.4572 20.5595 19.219 -0.94339 0.895758 -1.24286
32.186 21.7305 16.6018 -0.819527 0.503759 -0.989906
34.5633 18.6607 19.7359 0.314607 0.339064 -0.197159
34.2922 19.8317 17.1187 -1.0377 0.851093 -0.684414
4.94304 22.5336 16.6142 2.5944 -0.392329 1.0354
6.99562 23.5554 20.028 -1.79574 -0.0562219 0.183698
6.72448 24.7264 17.4107 1.26655 -0.342499 0.0861306
4.3751 24.107 18.9616 3.10099 -1.1803 -0.28882
11.6944 24.7941 16.9262 0.797825 0.309712 -0.0671922
9.34499 24.1748 18.4771 -1.88857 -1.61262 -1.21305
14.3149 24.2425 17.9925 -0.374469 -0.565123 1.85951
11.9655 23.6232 19.5434 1.16841 -0.915221 -1.28659
13.747 25.816 20.3399 -0.437422 -1.37622 0.0212337
19.5559 23.1394 20.1252 1.17419 -0.375181 0.402888
19.2848 24.3103 17.508 -1.15131 0.395482 0.579909
16.9354 23.691 19.0589 3.57213 -0.663096 0.487882
18.7169 25.8837 19.8554 -0.396578 0.211731 0.00721983
22.3096 22.3486 19.4861 0.0175886 0.918797 -0.77717
22.0384 23.5196 16.8689 -0.688642 -0.0265695 -1.71884
21.4705 25.093 19.2163 -0.313504 2.06259 0.219627
24.2242 24.3023 18.5773 0.0418034 -0.257183 2.14467
26.4099 25.085 20.2856 1.68469 0.397241 2.16403
26.3303 22.4035 19.0941 1.91196 -0.126671 -0.390445
26.0592 23.5744 16.4769 -0.080857 0.786564 1.26023
28.2449 24.3571 18.1853 0.831465 1.23776 -0.81907
30.4306 25.1398 19.8936 -1.20255 -1.65604 -1.09292
30.351 22.4583 18.7021 0.241681 -0.915585 -0.0363674
32.2656 24.412 17.7933 1.58389 1.44654 -1.73355
34.4514 25.1946 19.5016 -0.921347 -0.0876583 -0.95145
34.3718 22.5132 18.3101 -0.552429 0.167645 0.745022
6.15654 26.2998 19.7581 -0.252645 -0.956679 -0.0509311
5.88541 27.4707 17.1409 0.550442 0.007076 -1.20157
7.66685 29.6635 17.9374 -0.298463 1.07637 0.269149
11.1264 26.3675 19.2736 -2.71097 0.120181 -0.281406
10.8553 27.5385 16.6564 -0.950846 1.83303 -1.21856
8.50593 26.9191 18.2073 -0.0220422 0.316252 0.926414
10.2874 29.1119 19.0038 1.60375 0.810573 -1.25551
13.4758 26.9869 17.7227 0.451041 -0.796947 -0.439252
15.2573 29.1797 18.5192 -0.88492 0.24133 -1.72927
12.9079 28.5603 20.0701 1.72156 -0.550855 0.513306
12.6368 29.7313 17.4529 1.17412 -1.38852 -0.0497804
18.4457 27.0547 17.2382 1.39887 -1.1912 -2.07137
16.0963 26.4353 18.789 0.718952 -0.131907 1.02364
17.8778 28.6281 19.5855 0.433836 0.0938362 0.147772
17.6067 29.7991 16.9683 -0.592969 -2.04062 -1.52563
21.1994 26.264 16.5991 -0.10422 -0.859246 0.262394
20.6314 27.8374 18.9465 -2.6267 -0.536694 0.483162
23.3851 27.0467 18.3074 1.3505 -0.137406 -0.133378
22.546 29.791 18.0376 -0.610244 -2.10367 -0.736813
26.1388 26.2559 17.6684 1.22554 0.496306 0.945201
25.5708 27.8293 20.0158 2.57042 -1.58984 -1.74728
25.2997 29.0003 17.3986 0.790163 -0.0388151 0.182927
27.4854 29.783 19.1069 -1.0773 0.0390989 -1.87233
28.3245 27.0386 19.3767 -0.369633 0.385194 1.14642
28.0534 28.2096 16.7595 -2.37468 -2.93412 0.381647
30.2391 28.9922 18.4679 0.422705 0.32245 -0.672244
30.1595 26.3108 17.2764 -0.760056 0.593676 0.303378
32.4248 29.7749 20.1762 0.727453 -0.479567 0.0622062
32.3452 27.0934 18.9847 -1.16143 0.32572 0.0729441
34.2598 29.0471 18.0759 0.50169 -0.81446 -0.962946
34.1802 26.3656 16.8844 1.28962 -0.473133 -0.228761
11.7977 32.4757 17.1831 -2.53542 0.328485 -0.645344
9.44831 31.8563 18.734 -0.204875 0.0230959 1.55414
14.4182 31.9241 18.2494 0.467915 0.412665 -0.744101
12.0688 31.3047 19.8003 -0.181291 -0.35292 0.913406
17.0387 31.3725 19.3157 -1.20074 -0.0654292 -0.294859
16.7676 32.5434 16.6985 -0.815203 0.602838 1.29711
18.9533 33.3261 18.4069 -0.863783 -2.49695 3.0101
19.7924 30.5818 18.6767 -0.490601 -0.614871 1.97843
21.9781 31.3644 20.385 -0.431493 -0.0995078 -0.408855
21.707 32.5354 17.7678 -1.09017 -0.95708 -0.78845
24.7318 30.5737 19.746 -0.651578 -0.715104 -0.770792
24.4606 31.7447 17.1288 -0.0834333 0.0641536 -0.729758
27.2143 30.9539 16.4897 0.462029 -1.98077 -0.582473
23.8927 33.3181 19.4761 2.48526 0.446663 0.752717
26.6464 32.5273 18.8371 0.421133 1.90371 -1.6095
29.4 31.7366 18.198 -0.983895 0.0181419 1.29387
31.3146 33.6903 17.2892 0.0652753 -1.18936 1.7871
32.1537 30.9459 17.559 0.0834021 -1.65664 -0.583828
31.5857 32.5193 19.9064 0.997083 -1.83291 -1.24195
11.2298 34.0491 19.5305 0.662661 -1.61867 -0.441641
13.5791 34.6684 17.9796 -1.09617 0.475135 0.455539
15.3606 36.8612 18.7761 0.241302 -0.300499 -1.77359
13.0112 36.2419 20.327 -0.151228 -0.893067 0.957943
16.1997 34.1169 19.0459 1.09163 0.548701 0.312984
18.1142 36.0705 18.137 -0.182932 2.01023 1.97327
21.139 34.1088 20.1152 -0.838205 -0.269407 -0.681568
20.8679 35.2798 17.498 1.71583 -0.300358 -2.6685
20.3 36.8532 19.8454 -0.58782 -2.7196 -1.27086
23.0536 36.0625 19.2063 0.994622 0.417281 0.371852
23.6216 34.489 16.8589 -0.678905 0.000371901 -0.684999
25.8073 35.2717 18.5673 -0.173178 -0.323381 -0.485743
28.5609 34.481 17.9282 0.717717 1.24703 -0.687774
14.5621 5.94903 24.0436 -0.319094 -0.816059 -0.617532
13.5942 4.35466 21.846 -0.154974 0.883966 -1.05329
11.9416 6.5006 22.9773 -0.925051 -1.293 1.52763
16.9115 6.5684 22.4927 -0.187826 0.430508 0.184223
19.0176 4.66961 23.0096 0.819375 -0.846917 -2.56563
16.2148 3.80309 22.9123 0.681947 -0.332371 0.609345
18.0498 3.07524 20.812 1.64226 0.121033 0.735889
21.8204 5.53613 23.1069 0.531893 1.37234 0.75208
21.5493 6.70708 20.4897 0.135436 0.0954215 2.28895
20.8526 3.94177 20.9093 -0.236081 -0.900656 -0.218213
24.6233 6.40266 23.2042 1.72976 1.39627 0.019823
26.4583 5.6748 21.1039 -1.78551 -0.563237 -1.58329
23.6555 4.80828 21.0066 -0.499368 0.23007 0.327247
29.2611 6.54133 21.2012 0.18253 1.97796 -0.878626
10.2889 8.64654 24.1086 0.0958967 0.0167733 -3.26154
10.0178 9.8175 21.4914 0.805009 -0.470312 1.12025
15.2588 8.71434 23.6241 0.104701 -1.12239 1.77282
14.9876 9.8853 21.0069 0.482947 0.57422 -1.49736
14.2909 7.11998 21.4264 0.408596 -0.0670365 -0.622888
12.6383 9.26593 22.5577 -1.23081 -0.884829 -1.30355
17.6082 9.33372 22.0732 -0.892101 0.804844 -1.09079
20.411 10.2002 22.1705 0.0574246 -1.03912 1.56379
22.5171 8.30145 22.6874 0.0195044 0.821879 -3.21855
19.7143 7.43493 22.5901 -0.953736 -0.165967 -3.14777
25.32 9.16797 22.7847 -0.095276 0.741496 -1.29928
27.4261 7.26917 23.3016 -0.822576 -1.06007 -1.45944
27.155 8.44013 20.6844 -0.383666 0.707252 0.269501
24.3522 7.57361 20.587 -2.27256 0.233003 0.392564
28.1228 10.0345 22.882 -0.0134392 1.24436 1.17068
30.229 8.13569 23.3989 0.120091 0.666216 -0.0141677
29.9578 9.30664 20.7817 0.481854 0.539894 0.97969
33.0318 9.00222 23.4962 -0.619251 1.11819 1.67061