ITEM: TIMESTEP
0
ITEM: NUMBER OF ATOMS
1228
ITEM: BOX BOUNDS ss ss ss
3.2743945910141194e+00 3.7183448512478421e+01
2.3433197254304519e+00 3.8430671993117762e+01
4.6877004700743976e+00 3.6102300529256738e+01
ITEM: ATOMS x y z vx vy vz
19.4969 9.79653 7.82326 -0.281708 0.442285 -0.987045
16.6941 8.93 7.72594 0.489831 0.262695 -2.29075
18.8002 7.03121 8.24281 -0.276859 -0.385554 -0.0987622
24.4059 8.76425 8.43744 -0.381865 0.1809 -1.61942
21.6031 7.89773 8.34012 -0.803518 1.06595 -1.24856
27.2087 9.63078 8.53476 -1.39645 1.69185 1.47254
15.2846 13.5941 6.78952 1.34911 -0.0122779 0.458091
14.5879 10.8288 7.20908 -0.377196 1.28254 1.48232
12.9353 12.9747 8.3404 -1.27901 -0.550056 -1.44009
20.1936 12.5618 7.40371 -0.568225 0.431324 -0.555926
17.3908 11.6953 7.30639 0.389373 -1.49405 -1.31936
22.9965 13.4284 7.50103 -1.14013 -0.879553 0.914304
22.2998 10.663 7.92057 0.259416 -0.0433884 1.3659
25.7993 14.2949 7.59834 -1.05677 -0.591151 -0.171707
27.9055 12.3961 8.11521 0.30183 -1.417 0.649741
25.1026 11.5296 8.01789 1.20935 1.62229 0.0541019
30.7083 13.2626 8.21253 -0.803677 1.27554 -1.96478
15.9813 16.3594 6.36998 -1.76579 -0.736517 0.617242
13.632 15.7401 7.92085 -0.932447 1.18897 0.888763
16.9492 17.9538 8.56763 1.74381 -0.710129 2.35876
18.7842 17.226 6.46729 -1.08546 1.3802 -0.462765
18.0875 14.4606 6.88684 1.34216 0.75618 0.232519
21.587 18.0925 6.56461 -0.102236 0.210054 -2.09061
23.6932 16.1937 7.08148 0.325926 0.581964 -0.839192
20.8903 15.3272 6.98416 0.63504 1.03524 0.291807
26.496 17.0602 7.1788 0.663549 -0.498071 0.694998
28.6022 15.1614 7.69566 -0.872291 -0.70984 0.211049
29.2989 17.9267 7.27611 -0.993156 0.797211 0.455072
31.405 16.0279 7.79298 2.13761 -1.72166 1.03123
15.0254 21.2707 7.08175 0.883254 -1.56778 -0.831208
14.3287 18.5054 7.5013 2.38966 -1.59055 -0.38532
17.6459 20.7191 8.14808 3.11585 -0.726846 0.407494
17.3747 21.8901 5.53088 0.518094 0.904892 0.259595
19.4809 19.9913 6.04774 -3.21338 -1.07887 0.450156
16.6781 19.1248 5.95043 0.298031 0.105525 -1.05104
20.4487 21.5856 8.2454 0.608425 -1.10329 1.17233
22.2837 20.8578 6.14506 0.603454 -0.467397 1.42391
24.3899 18.959 6.66193 -0.282777 0.300924 -0.575042
25.0866 21.7243 6.24238 0.155317 -2.63785 1.36858
27.1927 19.8255 6.75924 -1.1866 0.215738 1.26105
29.3785 20.6082 8.46758 0.842382 -0.387076 1.75702
14.0694 26.182 7.79353 0.73986 -0.663415 2.38466
15.7221 24.036 6.6622 0.399727 -0.557681 -1.14613
13.3727 23.4166 8.21307 1.23297 0.0458446 -1.81258
19.0393 26.2498 7.30898 0.889785 -0.224658 -0.0637451
18.3426 23.4844 7.72853 0.333403 1.23313 0.768305
18.0715 24.6554 5.11133 1.32324 0.538166 1.30406
20.1776 22.7566 5.6282 1.35173 -1.04763 -0.682085
21.1454 24.351 7.82585 -1.74672 1.98406 0.432232
20.8743 25.5219 5.20865 0.661999 2.34684 -2.82656
23.06 26.3046 6.91698 0.00685064 -1.65883 -0.21117
23.2516 22.4522 8.34272 -0.671831 -0.248564 0.900199
22.9804 23.6231 5.72551 -0.0754972 -1.3477 1.42281
25.1662 24.4058 7.43384 0.895295 0.312386 -1.75366
27.2723 22.507 7.95071 -0.662353 1.24469 1.63551
15.8509 28.3748 8.59004 -0.647775 0.0036935 0.513152
18.7682 27.4207 4.69178 0.836414 0.00306585 0.644896
16.4188 26.8013 6.24265 -1.38593 -0.649377 -2.09911
18.2002 28.9941 7.03917 0.802262 -0.92744 1.78895
20.9539 28.2034 6.40011 -0.477714 0.44083 -1.88249
23.1396 28.9861 8.10845 0.890224 -0.144623 0.26173
19.0713 5.86026 10.86 0.0623379 0.69755 0.252956
9.88917 9.59004 10.3108 0.425012 -1.0263 2.37104
15.1302 8.4869 12.4435 -2.40628 -0.21155 0.788756
14.8591 9.65785 9.82628 -0.436264 0.304997 1.10965
12.5097 9.03848 11.3771 1.04811 2.66828 0.645336
12.2385 10.2094 8.75995 -0.321948 -0.796816 0.0312014
17.9331 9.35342 12.5408 -1.74719 1.07643 1.4442
19.7681 8.62558 10.4405 1.16966 -0.730745 -0.745704
16.9652 7.75905 10.3431 -0.442421 0.390746 -1.46622
22.5709 9.49209 10.5378 -0.849417 -0.559366 1.5706
21.8742 6.72677 10.9573 0.953768 -2.42344 -0.616617
25.3737 10.3586 10.6351 -0.344093 -0.668097 -0.212524
27.4799 8.45982 11.152 0.34881 0.0539917 0.0153472
24.677 7.59329 11.0546 -1.28757 -1.72422 1.34046
30.2827 9.32634 11.2493 -1.58291 -1.13872 -1.40851
11.5537 13.9497 12.0889 0.798616 -0.516682 -0.512475
10.857 11.1844 12.5085 -0.946208 -1.48364 0.871946
10.5859 12.3554 9.89126 2.6757 -0.210028 0.414228
8.2365 11.736 11.4421 -1.07251 -0.19148 -1.32814
15.8269 11.2522 12.0239 -0.0122562 1.03471 -0.352009
15.5558 12.4232 9.40673 2.30309 2.05528 1.07403
13.2064 11.8038 10.9576 0.608837 -1.43847 -0.704845
16.5236 14.0175 11.6044 -0.45397 -2.00055 -0.680042
18.6298 12.1187 12.1212 0.385881 1.56602 1.05146
18.3586 13.2897 9.50405 0.255979 -0.437157 -1.07864
17.6619 10.5244 9.9236 -1.14393 0.6989 -0.0143041
24.2354 13.8518 12.3159 -0.502093 0.403614 0.730835
21.4326 12.9853 12.2186 0.548878 1.04902 1.13803
21.1615 14.1562 9.60136 -0.605634 1.38829 -0.117771
23.2676 12.2574 10.1182 0.418856 -1.10782 -1.96902
20.4648 11.3909 10.0209 -0.936138 -0.281516 0.758734
26.0705 13.1239 10.2155 0.71483 -1.4534 1.16108
28.1766 11.2251 10.7324 -0.426809 0.750243 0.585015
28.8733 13.9905 10.3129 1.60398 -0.583012 -1.6999
30.9794 12.0917 10.8297 0.446327 -1.13013 -1.15662
30.0116 10.4973 8.63208 -0.36044 1.55874 0.856524
7.28053 16.6472 12.1539 0.0847829 1.41961 -0.645908
11.2826 15.1207 9.47172 -1.03549 -0.352322 0.249008
9.62991 17.2666 10.603 0.482222 -0.752881 -2.11126
8.9332 14.5013 11.0226 -0.685693 0.362975 2.45278
14.5998 17.3344 10.1185 -0.106359 -0.807633 0.0330641
13.9031 14.5691 10.538 -2.26045 -0.270939 0.0792561
12.2504 16.7151 11.6694 1.03163 -1.37692 0.425061
11.9793 17.886 9.05217 0.782568 -0.392761 0.0189287
20.0232 17.6494 11.2822 -0.662546 -0.246571 1.57328
17.2203 16.7829 11.1848 1.53689 -0.0226839 3.58713
19.3265 14.8841 11.7017 0.5178 1.48771 0.0791848
19.0553 16.055 9.0845 -1.08007 -0.0800146 -1.58931
16.2525 15.1885 8.98718 0.201006 0.000640087 0.404584
22.1293 15.7506 11.799 0.539387 -1.30412 -1.12613
21.8582 16.9215 9.18182 -0.998649 3.14413 -2.44983
23.9643 15.0227 9.69868 0.280649 0.0951129 0.649489
27.735 17.4836 11.9937 2.53242 0.306072 -0.0491988
24.9322 16.6171 11.8963 2.00687 -1.46221 -1.46704
24.661 17.7881 9.27913 1.55173 -0.248837 -0.299122
27.0383 14.7183 12.4132 0.725352 1.35439 -1.36698
26.7672 15.8893 9.796 0.886839 0.697299 -1.83995
29.8411 15.5848 12.5105 1.30908 0.35127 -0.0733
29.57 16.7558 9.89332 -0.858014 -0.589997 -1.4984
31.7557 17.5385 11.6016 -2.15752 -0.839904 0.907405
31.6761 14.857 10.4102 -0.144948 -1.08129 0.687218
33.8619 15.6397 12.1185 -0.923937 2.09735 -2.92321
33.5907 16.8106 9.50131 0.230369 0.936108 -0.698693
35.7765 17.5933 11.2096 0.837322 1.0091 0.400246
11.2945 21.6263 12.3811 0.946139 0.202124 1.56646
10.3266 20.032 10.1835 -0.557299 -2.13743 -0.77723
8.67395 22.1779 11.3148 1.0076 0.555325 -0.945871
7.97724 19.4126 11.7344 -0.0289717 0.0920115 0.692921
15.5677 18.9288 12.3162 -0.957692 -1.96743 -0.29013
15.2965 20.0997 9.69895 0.102318 -2.18982 -0.346257
13.6438 22.2457 10.8303 0.310915 2.30316 -1.89483
12.9471 19.4804 11.2498 -2.5965 -0.544096 1.34625
12.676 20.6513 8.63262 -1.01263 -0.344976 -0.189975
18.6137 22.3135 10.3457 1.06076 -0.142834 0.253872
17.917 19.5482 10.7653 -0.424764 0.653664 -1.42367
16.2644 21.6941 11.8966 -0.802339 -1.84051 0.259098
19.752 18.8203 8.66495 2.47234 1.67399 1.30501
23.5227 21.2812 10.9599 -0.862246 0.609112 -1.26101
20.7199 20.4147 10.8626 -0.993619 0.339792 -0.48597
22.826 18.5159 11.3795 -1.56007 0.438669 0.611544
22.5549 19.6868 8.76226 -0.531342 -1.17776 -0.780428
25.6289 19.3824 11.4768 -0.386371 -2.26495 -0.792138
25.3577 20.5534 8.85958 1.91004 0.0361664 0.179492
27.5435 21.3361 10.5679 -1.63913 -0.658169 1.17365
27.4639 18.6546 9.37645 2.29836 -2.3568 -1.36101
29.7292 22.1187 12.2762 -0.287774 -2.29179 0.169182
29.6496 19.4373 11.0848 -0.631377 -0.179095 -0.158139
31.5642 21.3909 10.1759 0.994456 -1.56293 2.08361
31.4846 18.7094 8.98444 1.77349 1.0305 2.12573
33.7499 22.1736 11.8842 2.36848 -1.99629 -2.12831
33.6703 19.4921 10.6928 2.17046 -0.491405 0.677701
35.8561 20.2748 12.4011 0.24687 0.815536 0.430065
7.02127 24.3239 12.4462 -0.0995627 -1.12447 0.312969
11.72 25.5626 9.34441 -0.911301 0.90615 1.77375
9.37065 24.9433 10.8953 0.0768009 -0.481206 0.449387
11.0233 22.7973 9.76394 -1.12903 -0.829931 0.58803
14.3405 25.011 10.4107 -1.09901 -0.442644 -1.41364
11.9912 24.3917 11.9616 0.733065 -0.871485 -0.62359
19.3104 25.0788 9.92619 -1.35742 -0.343079 0.562934
16.9611 24.4594 11.4771 -0.562228 0.00918803 -0.13063
16.6899 25.6304 8.85986 1.06864 0.528474 1.18532
15.9932 22.8651 9.2794 0.402037 0.0552575 0.00829903
21.4962 25.8615 11.6345 0.133971 -0.244222 -0.303897
21.4166 23.18 10.4431 -1.58365 0.0896442 -0.955812
23.6023 23.9627 12.1514 -0.705907 0.418445 0.128968
23.3312 25.1337 9.53418 1.3764 1.9891 -0.377501
25.5169 25.9163 11.2425 2.04232 -1.53991 -1.64497
25.4373 23.2349 10.051 -1.24008 2.57192 0.963867
27.623 24.0175 11.7594 -0.808211 -0.828407 0.323715
27.3519 25.1885 9.14218 0.994093 -2.93569 0.623919
29.5376 25.9712 10.8505 0.771827 -0.741317 -1.71252
29.458 23.2897 9.65905 1.46167 -0.463995 -1.28851
31.6438 24.0724 11.3674 0.80874 -0.941797 -0.373495
11.1521 27.136 11.6918 0.0631138 0.794313 -0.0190921
13.5015 27.7554 10.1409 0.180225 -0.917206 -0.280229
15.2829 29.9482 10.9374 -1.67052 -1.12765 0.783384
12.9335 29.3288 12.4883 -0.209203 -0.652031 0.496672
18.7425 26.6522 12.2736 1.17301 -0.536646 -1.06748
18.4714 27.8232 9.65637 0.873613 2.00378 -0.243227
16.122 27.2038 11.2072 -0.90238 -0.479638 2.01456
17.9034 29.3966 12.0038 -0.213154 -1.17342 0.88085
21.225 27.0324 9.01732 -1.94927 -0.297911 -1.90548
20.6571 28.6059 11.3647 -0.717813 -0.610658 0.332716
20.386 29.7768 8.7475 -0.95927 -0.33432 0.904365
23.4108 27.8151 10.7256 -2.05805 1.42932 -0.160831
25.5965 28.5978 12.434 -1.2199 0.651563 -1.20972
25.3254 29.7688 9.81678 -0.887373 -1.40916 1.08331
25.2458 27.0873 8.62531 0.710729 -0.038242 1.88532
27.4315 27.87 10.3336 -1.0258 0.715555 0.0559167
29.6172 28.6527 12.042 -0.275052 -0.995874 0.614051
17.6323 30.5676 9.38655 -0.289545 -0.360331 0.306118
17.0644 32.141 11.7339 1.38577 0.0964288 -0.0410504
19.818 31.3502 11.0949 0.486372 0.446422 -2.4872
22.5717 30.5595 10.4558 1.2254 0.521037 2.38813
24.7574 31.3422 12.1642 -0.493928 1.57869 -0.686431
27.5111 30.5515 11.5251 -0.973111 -0.999483 0.495166
17.5075 5.41715 15.5776 -1.07169 1.89358 -0.812355
19.6136 3.51835 16.0944 -1.12758 -0.0424047 -0.383702
19.3425 4.6893 13.4772 0.261106 0.909054 -0.835521
20.3103 6.28367 15.6749 0.642969 -1.96996 -0.216807
22.4165 4.38487 16.1917 0.401496 0.923581 -2.88171
22.1453 5.55582 13.5745 1.90937 -0.225073 0.745903
28.0222 6.11792 16.3864 -0.375361 -0.225952 0.344611
25.2193 5.25139 16.2891 0.452598 -0.0391888 1.12051
11.1282 10.0135 15.1257 -3.14766 -0.815093 -0.204685
10.4314 7.24814 15.5452 0.262051 1.09036 0.608475
10.1603 8.41909 12.928 -1.41455 -1.21945 1.77188
15.4013 7.31595 15.0607 0.223014 0.323033 1.37408
13.7487 9.46189 16.192 0.0638233 0.927314 0.27097
12.7808 7.86752 13.9944 0.943935 0.458335 -1.48856
16.098 10.0813 14.6411 1.27584 0.971091 0.663288
18.2042 8.18247 15.158 -2.14791 0.382559 -2.40093
20.0392 7.45462 13.0577 0.487059 0.12224 1.75968
17.2363 6.5881 12.9603 0.0537339 -1.80419 -0.0608807
23.8099 9.91551 15.3526 -0.395528 1.36025 0.465361
21.007 9.04898 15.2553 1.30657 0.470864 -0.300129
20.7359 10.2199 12.6381 0.0773164 1.59694 -0.018798
23.1132 7.15019 15.7722 0.266943 -0.351373 0.278164
22.842 8.32114 13.155 0.963629 1.67945 -0.895806
28.4477 10.0542 13.3496 0.341581 1.16689 -1.01401
25.916 8.01671 15.8695 -1.29432 -2.67559 -2.64506
25.6449 9.18766 13.2523 0.59049 0.483598 -1.46734
27.751 7.28887 13.7692 -0.51757 0.176354 -1.20259
24.9482 6.42234 13.6718 -1.14754 1.23517 0.841997
31.5217 9.74976 16.0641 0.906382 0.711943 -1.0777
28.7189 8.88324 15.9668 -0.084391 -2.03616 -0.984042
30.5539 8.15539 13.8665 1.5087 0.47146 0.686712
6.85496 12.711 15.1907 1.0666 -0.196523 -0.407233
6.58382 13.8819 12.5735 -1.08053 -0.0337454 0.85075
9.47548 12.1594 16.257 -2.03511 -0.230662 0.137569
9.20434 13.3304 13.6398 2.43668 -0.91607 1.14343
8.50764 10.565 14.0593 -0.363469 -1.04945 -1.20537
14.4454 12.2272 15.7725 1.46934 0.0955215 2.23587
14.1742 13.3982 13.1553 -0.985638 -0.657367 -1.78951
13.4775 10.6328 13.5748 0.47881 1.70781 0.450226
11.8249 12.7788 14.7061 -0.261559 1.6702 -0.256066
19.5976 13.7131 14.3189 0.224837 -1.27331 0.209533
16.7948 12.8466 14.2216 -0.0845833 -1.38876 0.594075
18.9009 10.9478 14.7385 0.769548 1.59341 -1.72793
21.7037 11.8143 14.8358 -0.878293 -0.269351 0.854994
23.5387 11.0865 12.7354 -2.40701 -0.407391 0.420332
27.3094 13.5474 15.0304 0.406151 -1.3634 0.0480666
24.5066 12.6808 14.9331 -0.305239 -2.23566 0.946996
26.6127 10.782 15.45 -1.86275 -0.433142 1.5824
26.3416 11.953 12.8328 1.15129 0.155999 0.903619
32.2184 12.5151 15.6446 -0.0156551 1.42105 1.30363
31.9473 13.686 13.0274 -0.022747 -1.68021 -0.533625
29.4156 11.6486 15.5473 -0.784919 -0.938406 -0.462449
29.1444 12.8195 12.9301 -0.159979 0.454895 -0.387029
31.2506 10.9207 13.4469 0.197958 -1.05441 0.126016
5.899 17.6222 15.9024 -0.579093 0.289525 0.624961
5.20229 14.8569 16.322 -1.30363 -0.116879 0.549279
4.93115 16.0279 13.7048 0.450576 0.415737 2.46028
3.27847 18.1738 14.8361 0.957446 1.32733 -0.982295
10.8689 17.69 15.4179 0.314895 -1.66345 -0.800722
10.1722 14.9247 15.8374 0.978185 -0.707137 -0.615347
9.90105 16.0957 13.2202 -0.888173 0.874721 -0.234328
8.24837 18.2416 14.3516 -0.649436 0.791615 0.761603
7.55166 15.4763 14.7711 0.590431 -1.5672 -0.143851
15.8388 17.7578 14.9334 -0.283847 2.5675 -0.266649
15.1421 14.9925 15.3529 -0.116228 -0.505549 1.92542
14.8709 16.1635 12.7357 0.280304 -2.6848 -0.0872362
13.2183 18.3094 13.867 0.714419 0.83218 0.307012
12.5216 15.5441 14.2866 -0.00686548 0.33199 -1.04648
18.4593 17.2063 15.9997 0.256661 0.515332 -0.888385
18.1882 18.3772 13.3825 -0.35069 -2.31999 -0.813078
17.7626 14.4409 16.4192 -0.41377 -1.02998 -0.046711
17.4915 15.6119 13.802 0.294685 -0.271238 1.55286
21.2621 18.0728 16.097 -2.47244 0.554264 0.851367
23.0971 17.3449 13.9967 0.780356 1.08773 0.089472
20.2943 16.4784 13.8994 0.437539 -0.0838826 1.33842
22.4004 14.5796 14.4162 0.362514 0.590888 0.942725
25.9 18.2115 14.094 0.526723 -0.0663761 0.373027
28.0061 16.3127 14.6109 0.561 -0.27913 0.765621
25.2033 15.4461 14.5135 -0.668035 -0.807722 0.46922
30.1919 17.0954 16.3192 -0.547075 -1.42157 1.89807
29.9207 18.2663 13.702 -0.760989 1.59815 1.18261
30.1123 14.4139 15.1277 0.607965 2.98997 -0.345455
32.0269 16.3675 14.2189 -0.590289 -1.00311 0.332545
34.2126 17.1502 15.9272 1.03887 -0.865116 -0.517886
33.9415 18.3212 13.31 1.73427 0.925036 -1.86526
34.133 14.4687 14.7357 -2.49655 0.364055 1.18335
36.3187 15.2514 16.4441 0.345365 -0.503459 -0.51064
36.0476 16.4224 13.8268 -1.39068 0.233181 1.58222
6.5957 20.3876 15.4829 -2.16244 0.860661 -0.982228
6.32456 21.5585 12.8657 -2.1008 -1.33662 1.51003
5.62786 18.7932 13.2852 1.1421 -0.0839606 1.17215
3.97518 20.9391 14.4166 -0.155024 0.325959 0.701114
11.5656 20.4554 14.9983 0.959521 0.48081 1.77561
10.5978 18.861 12.8007 -0.748 0.560798 -0.653643
8.94508 21.0069 13.932 1.7041 -1.16895 -0.761399
14.1861 19.9038 16.0647 -0.281957 -0.215231 -0.894501
13.915 21.0747 13.4475 1.0162 0.428537 -1.09142
19.156 19.9716 15.5801 0.299889 0.880394 1.35771
18.8849 21.1425 12.9629 0.328756 -0.185975 0.926838
16.5355 20.5232 14.5138 0.909307 1.882 0.673734
21.9589 20.8381 15.6775 0.505807 0.588311 1.62544
21.6877 22.0091 13.0603 -0.103486 -0.569087 -0.578018
24.065 18.9393 16.1943 0.835589 -1.19984 0.444582
23.7939 20.1103 13.5771 0.785237 2.08374 -0.482358
20.991 19.2437 13.4798 0.148555 0.183821 -1.51377
25.9796 20.8929 15.2855 -0.353421 -0.170941 -1.79155
25.7084 22.0639 12.6683 0.971207 0.77073 0.250913
28.0857 18.9942 15.8023 0.988747 -2.46272 -2.99349
27.8146 20.1651 13.1851 -0.169813 0.0935151 -1.89203
30.0003 20.9478 14.8935 -0.766731 1.06606 0.116464
32.1065 19.049 15.4103 -0.702693 1.31969 0.589445
31.8353 20.2199 12.7931 -1.33606 1.97752 0.715425
34.0211 21.0026 14.5014 1.65076 -2.92947 1.49693
36.2068 21.7853 16.2098 0.0496697 -0.0446602 -2.44404
36.1272 19.1038 15.0183 0.708122 0.00586351 0.49847
7.29241 23.1529 15.0634 -0.605483 -0.475734 1.55115
4.6719 23.7045 13.997 -0.423061 0.858937 -1.66619
6.45335 25.8973 14.7935 0.581147 -0.862662 -1.61253
4.10396 25.2779 16.3444 -1.32237 0.703444 -1.50262
9.91292 22.6014 16.1297 -0.497152 0.908331 0.834527
9.64179 23.7723 13.5125 -0.640873 0.70484 0.673987
11.4232 25.9651 14.309 -0.303543 -1.21715 -0.459032
9.07386 25.3457 15.8599 -0.468047 -1.54962 -0.618322
14.8828 22.6691 15.6451 -0.278867 -0.678922 -1.37474
14.6117 23.8401 13.0279 -0.319689 -0.040499 0.911684
12.2623 23.2207 14.5788 0.200896 0.204883 0.726214
14.0438 25.4135 15.3753 -0.616213 -0.265085 0.679182
19.8527 22.7369 15.1606 -1.2783 1.21272 0.981606
19.5816 23.9079 12.5434 0.0238274 0.599803 0.246152
17.2322 23.2885 14.0943 -0.733592 2.09627 -2.34874
19.0137 25.4813 14.8908 -0.125373 0.231669 1.69864
16.6643 24.8619 16.4417 0.421934 0.707753 0.48955
16.3931 26.0329 13.8244 1.55058 0.978962 0.483399
21.7673 24.6905 14.2517 1.60994 0.0820506 -0.817328
23.953 25.4732 15.9601 0.877162 0.504842 0.97892
23.8734 22.7917 14.7686 -0.445992 0.524747 1.01194
25.788 24.7454 13.8597 1.51447 -0.611879 -0.885813
27.9738 25.5281 15.5681 1.59279 0.54553 -0.304206
27.8942 22.8466 14.3766 -3.19508 -1.24446 0.279562
30.0799 23.6293 16.0849 -1.07224 -0.901259 -0.171736
29.8088 24.8002 13.4677 0.292194 -2.00054 -2.01559
31.9945 25.5829 15.176 -0.206688 -0.233153 -0.590905
31.9149 22.9014 13.9846 0.426309 1.87772 0.074758
34.1006 23.6841 15.6929 0.349202 1.81367 0.567806
33.8295 24.8551 13.0757 0.683421 1.71701 0.541456
36.0152 25.6378 14.784 -0.00989264 0.536947 1.3301
35.9356 22.9563 13.5926 0.943015 0.00450346 -0.627747
8.80272 26.5167 13.2427 0.0328259 -0.840237 0.0086799
10.5842 28.7095 14.0392 0.102788 0.0226324 -0.878824
8.23479 28.0901 15.5901 1.44979 0.394835 -2.09399
10.0162 30.2829 16.3866 -0.359741 0.989483 -0.089612
13.7726 26.5844 12.7581 -1.04878 0.701018 -0.888141
15.8252 27.6063 16.1718 0.136249 -0.972001 0.724993
15.5541 28.7772 13.5546 -1.28898 -1.32344 -0.465349
13.2047 28.1579 15.1055 -0.192844 0.352485 -2.1147
14.9861 30.3507 15.902 0.059464 -1.82544 -0.917533
18.1746 28.2256 14.621 -0.936905 0.0287527 1.39743
20.0892 30.1793 13.7121 0.114281 0.900474 0.788184
20.9282 27.4349 13.9819 -0.985802 -0.843764 1.51981
23.6819 26.6442 13.3429 -1.11618 -0.103685 0.679968
20.3603 29.0083 16.3293 0.105961 2.72862 -0.287913
23.114 28.2176 15.6902 2.62413 -0.392984 0.4983
22.8428 29.3886 13.073 0.974171 0.253849 -2.02144
25.8676 27.4269 15.0512 -1.71894 -0.508592 0.24117
25.0286 30.1712 14.7814 -0.86327 -0.020075 0.026937
27.7822 29.3805 14.1423 0.588581 -0.834894 0.178535
27.7026 26.699 12.9508 0.762246 -1.14634 1.36479
29.968 30.1632 15.8507 -2.28512 2.10223 0.617891
29.8884 27.4817 14.6592 -0.39217 -0.401709 0.981628
32.0741 28.2644 16.3675 0.383016 -0.241173 1.11306
31.8029 29.4353 13.7503 1.08661 0.0284186 1.0574
31.7234 26.7539 12.5588 -0.617517 1.45032 -1.27232
33.9887 30.218 15.4586 0.187827 -0.0421558 -0.146429
33.9091 27.5366 14.2672 0.423149 2.02444 1.72575
36.0948 28.3192 15.9755 0.00520803 -0.911537 1.40901
14.715 31.5216 13.2848 -0.926299 0.334448 -0.0136326
12.3656 30.9022 14.8357 0.120602 0.741416 2.07103
14.1471 33.095 15.6322 0.335316 2.48512 -1.19093
17.3355 30.97 14.3511 -1.28146 1.04683 -1.15632
16.4964 33.7144 14.0813 0.239948 0.0801254 0.596192
19.5212 31.7527 16.0595 -0.50502 0.0485572 1.72123
19.2501 32.9237 13.4423 1.07971 -0.845686 0.0869987
22.2749 30.962 15.4204 -0.280112 -1.37532 -0.700395
22.0038 32.1329 12.8032 -0.608806 -2.53036 -1.60759
21.4358 33.7063 15.1506 -0.309276 0.736579 1.8708
24.1895 32.9156 14.5115 -2.49029 1.80725 -1.16315
26.9431 32.1249 13.8725 0.707587 -0.343509 -1.05915
26.3752 33.6983 16.2199 0.557374 -2.02099 -0.314333
29.6968 31.3341 13.2334 -0.0263883 -2.00935 0.20496
29.1289 32.9076 15.5808 1.54605 0.863226 -1.65362
31.8825 32.1168 14.9418 -0.448981 2.39649 0.381162
15.9285 35.2878 16.4287 0.230184 2.5975 -0.424685
18.6822 34.4971 15.7897 -3.44728 0.137599 -1.12244
10.7026 6.07719 18.1624 0.749791 0.442817 0.94289
15.9436 4.97404 20.2951 0.831255 -2.68 1.27186
15.6725 6.145 17.6779 1.1768 -1.60399 -1.24346
13.3231 5.52562 19.2288 -2.53481 -0.391604 -1.10197
18.7465 5.84056 20.3924 0.111563 2.10118 -0.0132377
17.7786 4.24619 18.1948 -0.718412 0.0390821 -0.439159
19.8848 2.3474 18.7116 0.292761 0.423488 0.534069
23.3843 5.97924 18.3894 -1.05689 0.745142 0.986442
20.5815 5.11272 18.2921 0.139449 0.780642 0.0585067
22.6876 3.21392 18.8089 -0.164481 -0.95574 -0.600095
28.2933 4.94697 19.0036 -0.638469 -0.31693 0.257885
25.4905 4.08043 18.9063 -2.34307 0.929402 -0.642211
31.0961 5.81348 19.1009 -2.72348 -0.520182 0.359587
11.6704 7.67155 20.3601 -0.953921 -0.323353 -0.0890411
11.3993 8.84251 17.7429 -2.01842 -0.624617 -1.05945
9.04991 8.22314 19.2937 -0.202267 0.330292 -1.6116
8.77877 9.39409 16.6765 2.57099 -0.158529 -0.483453
14.0198 8.29094 18.8092 0.390646 -0.286264 0.228183
13.052 6.69657 16.6116 0.0321093 -1.31221 1.36479
19.4432 8.60588 19.9729 1.35208 1.0481 -0.374254
19.172 9.77683 17.3557 -1.76036 0.593196 0.611805
16.6403 7.73935 19.8755 -0.254309 0.884634 -0.339163
16.3692 8.91031 17.2583 -0.638241 -0.391435 0.354439
18.4753 7.01151 17.7752 -0.284426 -0.524862 -0.468035
22.246 9.4724 20.0702 1.01256 0.261979 -0.676317
24.081 8.74456 17.9698 -2.3001 0.590392 0.591312
21.2782 7.87803 17.8725 -0.525017 2.00406 -0.400521
25.0489 10.3389 20.1675 0.67404 -1.80513 -2.02619
26.8839 9.61108 18.0672 0.571198 -0.946792 0.602935
26.1872 6.84575 18.4867 -0.988978 0.993365 -0.741591
31.7929 8.5788 18.6813 -0.0432172 -1.1506 -1.13284
28.99 7.71229 18.584 0.836567 -0.512338 -0.5842
30.825 6.98444 16.4837 1.77284 1.79398 0.871395
7.1261 11.54 17.8079 1.19092 1.76814 1.48065
5.47342 13.686 18.9392 0.128566 2.40371 0.27743
10.4433 13.7538 18.4546 -0.573359 -1.39359 -1.93458
9.74661 10.9884 18.8742 -1.66178 0.462443 0.843713
8.09394 13.1344 20.0055 0.749048 1.37115 0.627946
7.8228 14.3053 17.3883 1.29988 0.10661 0.949441
15.4132 13.8216 17.9701 -1.83438 -2.36266 1.7493
14.7165 11.0562 18.3897 -1.83307 0.621184 -0.638323
13.0638 13.2022 19.521 -0.764203 -1.67495 0.576002
12.3671 10.4369 19.9405 -0.889722 2.44451 -0.394346
12.096 11.6078 17.3233 0.71799 1.23755 0.166956
18.0337 13.27 19.0364 0.889388 1.24321 1.34166
20.1399 11.3712 19.5533 -1.12013 0.233742 1.4464
19.8687 12.5422 16.9361 -0.391575 -2.06214 -2.28928
17.337 10.5047 19.456 0.792548 -0.633128 -0.919698
17.0659 11.6756 16.8388 -0.0275875 -0.745064 0.364126
20.8366 14.1365 19.1338 0.788906 -0.767694 -0.936239
22.9427 12.2377 19.6506 -0.10577 1.28086 -0.158336
22.6716 13.4087 17.0334 -2.20184 -0.3874 1.2401
21.9749 10.6434 17.453 -1.26375 1.47443 -1.65084
28.5484 13.9708 19.8453 -0.366276 -1.96058 0.072287
25.7456 13.1042 19.7479 1.91887 1.86638 -0.652059
25.4744 14.2752 17.1307 -0.60821 -0.823798 -0.0119751
27.8517 11.2054 20.2648 -0.254841 1.05101 0.598342
27.5806 12.3764 17.6476 -0.180627 0.278572 -0.892144
24.7777 11.5099 17.5503 -0.263237 -0.437155 0.51536
30.6546 12.072 20.3621 1.56908 -1.21336 -0.583003
30.3834 13.2429 17.7449 -1.07373 1.86525 -0.364493
32.5691 14.0256 19.4533 2.2263 0.197145 -0.302532
32.4896 11.3441 18.2618 1.23079 -0.537776 -0.492729
29.6867 10.4776 18.1645 -0.778017 0.326834 0.77819
34.6753 12.1268 19.9701 1.16442 0.0150607 0.0870283
34.4042 13.2978 17.3529 0.282185 0.0707284 -1.0799
36.5899 14.0804 19.0613 -1.75592 -0.0534421 -2.45694
6.17013 16.4513 18.5196 3.29552 -1.50622 -0.557885
3.82075 15.8319 20.0705 0.179409 1.26181 -0.484698
3.54961 17.0029 17.4533 -0.331973 0.0314006 -2.4697
11.14 16.5191 18.0351 1.48403 -1.66549 0.353767
8.79065 15.8997 19.586 -0.185305 0.133506 -0.225405
8.51951 17.0707 16.9688 -1.96441 -0.423835 0.512883
13.7605 15.9675 19.1014 1.21373 1.20394 0.485592
13.4894 17.1385 16.4842 -0.838918 -0.254783 0.478846
12.1079 18.1135 20.2328 -0.93773 1.35648 0.945819
12.7927 14.3732 16.9038 -1.05067 1.04288 -0.707873
18.7304 16.0353 18.6169 1.37639 0.0542022 1.86114
17.0778 18.1813 19.7482 0.545029 0.239731 -0.718888
16.3811 15.4159 20.1678 -0.00874144 0.722229 -1.50091
16.1099 16.5869 17.5506 -1.01574 -1.32756 0.176308
24.3361 17.7684 18.8115 0.827152 -0.244953 0.431888
21.5333 16.9018 18.7142 0.596493 0.221475 0.306851
23.6394 15.003 19.2311 0.468918 1.21153 -3.10075
23.3683 16.174 16.6139 -1.11712 1.00606 1.73851
20.5654 15.3075 16.5166 -1.11863 0.975643 1.94325
26.4423 15.8696 19.3284 1.46206 0.656416 0.0866213
26.1711 17.0405 16.7112 0.707828 -2.22805 1.54419
28.3569 17.8232 18.4195 0.0991033 0.92864 -1.55929
28.2773 15.1417 17.2281 -0.621838 0.366254 -2.08916
30.463 15.9244 18.9364 -2.39525 1.08833 -1.84516
32.3776 17.878 18.0275 -0.678473 0.276315 -1.07704
32.298 15.1966 16.8361 -0.0702509 0.0352759 -0.122244
34.4837 15.9792 18.5444 1.74757 -1.12683 -0.330861
36.6695 16.7619 20.2527 -0.627286 -1.08588 0.441129
36.3983 17.9329 17.6355 1.20497 -0.499789 -1.76865
5.21417 21.3626 19.2314 -0.222862 -0.401291 0.270325
6.86684 19.2166 18.1001 0.987364 0.933129 2.22681
4.51746 18.5972 19.651 1.52176 -1.64963 0.0168742
4.24632 19.7682 17.0338 1.15936 -0.573244 -0.689712
10.1841 21.4304 18.7469 1.06101 0.896777 -0.825882
7.83468 20.811 20.2978 -2 0.0795139 -0.464693
7.56354 21.982 17.6806 -0.597791 -0.79974 0.428449
9.48736 18.665 19.1664 0.386703 1.16298 -1.46264
9.21622 19.836 16.5492 0.404211 0.223598 -2.15479
15.154 21.4982 18.2623 0.691501 0.206567 -1.24446
12.8046 20.8788 19.8132 1.17511 0.805684 -0.300344
12.5334 22.0498 17.196 -2.12135 0.85888 0.570562
14.4573 18.7328 18.6819 1.31983 0.311912 -0.870707
11.8367 19.2844 17.6156 -1.04408 -0.713252 0.165585
20.1239 21.566 17.7778 1.47427 0.520083 0.565552
17.7745 20.9466 19.3287 2.12638 -0.31322 0.583536
17.5033 22.1175 16.7115 0.931215 0.502281 -0.866088
19.4271 18.8006 18.1973 0.312578 -0.583805 -0.111017
16.8066 19.3522 17.131 0.435512 0.796125 0.714345
20.395 20.395 20.395 1.11688 1.05548 0.415893
22.3096 22.3486 19.4861 0.023456 0.897221 -0.796874
22.23 19.6672 18.2947 0.624605 0.195496 1.85223
24.4157 20.4498 20.003 -1.44168 -1.3016 0.273352
24.1446 21.6208 17.3858 0.126309 -1.75567 -0.516712
26.2507 19.722 17.9027 1.05912 -1.92707 -1.24578
28.4365 20.5047 19.611 -1.61106 1.4095 1.74216
28.1653 21.6756 16.9938 -0.121193 -1.13549 0.683174
30.5426 18.6059 20.1279 0.0612559 0.410626 1.15368
30.2715 19.7768 17.5107 -0.121704 -0.537826 -1.81038
32.4572 20.5595 19.219 -0.937761 0.883153 -1.27329
32.186 21.7305 16.6018 -0.818091 0.486101 -1.02145
34.5633 18.6607 19.7359 0.324702 0.328332 -0.225531
34.2922 19.8317 17.1187 -1.0342 0.83678 -0.715099
36.4779 20.6144 18.827 1.9372 -0.143809 1.07084
4.94303 22.5336 16.6142 2.60066 -0.436753 1.04029
6.99562 23.5554 20.028 -1.79326 -0.09276 0.182982
6.72448 24.7264 17.4107 1.26962 -0.383919 0.0837353
4.3751 24.107 18.9616 3.10958 -1.2228 -0.287873
6.15654 26.2998 19.7581 -0.250548 -0.995892 -0.0553349
11.6944 24.7941 16.9262 0.799455 0.273204 -0.0762225
9.34499 24.1748 18.4771 -1.88878 -1.65198 -1.21999
11.1264 26.3675 19.2736 -2.71355 0.0865701 -0.292571
14.3149 24.2425 17.9925 -0.372887 -0.598923 1.85119
11.9655 23.6232 19.5434 1.17504 -0.949308 -1.29609
13.747 25.816 20.3399 -0.434441 -1.40814 0.00812932
19.5559 23.1394 20.1252 1.18201 -0.400408 0.387325
19.2848 24.3103 17.508 -1.15167 0.367095 0.563114
16.9354 23.691 19.0589 3.582 -0.692923 0.47489
18.7169 25.8837 19.8554 -0.394205 0.186251 -0.0122927
22.0384 23.5196 16.8689 -0.688319 -0.0540999 -1.7416
21.4705 25.093 19.2163 -0.311068 2.04167 0.19824
21.1994 26.264 16.5991 -0.105837 -0.889341 0.239556
24.2242 24.3023 18.5773 0.0447459 -0.280339 2.12419
26.4099 25.085 20.2856 1.69174 0.3799 2.13959
26.1388 26.2559 17.6684 1.22744 0.47471 0.917249
26.3303 22.4035 19.0941 1.92037 -0.146835 -0.414686
26.0592 23.5744 16.4769 -0.0800905 0.763472 1.23715
28.2449 24.3571 18.1853 0.835147 1.22015 -0.849535
30.4306 25.1398 19.8936 -1.20075 -1.67361 -1.12784
30.1595 26.3108 17.2764 -0.76193 0.575354 0.269215
30.351 22.4583 18.7021 0.246821 -0.933919 -0.0651978
32.2656 24.412 17.7933 1.58825 1.43239 -1.77067
34.4514 25.1946 19.5016 -0.919634 -0.099561 -0.991302
34.1802 26.3656 16.8844 1.29053 -0.490079 -0.268956
34.3718 22.5132 18.3101 -0.549129 0.154189 0.712297
36.5575 23.2959 20.0185 -2.10914 -2.13893 0.17277
36.2864 24.4668 17.4013 -0.38508 1.28214 -0.206926
5.88541 27.4707 17.1409 0.549453 -0.0349833 -1.20936
3.53603 26.8514 18.6918 0.25778 2.06348 -0.400082
5.31748 29.0441 19.4883 -0.0694312 1.59497 0.962147
10.8553 27.5385 16.6564 -0.954954 1.79779 -1.23277
8.50593 26.9191 18.2073 -0.0221037 0.278828 0.919649
10.2874 29.1119 19.0038 1.60531 0.776877 -1.27157
7.66685 29.6635 17.9374 -0.301867 1.03897 0.258008
13.4758 26.9869 17.7227 0.451074 -0.832334 -0.454626
15.2573 29.1797 18.5192 -0.888093 0.210556 -1.75248
12.9079 28.5603 20.0701 1.72517 -0.582635 0.497698
12.6368 29.7313 17.4529 1.17244 -1.42607 -0.0678259
18.4457 27.0547 17.2382 1.39978 -1.22338 -2.09578
16.0963 26.4353 18.789 0.721282 -0.162078 1.00821
17.8778 28.6281 19.5855 0.434669 0.0669552 0.125183
17.6067 29.7991 16.9683 -0.598202 -2.07539 -1.55246
20.6314 27.8374 18.9465 -2.63093 -0.563059 0.458899
23.3851 27.0467 18.3074 1.35268 -0.161577 -0.160866
22.546 29.791 18.0376 -0.614148 -2.13226 -0.768588
25.5708 27.8293 20.0158 2.57601 -1.61163 -1.7814
25.2997 29.0003 17.3986 0.788468 -0.0624912 0.150428
28.3245 27.0386 19.3767 -0.368894 0.368166 1.11479
28.0534 28.2096 16.7595 -2.3816 -2.96096 0.347251
27.4854 29.783 19.1069 -1.0806 0.020299 -1.91218
30.2391 28.9922 18.4679 0.42177 0.305655 -0.712361
32.4248 29.7749 20.1762 0.728444 -0.492919 0.0192789
32.3452 27.0934 18.9847 -1.16253 0.31171 0.0344
34.2598 29.0471 18.0759 0.500337 -0.829992 -1.0087
36.366 27.1483 18.5927 -0.464148 0.320055 0.220104
7.09893 31.2369 20.2848 -0.121545 -0.4315 -0.22643
9.44831 31.8563 18.734 -0.209159 -0.0130912 1.53936
11.2298 34.0491 19.5305 0.658757 -1.6546 -0.465415