ITEM: TIMESTEP
0
ITEM: NUMBER OF ATOMS
12
ITEM: BOX BOUNDS ss ss ss
1.7704545815608824e+01 2.3085454184391175e+01
1.7759875428549226e+01 2.3030124571450774e+01
1.7749170524275993e+01 2.3040829475724006e+01
ITEM: ATOMS x y z vx vy vz
23.0814 21.4305 20.58 1.30713 -0.605364 1.1644
20.6874 23.026 21.5419 1.35366 -0.286441 -0.51661
20.1026 17.764 19.2481 1.58459 -1.74549 -0.138696
17.7086 19.3595 20.21 -0.766425 1.99881 -2.05617
21.0845 22.5258 18.5764 -1.98694 0.666354 0.177934
21.5465 20.5302 23.0368 0.178778 0.129413 -1.40976
19.2435 20.2598 17.7532 1.15889 0.538875 0.340946
19.7055 18.2642 22.2136 1.01105 0.401639 0.849767
22.189 19.7209 18.2385 -2.10214 0.208385 1.2878
22.4746 18.4875 20.9952 -0.7877 -0.242809 0.524906
18.3154 22.3025 19.7948 -1.74787 -0.782158 0.198379
18.601 21.0691 22.5515 0.796984 -0.281212 -0.422903
ITEM: TIMESTEP
1000
ITEM: NUMBER OF ATOMS
12
ITEM: BOX BOUNDS ss ss ss
1.6541028304393819e+01 2.3167878098703298e+01
1.6784573512645938e+01 2.3789390339129209e+01
1.7854447989430337e+01 2.2378193037214341e+01
ITEM: ATOMS x y z vx vy vz
23.2689 22.5125 21.858 0.541838 -4.1154 -0.451301
21.22 23.7437 21.975 -4.84148 0.247013 -2.15897
20.7055 17.152 19.4582 0.369394 4.53197 -0.692366
16.8934 20.5758 19.9139 2.3498 4.95755 -3.15004
22.0099 21.0186 19.2042 0.0647415 -6.57306 -0.0481914
20.038 22.0052 22.6482 -0.68028 3.16189 2.89917
18.2946 19.1707 19.1576 -5.90989 -3.8485 1.1282
20.6957 19.0865 20.5411 0.98517 4.68253 -1.66533
21.5154 18.5 17.7275 1.22831 -0.680666 1.29274
22.9301 19.3364 19.6949 0.696023 4.307 -1.59394
19.104 21.5138 20.5396 5.21389 -3.89331 3.52197
18.0645 20.1248 22.0218 -0.0175125 -2.77701 0.918059
ITEM: TIMESTEP
2000
ITEM: NUMBER OF ATOMS
12
ITEM: BOX BOUNDS ss ss ss
1.7526284958284045e+01 2.3365381180325571e+01
1.7577278823634501e+01 2.3825218202701649e+01
1.7563414777486589e+01 2.2682497123632103e+01
ITEM: ATOMS x y z vx vy vz
20.0668 19.9328 21.1938 0.15572 3.3529 4.33979
21.5066 23.2021 20.8886 1.98602 1.75724 0.858008
20.9261 18.2593 18.501 1.65259 -0.115357 -1.82073
18.8615 18.6713 19.2811 0.823606 -5.92332 -2.2867
21.2359 21.4195 19.6523 -2.99543 -3.47356 -1.86112
21.5415 22.2637 22.6136 2.70298 -1.76267 -0.316404
18.0282 18.6374 21.7176 4.16795 2.61636 -0.62015
19.9796 17.386 21.4518 -4.21729 -2.21285 1.15164
23.6311 20.5327 17.5716 -0.564245 4.39729 3.63546
22.9762 20.024 19.6084 0.757444 -2.50538 -2.81638
18.6226 22.8322 20.9736 -2.14731 3.06995 -1.91117
17.3639 21.579 21.2868 -2.32202 0.799389 1.64777
ITEM: TIMESTEP
3000
ITEM: NUMBER OF ATOMS
12
ITEM: BOX BOUNDS ss ss ss
1.7798807560739402e+01 2.3242300931329876e+01
1.7959251625726601e+01 2.2277682186126373e+01
1.7852597241355220e+01 2.3213476831637031e+01
ITEM: ATOMS x y z vx vy vz
20.2556 20.2363 23.1939 -0.87344 -3.70834 -0.965955
21.3271 22.3168 21.8074 -0.961296 1.33858 -3.3635
21.4041 17.649 19.6507 3.81516 -7.40288 1.34313
19.124 18.2195 19.169 -4.85258 1.1066 -0.672246
19.1033 20.5154 17.7699 2.4401 1.69263 -0.251155
23.2015 22.0909 20.7836 -0.282902 0.799181 -2.493
17.7304 19.5036 20.5531 -1.5988 1.9853 -1.76996
19.4782 18.5304 22.7169 2.20989 -0.813808 3.10411
21.202 20.2282 20.3415 -0.24304 2.74209 5.3103
22.8959 21.5864 18.6197 -6.38676 1.33472 0.994258
20.6045 22.4122 19.2675 5.4851 3.73719 -0.0922087
18.4134 21.4513 20.8667 1.24857 -2.81127 -1.14378
ITEM: TIMESTEP
4000
ITEM: NUMBER OF ATOMS
12
ITEM: BOX BOUNDS ss ss ss
1.8099666816237455e+01 2.2477570777435499e+01
1.6411382627416085e+01 2.4274531675622601e+01
1.7375996580257709e+01 2.2881659484737590e+01
ITEM: ATOMS x y z vx vy vz
19.8953 20.3826 23.0781 -1.98035 1.06115 2.83986
20.9843 22.2788 21.6795 -0.683298 -2.9436 -2.37476
19.5368 16.5506 19.8919 -2.19516 3.97482 -1.44627
21.9914 17.9165 18.8895 4.61611 3.02384 2.19416
19.9084 20.553 19.6624 -5.21739 -2.33583 -1.20529
22.4918 21.2143 19.1423 0.338081 -4.07937 -3.00394
18.2649 20.5872 21.2784 4.33349 2.05662 2.12676
19.9725 18.111 21.4001 -2.28668 1.8307 -1.5251
22.3103 20.1036 20.9044 3.66521 -0.673284 2.2929
22.0048 19.0972 17.4139 0.0508819 2.46511 0.780096
18.5567 24.2129 19.8074 -2.92467 -1.57904 -0.0707663
18.8227 23.7323 21.5922 2.28378 -2.80112 -0.60766
ITEM: TIMESTEP
5000
ITEM: NUMBER OF ATOMS
12
ITEM: BOX BOUNDS ss ss ss
1.8095139251876788e+01 2.2136380292993209e+01
1.8314781923326585e+01 2.3077328237783622e+01
1.6227055821484878e+01 2.2982952026414594e+01
ITEM: ATOMS x y z vx vy vz
21.6735 21.5949 22.2043 -1.28992 -3.37109 2.73092
21.6169 23.0764 20.0148 0.0479048 0.961601 -4.29935
20.2809 18.9962 19.2674 1.19166 0.0530922 6.68966
21.7835 19.7594 21.0553 3.10986 1.86915 1.01298
19.4601 20.5891 17.3918 -1.21033 0.714594 -1.30657
22.1269 20.3124 18.6049 -1.79979 -1.41722 1.52017
19.2719 20.8878 22.9787 0.271374 0.646483 -0.0342017
18.0908 18.3169 22.2708 -2.74641 -0.623256 1.0473
20.402 18.5757 22.7538 1.75639 -2.37765 -4.74473
21.5393 19.5416 16.24 -1.13982 2.74653 3.03568
18.885 20.2605 20.6649 2.43373 4.03188 -2.06531
19.6091 22.8291 21.2935 -0.624649 -3.23411 -3.58655
ITEM: TIMESTEP
6000
ITEM: NUMBER OF ATOMS
12
ITEM: BOX BOUNDS ss ss ss
1.7594416192813430e+01 2.3683859694527492e+01
1.8945088724189553e+01 2.2043609627703557e+01
1.8173717876962826e+01 2.3034233697405401e+01
ITEM: ATOMS x y z vx vy vz
20.8159 21.8174 22.1814 0.371654 0.593437 3.07695
21.4886 21.7982 19.2093 2.46002 -0.9675 -0.982967
17.4836 19.4548 18.4909 -4.43635 1.05197 -2.51875
22.6968 20.4741 21.3296 -7.25723 0.0869672 -0.283866
19.1338 21.2927 18.5505 -5.77158 2.29276 -2.1816
23.8268 20.2274 19.1855 4.4315 -0.732162 -0.59212
19.3491 20.2443 22.776 1.38523 -3.91733 -2.50034
17.7258 19.6645 20.3867 0.360234 -3.72008 1.06125
21.9032 18.9593 23.0063 0.692967 0.777199 -1.16756
20.8596 19.4504 18.2393 1.85632 -2.58546 2.34443
20.5258 19.1793 20.7264 3.77472 1.97315 3.99054
18.931 22.1775 20.6581 2.13251 5.14705 -0.245966
ITEM: TIMESTEP
7000
ITEM: NUMBER OF ATOMS
12
ITEM: BOX BOUNDS ss ss ss
1.7421470636751007e+01 2.3345447590324298e+01
1.8723289129271073e+01 2.2060414293240616e+01
1.8170620985390691e+01 2.3195274204254865e+01
ITEM: ATOMS x y z vx vy vz
20.4842 21.7519 22.806 -0.504896 -0.229617 -4.95487
21.6681 21.6956 18.5773 -0.43044 4.28285 1.58582
17.4909 21.0096 20.6595 -1.63842 2.39626 -2.70173
22.0205 21.7146 21.1496 -1.75043 2.06704 -0.382341
19.3754 20.2531 18.7453 -2.37889 -2.46122 4.54111
23.2901 19.8055 20.2213 -1.04734 -2.85423 2.79138
18.7621 19.8416 22.3033 -0.196142 -3.94521 5.97227
17.5387 18.5572 18.9852 -1.97551 -0.0945187 -1.53886
22.2528 19.306 22.3583 0.592619 -0.618749 -1.70443
21.9783 19.3199 17.952 2.46794 -3.13658 -2.01267
20.3814 19.047 20.5265 5.23943 0.602254 -1.95183
19.4975 22.438 20.4559 1.62208 3.99172 0.356165
ITEM: TIMESTEP
8000
ITEM: NUMBER OF ATOMS
12
ITEM: BOX BOUNDS ss ss ss
1.6759218947946493e+01 2.3627047534628751e+01
1.7767590007506797e+01 2.3774058734790898e+01
1.8208183496451415e+01 2.2778897824521160e+01
ITEM: ATOMS x y z vx vy vz
21.3783 23.7974 21.5746 4.33746 2.62481 -3.5786
21.5721 21.5487 19.2491 -2.63117 -1.03586 -1.11558
17.9071 19.6384 21.8077 -1.53255 -1.40752 -0.522555
22.6813 21.5294 21.3548 0.999567 -0.42498 1.27161
19.1322 19.9956 18.9566 1.39019 -0.661993 -0.404955
23.6382 19.8962 19.6399 1.75987 1.68994 0.521341
19.1744 17.7408 20.4004 -3.37107 -3.41346 -3.85115
16.7408 19.4693 19.5344 -2.28089 0.911216 2.56739
20.3599 21.0629 22.7683 -1.33843 -1.40988 -0.949544
21.9871 19.4407 18.224 2.99067 0.587058 1.08858
20.9676 19.0414 20.5357 2.49166 2.37215 1.50302
19.2011 21.5793 20.6946 -2.8153 0.16853 3.47044
ITEM: TIMESTEP
9000
ITEM: NUMBER OF ATOMS
12
ITEM: BOX BOUNDS ss ss ss
1.6636845378995908e+01 2.3350867854195261e+01
1.8034403474622312e+01 2.3269813607833196e+01
1.8598592760771968e+01 2.2566864013502293e+01
ITEM: ATOMS x y z vx vy vz
21.9895 22.9749 20.8897 -1.54439 -0.368683 -2.54503
21.3153 21.9463 19.2447 0.208286 0.352243 2.8451
18.5388 18.4567 21.3838 -3.20961 2.4804 -0.565937
22.9498 21.1701 21.9841 -1.52038 -3.60712 -2.38141
19.5223 19.4261 18.5905 0.187448 1.45955 1.44048
23.7777 20.8824 19.5425 -2.35368 -1.2749 -1.0982
17.783 18.1426 19.1698 1.66145 1.92819 -1.34437
16.658 19.5098 20.6979 5.01955 -1.90585 0.531582
20.4683 22.0273 22.2707 -1.33672 0.839192 -2.95078
22.3377 19.2893 19.483 3.2627 0.950965 2.44801
20.7531 19.7561 21.178 0.505268 -0.349023 0.599287
18.6466 21.1583 20.3054 -0.87991 -0.504969 3.02126
ITEM: TIMESTEP
10000
ITEM: NUMBER OF ATOMS
12
ITEM: BOX BOUNDS ss ss ss
1.6071077549126422e+01 2.3546019603639241e+01
1.8224096559695383e+01 2.3721001601661563e+01
1.8760697568308156e+01 2.1791474306131448e+01
ITEM: ATOMS x y z vx vy vz
23.3625 23.5013 21.6004 -1.57482 -2.97845 0.578649
20.4634 20.532 18.6257 -1.28956 2.93016 -2.11028
17.8211 18.3887 21.2009 0.162768 2.26124 0.540947
23.3075 21.3242 21.8619 -2.51962 0.0587895 1.94227
20.0857 17.9825 19.3366 1.69196 -2.39212 1.3175
22.7718 22.1487 19.4182 0.293024 1.49456 -3.64188
18.0623 19.0162 18.7973 4.86751 2.95272 1.34559
16.0579 19.5563 20.6714 3.16294 -1.12347 1.65156
20.7243 22.3953 21.0089 0.102922 3.45256 -0.055009
22.6187 19.3115 19.8492 -1.69453 -3.60181 0.385576
20.8625 19.6656 21.5589 0.50719 -3.33043 -1.30089
18.6023 20.9175 20.8105 -3.70979 0.276242 -0.654037
ITEM: TIMESTEP
11000
ITEM: NUMBER OF ATOMS
12
ITEM: BOX BOUNDS ss ss ss
1.7204839635987952e+01 2.3586642309939716e+01
1.7780307422095277e+01 2.2845518144389043e+01
1.8769121205825524e+01 2.1924579071249202e+01
ITEM: ATOMS x y z vx vy vz
22.8586 23.0607 20.5383 0.809294 0.52784 0.157071
20.62 21.3938 19.3815 -5.30535 -2.84179 0.883167
18.5498 17.5868 21.2226 2.22741 0.643122 -0.616844
21.9588 20.7226 21.1843 -0.525536 0.580071 -5.23631
20.8669 18.0915 20.598 -1.076 -3.48634 4.04695
23.4156 21.2596 19.272 -1.02932 -0.791222 2.30263
19.4444 19.4461 18.9913 0.174369 2.55327 3.47752
17.262 19.7234 20.4187 1.69719 -0.521869 -3.77926
19.9674 22.345 21.7327 1.62894 0.285145 0.348694
22.2123 19.1918 18.7674 0.0462263 2.49501 -1.16191
19.3416 19.9174 21.9843 -1.37349 0.0933759 -1.19583
18.2426 22.0013 20.6491 2.72626 0.463385 0.774132
ITEM: TIMESTEP
12000
ITEM: NUMBER OF ATOMS
12
ITEM: BOX BOUNDS ss ss ss
1.6912643600632872e+01 2.3400300585577746e+01
1.7648646906145512e+01 2.2898211776266283e+01
1.8888204247494990e+01 2.1706904365309416e+01
ITEM: ATOMS x y z vx vy vz
22.7141 22.8955 21.2662 1.31478 -0.488575 1.62826
20.4443 21.8116 19.1168 -0.800122 3.64952 1.95071
18.6772 17.4907 21.1483 -0.497068 1.04796 -1.13714
22.5441 20.0944 21.3116 1.59084 1.01147 0.218933
20.938 18.0765 21.008 -1.64643 1.78621 1.27997
23.1678 21.4667 19.3051 0.0512085 1.38 0.624819
19.1876 19.7201 18.6734 -2.73844 -0.809186 -3.02011
17.3186 19.3406 20.9381 2.1277 -2.88276 1.97946
20.5024 22.783 21.5859 -0.99323 -3.22635 -2.04134
21.7417 19.3187 19.1169 -0.05798 -4.91107 -1.63162
19.7613 20.2199 21.4612 2.11176 2.68732 2.97288
17.743 21.5223 19.8084 -0.463021 0.755461 -2.82483
ITEM: TIMESTEP
13000
ITEM: NUMBER OF ATOMS
12
ITEM: BOX BOUNDS ss ss ss
1.6616332042697866e+01 2.3633951960385698e+01
1.8141066783758923e+01 2.3272330159687513e+01
1.8674090885123451e+01 2.2390895243390919e+01
ITEM: ATOMS x y z vx vy vz
21.9895 23.2465 20.7261 1.83485 0.167852 0.159922
20.6272 21.591 19.1537 0.664157 -0.853176 -0.915305
18.1973 18.5162 21.2074 -1.24041 1.5946 1.27606
22.377 20.514 21.3254 0.95403 1.37235 0.127775
20.6279 18.4484 21.0504 -0.665731 2.23586 1.15003
23.6995 21.1237 19.1606 0.0202919 1.31399 -0.788665
19.1488 18.9941 18.7268 1.08041 -1.78584 -2.73121
16.7665 19.3019 19.5122 0.654157 -0.508434 -2.76947
20.7259 22.3468 21.9818 -1.43061 -1.46932 -0.735412
22.1232 19.8045 18.4704 -1.26008 -0.842077 -1.32612
20.0353 20.0303 22.7842 0.890217 -2.57712 3.46635
18.4218 20.8227 20.641 -1.50129 1.35132 3.08604
ITEM: TIMESTEP
14000
ITEM: NUMBER OF ATOMS
12
ITEM: BOX BOUNDS ss ss ss
1.7609035835140347e+01 2.2722676515311178e+01
1.8260427202244049e+01 2.2904506836459543e+01
1.8311616719292363e+01 2.3154049797018729e+01
ITEM: ATOMS x y z vx vy vz
22.4777 23.1531 20.4682 -3.35776 -1.21014 0.450472
20.4418 22.2525 19.7571 2.63354 -1.29134 0.555003
17.7554 18.6364 22.0885 -1.05643 0.0711226 2.00243
22.741 20.4911 20.8218 -2.50446 -1.0709 -0.804361
20.4336 19.1658 20.593 2.39945 0.00183835 -3.9014
22.5063 21.2597 18.4759 -0.257469 -0.038271 -1.06363
20.1185 20.0528 18.2689 -2.1874 4.51208 0.548203
18.3191 18.9506 19.1011 4.24577 -1.60633 -1.10341
20.491 21.4783 22.1639 0.955544 -1.80549 -0.811113
22.2426 18.635 18.8733 -0.778077 -0.493065 3.66469
18.8782 19.8828 23.3817 0.240133 2.28388 -0.840383
18.3348 20.7818 20.7466 -0.33285 0.646622 1.3035
ITEM: TIMESTEP
15000
ITEM: NUMBER OF ATOMS
12
ITEM: BOX BOUNDS ss ss ss
1.7965204364103148e+01 2.3072024610838149e+01
1.7901150608264707e+01 2.2900024374127973e+01
1.7816953979441596e+01 2.2801910795247643e+01
ITEM: ATOMS x y z vx vy vz
22.4247 22.639 20.8343 -0.722638 0.0322128 1.25802
20.1013 21.6657 20.3518 -0.524053 -1.49819 1.26613
18.2526 18.6001 21.8442 1.57744 4.24209 -0.79481
22.8395 20.217 20.6361 -0.639305 -1.39177 -2.31903
20.7747 18.9473 21.4707 3.01736 -2.95586 0.497222
22.2851 21.7236 18.6452 -1.81411 0.918094 2.85099
19.7875 21.4642 17.9326 0.753109 -0.548238 -0.779989
19.1116 17.4868 19.9658 0.335187 1.02666 3.03929
21.415 21.2572 22.71 0.429645 -0.308088 -2.47359
20.8111 19.2757 18.709 -1.46413 0.398157 -0.361331
18.7554 21.2736 22.0786 -2.39261 0.611076 3.42405
18.1814 20.1898 19.5614 1.4441 -0.526148 -5.60696
ITEM: TIMESTEP
16000
ITEM: NUMBER OF ATOMS
12
ITEM: BOX BOUNDS ss ss ss
1.8406967373221647e+01 2.2779973587605856e+01
1.7708856293988998e+01 2.3032366772984325e+01
1.7472321547651553e+01 2.2883980420486868e+01
ITEM: ATOMS x y z vx vy vz
21.5275 22.8061 21.809 1.12333 -5.97978 -0.631296
20.0411 21.0758 19.9685 1.97717 0.156413 0.224979
18.9696 19.5032 21.7214 1.23256 0.351617 0.28439
22.6755 20.5022 20.9847 -2.52214 -0.526324 1.29011
21.2773 18.4101 21.0777 1.19455 -0.232479 -1.90239
22.1801 21.5992 18.9112 3.79989 1.36961 -1.18446
19.7744 21.4376 17.5903 -2.85453 0.148037 -1.03995
18.9142 17.8187 19.8846 1.71699 2.06568 2.01627
21.0833 20.3408 22.9732 -3.22173 2.34297 -0.527398
20.9017 19.1973 18.5704 -0.311364 2.33698 1.76171
19.3092 22.2576 22.3161 -0.71163 -0.391749 -0.521065
18.0859 19.7915 18.933 -1.4231 -1.64098 0.229087
ITEM: TIMESTEP
17000
ITEM: NUMBER OF ATOMS
12
ITEM: BOX BOUNDS ss ss ss
1.7634913801108603e+01 2.2870039045105237e+01
1.7835919131578432e+01 2.2713375447363202e+01
1.7737293829871710e+01 2.3123939297305011e+01
ITEM: ATOMS x y z vx vy vz
21.7942 22.681 21.1899 -0.0608636 -0.759493 -0.318867
19.7458 21.1835 20.5952 -2.46163 -1.2551 -0.381406
17.5666 19.9946 20.924 -2.31377 -0.0205812 -0.492155
22.821 20.3521 20.568 -1.80637 -1.9316 2.30639
20.7296 19.0914 21.7247 1.13712 1.57184 2.66409
22.3327 21.4608 18.5551 0.641033 -1.49692 -2.02534
20.1952 21.4186 17.7376 -0.329196 0.724994 0.00570988
19.0221 17.9204 20.0027 0.686726 3.2605 -0.202413
21.7459 21.5738 22.9419 1.55353 0.171616 -0.896155
21.0291 19.1515 18.9358 1.61488 3.30465 -0.0974872
19.3044 20.2033 23.086 1.03779 -2.20996 -1.38046
18.4536 19.7091 18.4794 0.300757 -1.35995 0.818092
ITEM: TIMESTEP
18000
ITEM: NUMBER OF ATOMS
12
ITEM: BOX BOUNDS ss ss ss
1.6861543745666026e+01 2.3540144160868426e+01
1.8349999809557385e+01 2.2170937637846940e+01
1.8076800935441732e+01 2.2554223102602169e+01
ITEM: ATOMS x y z vx vy vz
21.495 22.2315 20.3459 -1.09762 2.52752 2.37078
18.7224 21.6334 20.4175 -0.878636 0.87529 -0.158398
16.8357 19.7643 21.0405 -1.32201 -1.39905 -1.51595
23.5483 20.3755 20.9114 0.374562 -2.7376 0.665325
22.669 18.3025 21.4529 1.0481 -1.97022 -1.52525
22.9664 21.5711 18.5442 2.10301 1.84272 -2.04854
20.1998 21.5385 18.0263 -1.61231 -0.517179 -2.06691
19.2171 18.7736 21.0503 -0.233032 -1.78763 2.95872
21.2762 20.2438 22.1156 -0.218018 -0.0326629 1.35224
21.0409 19.7032 19.4594 1.84975 0.783446 0.315346
18.4283 20.7481 22.5225 0.668159 2.86749 -0.382362
18.3408 19.8545 18.8535 -0.681952 -0.452121 0.0349974
ITEM: TIMESTEP
19000
ITEM: NUMBER OF ATOMS
12
ITEM: BOX BOUNDS ss ss ss
1.6861543745666026e+01 2.3540144160868426e+01
1.8349999809557385e+01 2.2170937637846940e+01
1.8076800935441732e+01 2.2554223102602169e+01
ITEM: ATOMS x y z vx vy vz
21.6942 22.5819 20.1146 -1.16687 0.527027 0.434094
18.9265 21.6623 20.561 -0.489291 0.0831843 2.26069
17.0501 19.8651 20.748 -2.02186 0.549332 0.994272
23.5065 20.473 20.5444 -0.0733942 -0.345798 0.289789
22.2711 18.4803 21.5974 -0.200463 2.52014 0.224352
22.9108 20.8885 18.2604 1.32477 -2.24755 -1.22374
20.2705 22.1088 18.1992 0.386462 1.66279 -0.628729
19.4426 18.6276 21.2031 0.447685 -1.64133 -2.61748
20.6603 20.5682 22.1228 0.783351 -0.102752 0.197484
21.0664 19.6918 19.5245 -2.56673 -0.233701 0.450206
18.3026 19.8455 22.9169 0.306003 0.41885 0.493924
18.6383 19.9468 18.9477 3.27034 -1.1902 -0.874864
ITEM: TIMESTEP
20000
ITEM: NUMBER OF ATOMS
12
ITEM: BOX BOUNDS ss ss ss
1.6977557995485608e+01 2.3286792838057245e+01
1.8538398182823762e+01 2.2390950263736734e+01
1.8062422744532899e+01 2.2900087805992158e+01
ITEM: ATOMS x y z vx vy vz
22.0343 22.7743 20.043 2.98556 -1.32515 -1.02911
19.4325 20.9898 20.7714 0.127036 -2.15958 -0.893424
17.0383 19.7074 20.7253 -1.05553 -1.27293 -2.65038
22.9125 20.9374 20.8213 -1.19811 1.23252 -0.78473
21.2043 18.8217 21.6711 0.325265 0.437682 0.836347
22.8235 20.8606 18.1248 -0.584942 -0.46431 -0.396811
20.5553 21.8965 18.3977 -0.34575 -0.882552 0.443524
19.0347 18.0615 20.8123 1.40875 1.17233 -0.796541
21.0715 21.5553 22.6284 -1.08395 -0.11564 3.31121
21.002 19.4416 19.1346 -0.805206 1.0298 -0.440343
19.1479 19.6268 22.9726 1.40049 0.982584 1.62489
18.483 20.0671 18.6376 -1.17362 1.36524 0.775369
ITEM: TIMESTEP
21000
ITEM: NUMBER OF ATOMS
12
ITEM: BOX BOUNDS ss ss ss
1.7408572314613725e+01 2.2671658816379487e+01
1.8161105857783312e+01 2.2723394001991966e+01
1.7816666994091506e+01 2.2936426247044174e+01
ITEM: ATOMS x y z vx vy vz
21.8688 22.9344 20.5556 -0.35466 -1.86069 -0.567326
19.6347 21.1871 20.5527 -0.701308 1.74309 2.49829
17.1821 19.959 20.6664 0.500027 -1.04451 1.35901
23.0403 20.691 20.8677 -0.09673 0.458352 2.37673
21.2211 18.9109 21.7779 1.69006 0.168204 1.70971
22.4842 21.3441 18.5523 0.0201006 -1.85746 -0.0335754
20.392 21.511 17.8963 -0.468322 1.492 -2.62385
18.9032 18.1198 20.639 0.279836 -1.56568 0.661025
21.4567 21.5424 22.5358 0.669016 -2.19434 -1.26962
20.8751 19.0787 19.2594 0.436418 2.94942 -2.14485
19.182 19.6726 22.7302 -1.94766 1.95312 -1.46865
18.4998 19.789 18.7066 -0.0267774 -0.241508 -0.496893
ITEM: TIMESTEP
22000
ITEM: NUMBER OF ATOMS
12
ITEM: BOX BOUNDS ss ss ss
1.7269730290338437e+01 2.2820960725911256e+01
1.8069460655193797e+01 2.2742752062438488e+01
1.8194862869183403e+01 2.2650646071622759e+01
ITEM: ATOMS x y z vx vy vz
21.61 22.7299 20.1056 -2.36519 -1.38768 0.0206935
19.1488 21.7574 20.578 0.238027 -1.05007 -0.475426
17.2353 19.9815 20.6009 0.414835 2.36776 0.390525
22.7951 20.5843 21.0175 0.47696 -1.6615 2.05564
21.4826 18.2924 21.8157 1.84768 -1.26031 -1.05085
22.6523 21.0045 18.208 -0.214849 0.128566 -1.01201
20.2615 21.6302 18.2793 0.194325 0.812655 0.409224
19.0818 18.2209 20.7818 1.13487 0.320139 0.964183
21.3426 21.4544 22.754 -2.07051 -0.0399542 -0.377081
21.0076 19.5093 19.6555 0.021422 0.658448 0.615981
19.4933 20.0208 22.4126 0.842797 1.66759 -0.355273
18.6291 19.5545 18.5311 -0.520371 -0.555645 -1.18561
ITEM: TIMESTEP
23000
ITEM: NUMBER OF ATOMS
12
ITEM: BOX BOUNDS ss ss ss
1.7269730290338437e+01 2.2820960725911256e+01
1.8069460655193797e+01 2.2742752062438488e+01
1.8194862869183403e+01 2.2650646071622759e+01
ITEM: ATOMS x y z vx vy vz
21.7115 22.6787 20.076 0.0778077 0.796438 1.82664
19.3376 21.563 20.4956 1.53962 0.661795 -2.01267
17.4247 20.1158 20.7957 0.134532 -0.935962 -0.941734
22.9545 20.4512 20.9779 -4.67829 -1.35921 -1.70887
21.4562 18.5751 22.065 -0.389917 -1.48734 1.00889
22.7538 21.1872 18.3878 0.821935 -0.0355617 -0.0123489
20.1322 21.6362 18.037 -1.75694 -1.03273 2.63506
19.2158 18.2157 20.8655 1.75943 1.85169 0.402685
21.0983 21.2265 22.5757 -0.010802 1.64012 -0.593338
20.9918 19.59 19.3596 1.47615 -0.876494 -1.53619
19.133 19.9502 22.6893 0.731078 -0.012792 -0.152467
18.5305 19.5503 18.415 0.2954 0.79005 1.08433
ITEM: TIMESTEP
24000
ITEM: NUMBER OF ATOMS
12
ITEM: BOX BOUNDS ss ss ss
1.7267839077966720e+01 2.2754999056420811e+01
1.8307064035268510e+01 2.2710783922170243e+01
1.8128671212749069e+01 2.2897935542868183e+01
ITEM: ATOMS x y z vx vy vz
21.6994 22.7731 20.3007 -0.168962 -0.287129 -1.26758
19.5077 21.193 20.5125 -2.4837 -1.50076 0.679484
17.3004 20.0409 20.8114 2.39677 1.64315 -1.82661
23.0133 20.5488 21.0132 0.809824 1.45842 -1.03287
21.3903 18.8504 21.8632 0.485062 2.68661 -2.2538
22.5347 21.139 18.5346 -1.2963 -0.28714 3.10555
20.3198 21.6715 17.7874 1.77411 -0.774937 -0.710296
18.9962 18.197 20.7044 -1.16104 0.722883 0.46221
21.3401 21.4405 22.4991 1.55156 -1.66339 -0.194316
20.9147 19.3839 19.3883 0.949915 0.426652 0.775486
19.2065 19.7778 22.8165 -1.46257 -2.18241 0.418173
18.5169 19.724 18.5087 -1.39467 -0.24194 1.84457
ITEM: TIMESTEP
25000
ITEM: NUMBER OF ATOMS
12
ITEM: BOX BOUNDS ss ss ss
1.7267839077966720e+01 2.2754999056420811e+01
1.8307064035268510e+01 2.2710783922170243e+01
1.8128671212749069e+01 2.2897935542868183e+01
ITEM: ATOMS x y z vx vy vz
21.7794 22.7491 20.2669 0.736607 -1.22604 -1.14199
19.7248 20.8489 20.6437 0.437946 0.53479 -0.82572
17.1212 20.1098 20.4828 -3.40584 2.59845 1.271
22.8431 20.5826 20.7099 0.209721 1.0034 -0.390752
21.2721 18.9869 22.0477 1.36966 0.664368 -1.45652
22.7781 21.1409 18.4024 -1.2563 1.44566 -0.451204
20.2265 21.8121 18.3201 0.920035 -1.58311 1.67937
19.0897 18.2569 20.791 -1.24103 -0.156716 -0.945002
21.4338 21.3866 22.6228 -0.397018 -0.0806306 0.908465
21.0634 19.3015 19.2216 1.21669 -0.432227 0.831341
18.9207 19.996 22.7278 -0.947398 -1.29106 0.483807
18.487 19.5688 18.5035 2.35693 -1.47689 0.0371983
ITEM: TIMESTEP
26000
ITEM: NUMBER OF ATOMS
12
ITEM: BOX BOUNDS ss ss ss
1.7267839077966720e+01 2.2754999056420811e+01
1.8307064035268510e+01 2.2710783922170243e+01
1.8128671212749069e+01 2.2897935542868183e+01
ITEM: ATOMS x y z vx vy vz
21.729 22.3889 19.9966 -1.70096 0.234771 -0.601699
19.5021 21.3696 20.79 -0.301942 -1.48932 0.431667
17.2797 20.0908 20.7187 0.628796 1.73754 -1.11082
23.0683 20.5675 20.8457 1.96235 0.0801336 3.13989
21.3517 19.0157 22.1164 -1.12351 -1.20201 0.775378
22.6545 21.0542 18.121 0.0236005 -0.282516 -2.62768
20.1855 21.6002 18.0121 -1.57755 2.26217 -2.27874
19.2083 18.1544 20.6083 -0.944963 0.232485 1.27472
21.1027 21.4358 22.6574 1.42064 -0.634689 1.09904
21.1 19.5126 19.648 0.276103 1.54996 -0.0876927
18.8821 19.6728 22.7029 0.314275 -0.513942 -0.689602
18.676 19.8775 18.5227 1.02315 -1.97459 0.675535
ITEM: TIMESTEP
27000
ITEM: NUMBER OF ATOMS
12
ITEM: BOX BOUNDS ss ss ss
1.7267839077966720e+01 2.2754999056420811e+01
1.8307064035268510e+01 2.2710783922170243e+01
1.8128671212749069e+01 2.2897935542868183e+01
ITEM: ATOMS x y z vx vy vz
21.7233 22.6661 19.9332 -1.28788 -1.13894 0.298729
19.4398 21.1347 20.6233 1.14475 -0.069491 -1.15383
17.2805 19.6995 21.1741 0.442767 2.39284 1.52455
23.08 20.9019 20.9926 -1.31546 1.29936 -0.709767
21.0702 18.8529 21.8792 1.07698 0.0485293 0.637623
22.9138 20.9989 18.27 -0.345845 -0.510744 0.18211
20.3947 21.4074 17.9009 0.715287 0.514779 0.389543
18.923 18.3972 20.4332 0.556961 -0.0996895 -0.941834
21.0184 21.3627 22.5937 0.115512 -2.12535 0.42683
21.3801 19.5071 19.5411 0.439766 0.836597 0.325078
19.0419 19.7225 22.9653 -1.00912 0.114976 -0.475735
18.4743 20.0891 18.4335 -0.533711 -1.26287 -0.503293
ITEM: TIMESTEP
28000
ITEM: NUMBER OF ATOMS
12
ITEM: BOX BOUNDS ss ss ss
1.7267839077966720e+01 2.2754999056420811e+01
1.8307064035268510e+01 2.2710783922170243e+01
1.8128671212749069e+01 2.2897935542868183e+01
ITEM: ATOMS x y z vx vy vz
21.8982 22.6464 20.0418 2.33222 0.941026 0.651337
19.8156 21.0826 20.5957 -0.00583357 -0.176636 -2.00949
17.3421 19.8457 20.8803 -0.276978 -0.367604 0.909613
22.7439 20.4406 20.887 -0.919138 2.00079 -0.388063
21.2086 18.9802 22.1039 0.655612 -0.896066 1.41399
22.632 21.1269 18.3456 0.835098 -0.706638 0.954066
20.3057 21.7431 18.0489 1.13377 -1.77959 -0.0853035
19.1873 18.2546 20.499 -1.37872 1.54707 0.671141
21.0376 21.5281 22.6082 -0.909931 0.480412 -0.0264155
21.0932 19.3033 19.1888 -2.41905 2.27411 -0.160443
19.0081 19.7705 22.9298 2.12442 -2.52488 -1.76777
18.4677 20.018 18.611 -1.17147 -0.792 -0.162662
ITEM: TIMESTEP
29000
ITEM: NUMBER OF ATOMS
12
ITEM: BOX BOUNDS ss ss ss
1.7267839077966720e+01 2.2754999056420811e+01
1.8307064035268510e+01 2.2710783922170243e+01
1.8128671212749069e+01 2.2897935542868183e+01
ITEM: ATOMS x y z vx vy vz
21.7523 22.4322 20.2256 -1.32311 0.586629 -0.171922
19.3046 21.5376 20.677 -0.0842971 0.0540456 -0.662392
17.2887 19.8957 20.7403 -0.132061 -1.72444 0.878703
23.1065 20.3036 20.7033 0.632003 0.90905 1.99308
21.3901 18.9368 22.0325 2.11859 -0.552528 1.11683
22.6427 20.9525 18.3887 1.56105 -0.768502 -1.55797
20.2363 21.8602 18.2604 1.25391 0.804646 -0.64574
19.3065 18.3697 20.7047 -2.72911 -0.319625 -0.736343
21.0794 21.3532 22.4914 0.808237 -0.0458761 -1.17347
21.0559 19.3798 19.2864 -1.25266 0.162553 0.845517
18.9267 19.85 22.6027 -0.0709604 -0.579269 0.862624
18.6503 19.8688 18.627 -0.781597 1.47332 -0.748919
ITEM: TIMESTEP
30000
ITEM: NUMBER OF ATOMS
12
ITEM: BOX BOUNDS ss ss ss
1.7157602481357451e+01 2.3123807548195860e+01
1.8227563302592586e+01 2.2483378791540872e+01
1.8042344947398696e+01 2.2743866601423129e+01
ITEM: ATOMS x y z vx vy vz
21.8858 22.3675 20.1885 -1.66973 0.381968 -0.67058
19.2677 21.6169 20.6888 0.156048 0.0754716 1.85632
17.2864 19.7619 20.5961 -1.04578 0.0590092 -0.357636
23.228 20.3916 20.8169 0.123713 -0.00465762 -0.135971
21.1969 18.8493 22.0764 -0.00219131 -0.53997 2.32087
22.7221 21.085 18.2308 0.189892 -1.52608 -0.75439
20.0811 21.9563 18.299 -1.19173 0.559274 -0.408413
19.108 18.0231 20.6245 1.50151 -1.37022 0.00742901
21.3584 21.3189 22.4284 1.21975 -0.412891 -0.133942
20.8966 19.6374 19.6028 0.969549 -0.292822 -1.72063
19.0099 19.9862 22.7427 -1.85158 0.779836 0.107067
18.6992 19.7458 18.445 1.60054 2.29108 -0.110138
ITEM: TIMESTEP
31000
ITEM: NUMBER OF ATOMS
12
ITEM: BOX BOUNDS ss ss ss
1.7157602481357451e+01 2.3123807548195860e+01
1.8227563302592586e+01 2.2483378791540872e+01
1.8042344947398696e+01 2.2743866601423129e+01
ITEM: ATOMS x y z vx vy vz
21.6962 22.641 20.1013 0.557395 -1.19825 2.08572
19.0854 21.6485 20.699 -1.157 -0.968838 -1.11523
17.273 19.6516 20.7543 0.380067 0.532172 -1.07317
23.2498 20.1098 20.7834 -0.0106243 0.330844 -2.09444
21.4743 18.6462 22.1336 -0.582931 1.62976 0.929149
22.7843 21.1548 18.3753 0.205219 -0.809695 -1.60823
20.3269 21.6622 18.0851 -0.152499 -0.243291 2.36985
19.0601 18.1565 20.5909 -0.455594 -0.41612 -0.648289
21.2124 21.3192 22.1836 -0.631873 -0.258534 0.638895
20.9654 19.8633 19.8491 -1.51311 1.37856 -0.520638
19.0573 19.905 22.6412 1.38979 0.65315 -0.216189
18.5549 19.9819 18.5431 1.97116 -0.629754 1.25257
ITEM: TIMESTEP
32000
ITEM: NUMBER OF ATOMS
12
ITEM: BOX BOUNDS ss ss ss
1.7157602481357451e+01 2.3123807548195860e+01
1.8227563302592586e+01 2.2483378791540872e+01
1.8042344947398696e+01 2.2743866601423129e+01
ITEM: ATOMS x y z vx vy vz
21.7634 22.5072 20.0809 1.71918 -1.93912 -0.905815
19.237 21.3908 20.5373 -0.449737 0.209091 1.00624
17.0378 19.7091 20.9663 0.977398 -0.142702 -2.23106
23.1759 20.3735 21.0308 -1.78528 1.09436 0.699607
21.4905 18.6901 21.7686 0.00613006 -0.0413303 0.0366391
22.8882 21.2356 18.3893 -0.411473 0.398729 -0.653061
20.324 21.6396 18.0905 -1.93433 1.0329 0.705439
19.1342 18.2336 20.7427 0.230762 0.192048 -0.550849
21.0959 21.3129 22.3394 1.13427 -0.0759455 0.936595
21.1553 19.6715 19.4217 0.554172 -1.21187 0.0311522
18.9994 19.9377 22.5642 -0.0709891 1.09051 1.24465
18.4383 20.0384 18.8083 0.0299016 -0.60668 -0.319543
ITEM: TIMESTEP
33000
ITEM: NUMBER OF ATOMS
12
ITEM: BOX BOUNDS ss ss ss
1.7157602481357451e+01 2.3123807548195860e+01
1.8227563302592586e+01 2.2483378791540872e+01
1.8042344947398696e+01 2.2743866601423129e+01
ITEM: ATOMS x y z vx vy vz
21.5358 22.6603 20.2802 -0.69295 0.98663 0.510805
19.6113 21.0523 20.5006 1.36893 0.315245 1.56225
17.3794 19.8837 21.1898 -0.344981 -0.146756 0.168968
22.8145 20.4133 20.7222 0.813864 0.038756 -0.420197
21.0177 18.9553 21.9273 -1.04142 -2.10609 0.637378
22.9315 21.2986 18.4987 0.191879 0.167989 -0.747789
20.4713 21.5005 17.8486 -0.604092 -0.407334 -1.32114
19.081 18.2829 20.4417 -0.555657 -0.26349 0.0648283
21.09 21.5642 22.632 -0.251389 1.34446 -1.09094
21.1891 19.2505 19.0628 1.8293 -0.548231 1.79468
19.1576 19.856 23.0648 0.11425 -0.84369 -0.675785
18.4609 20.0224 18.5714 -0.827731 1.46252 -0.483058
ITEM: TIMESTEP
34000
ITEM: NUMBER OF ATOMS
12
ITEM: BOX BOUNDS ss ss ss
1.7157602481357451e+01 2.3123807548195860e+01
1.8227563302592586e+01 2.2483378791540872e+01
1.8042344947398696e+01 2.2743866601423129e+01
ITEM: ATOMS x y z vx vy vz
21.7112 22.7611 20.3251 0.0586839 0.172746 0.377127
19.646 21.1252 20.58 -0.130176 0.870905 -0.01078
17.3465 19.8905 20.8595 0.232483 0.0711669 -0.582489
22.9729 20.3213 20.8402 -0.10647 0.773802 -0.264396
21.182 19.0545 21.8612 -0.332011 2.1333 -2.45276
22.8149 21.3462 18.5363 1.15598 -1.24037 0.689581
20.2632 21.6313 18.1683 0.176789 -1.26569 1.15361
19.2096 18.1125 20.6373 1.1586 -1.25541 0.800277
21.4667 21.5347 22.5489 -0.170256 -0.974613 0.0724338
20.9009 19.2622 19.1259 -1.01269 0.514737 -1.25892
18.8703 19.9915 22.7337 -0.671658 0.0567525 1.23931
18.3558 19.709 18.5237 -0.359276 0.142671 0.237017
ITEM: TIMESTEP
35000
ITEM: NUMBER OF ATOMS
12
ITEM: BOX BOUNDS ss ss ss
1.7157602481357451e+01 2.3123807548195860e+01
1.8227563302592586e+01 2.2483378791540872e+01
1.8042344947398696e+01 2.2743866601423129e+01
ITEM: ATOMS x y z vx vy vz
21.7488 22.6559 20.0882 -0.497558 -0.151345 0.455131
18.9733 21.7525 20.3635 0.95275 0.773356 -1.23721
17.0177 19.6713 20.8794 1.08785 -0.510364 -0.143061
23.3028 20.4493 20.8698 0.686501 0.450816 0.156734
21.5282 18.6083 21.9653 -1.19841 1.21646 0.8903
22.8361 21.0417 18.4911 -0.561379 -2.14624 -0.997379