ITEM: TIMESTEP
0
ITEM: NUMBER OF ATOMS
1289
ITEM: BOX BOUNDS ss ss ss
3.2580606646449057e+00 3.7531939335355069e+01
2.4140552357255958e+00 3.8375944764274372e+01
2.1964188149687205e+00 3.8593581185031319e+01
ITEM: ATOMS x y z vx vy vz
21.7281 9.04204 6.2137 -1.8858 -1.57059 -1.23178
19.001 13.2179 6.12359 -0.0753265 0.0831811 -0.796218
21.2739 11.7031 5.2104 0.467162 -1.96415 -0.666071
20.8197 14.3643 4.2071 -0.192887 1.12648 -1.44818
23.0217 13.8546 5.99189 0.713523 -0.301389 -1.09617
16.274 17.3938 6.03348 1.01948 -1.08335 -1.89923
18.5468 15.879 5.12029 -0.544622 1.45871 2.61983
20.2947 18.0305 5.90178 1.54053 -1.18333 -0.61882
20.3654 17.0253 3.2038 -0.0651372 1.11182 -0.354742
22.5675 16.5157 4.98859 -0.0182412 1.27276 1.12745
13.5469 21.5697 5.94338 -1.30373 1.52062 -1.64494
15.8197 20.0549 5.03018 -0.966586 -0.131569 -3.14109
17.5676 22.2064 5.81167 1.31178 1.10253 -0.365251
18.0926 18.5401 4.11699 1.2834 0.825219 0.232879
17.6384 21.2012 3.11369 2.70616 -0.224297 0.710687
19.8404 20.6916 4.89848 -0.106721 0.774492 -1.92665
22.1133 19.1768 3.98529 2.24481 2.13171 1.07771
19.9112 19.6865 2.2005 -0.596296 -2.04163 -0.752603
21.6591 21.8379 2.98199 0.175835 -0.647132 -0.218862
24.3154 18.6671 5.77008 -0.285338 1.08956 0.566781
23.8612 21.3282 4.76678 1.28703 0.0649754 0.469167
10.8198 25.7456 5.85326 -1.87207 0.68341 -0.596507
13.0926 24.2308 4.94007 -0.338935 -1.15127 0.200275
14.8405 26.3823 5.72156 -0.607532 1.71604 -0.719423
15.3655 22.716 4.02688 -0.0464388 0.41047 -1.0131
17.1134 24.8675 4.80837 0.98728 -1.29779 0.464834
21.5883 22.843 5.67997 -0.202437 0.470668 0.210452
19.3862 23.3527 3.89518 0.859069 -0.427895 -0.471106
21.1341 25.5041 4.67667 1.45445 -1.58298 0.3944
25.609 23.4797 5.54827 0.988991 -0.388578 -0.207887
23.4069 23.9893 3.76348 -0.260253 -0.576385 1.3927
25.1548 26.1408 4.54497 1.36863 0.537844 -1.30188
18.8612 27.0189 5.58986 0.734073 -0.314299 0.0660004
22.8819 27.6556 5.45816 0.281618 -1.58112 -0.752425
24.6298 29.807 6.23965 -0.785029 0.641854 -0.598316
26.9026 28.2922 5.32646 -1.96124 0.010674 -0.710802
18.0908 6.74943 10.0467 0.294434 2.35903 -1.92232
17.6366 9.41053 9.04339 1.40369 0.124123 -0.854522
22.1116 7.38607 9.91498 0.00556101 -1.42279 -1.00238
19.9095 7.89573 8.1302 0.0885508 0.955461 -1.62323
21.6573 10.0472 8.91169 0.973493 -2.43443 -3.04963
23.9302 8.53237 7.9985 0.536542 -0.246586 0.698998
26.1323 8.02271 9.78328 1.46606 -0.894412 -2.56423
15.3638 10.9253 9.95658 1.54943 -0.145704 -1.57138
14.9095 13.5864 8.95328 1.19734 1.2591 0.482555
17.1824 12.0716 8.04009 -0.945159 1.41979 0.939602
19.3845 11.562 9.82488 -1.61186 1.42899 1.69128
18.9303 14.2231 8.82158 -1.05573 -0.64912 0.166849
19.4553 10.5568 7.12689 -2.00036 0.158293 -0.466401
21.2031 12.7083 7.90839 -0.603107 -0.720719 0.433409
23.4052 12.1986 9.69318 -0.188773 0.120372 -1.94159
25.6781 10.6838 8.77999 2.50273 0.338146 -0.108324
23.476 11.1935 6.99519 -0.470027 -1.46847 -0.623307
25.2238 13.3449 7.77668 0.0263336 -0.759617 0.0104917
27.4259 12.8352 9.56148 2.26452 -2.32362 -1.41239
12.6367 15.1012 9.86647 -1.8572 -2.31398 1.74861
12.1825 17.7623 8.86317 1.11186 0.568529 0.299629
14.4553 16.2475 7.94997 -0.849374 -2.48068 2.98252
16.6574 15.7379 9.73477 -0.858576 -0.199093 0.482914
16.7282 14.7327 7.03678 -1.07961 -0.939135 -0.837672
18.476 16.8842 7.81827 -0.295797 0.781424 1.86254
20.6781 16.3745 9.60307 0.942631 0.544177 1.78319
20.7489 15.3694 6.90508 -2.47927 1.84995 -1.18503
22.951 14.8597 8.68988 -0.615065 -0.397055 1.56267
24.6988 17.0111 9.47137 -0.113659 -1.04566 0.332189
22.4967 17.5208 7.68657 -0.0775862 -0.708404 -1.41168
24.7696 16.006 6.77338 0.463112 -0.777692 -0.414408
26.9717 15.4963 8.55817 0.379435 -1.06966 -2.72326
28.7195 17.6478 9.33966 1.22287 0.566935 -0.202039
26.5175 18.1575 7.55487 -0.315284 0.56604 -1.20371
9.9096 19.2771 9.77636 0.481288 0.429249 -0.741366
9.45538 21.9382 8.77305 -0.762564 0.5898 0.264952
13.9303 19.9138 9.64466 0.250448 2.64469 -0.401662
11.7282 20.4234 7.85986 0.240067 -0.915016 -0.0790662
14.0011 18.9086 6.94667 0.048963 0.432599 1.12945
16.2032 18.399 8.73146 -3.42875 0.184361 -1.11417
17.951 20.5504 9.51295 -0.515259 0.0959979 0.880971
15.7489 21.0601 7.72816 -0.138177 -0.515577 -1.82607
18.0218 19.5453 6.81497 -2.41624 1.11351 -1.8706
20.2239 19.0356 8.59976 -0.427688 -0.3286 0.695922
21.9717 21.187 9.38125 0.542857 0.0764295 1.39465
19.7697 21.6967 7.59646 -0.573239 -1.39535 1.87792
22.0425 20.1819 6.68327 -1.10527 1.8936 -0.393315
24.2446 19.6722 8.46806 -0.885592 1.23274 -0.773906
25.9925 21.8237 9.24955 -0.109918 1.06153 0.913999
23.7904 22.3333 7.46476 0.571341 3.01758 -0.367184
26.0632 20.8186 6.55157 -0.215429 0.317308 -0.915878
26.4467 19.1626 10.2529 -1.50744 0.905631 -0.0973098
28.2653 20.3089 8.33636 -1.82375 1.08721 0.923125
30.4674 19.7992 10.1212 -0.543309 2.68601 0.379904
7.18252 23.453 9.68624 -2.27938 2.11221 0.623225
9.00115 24.5993 7.76976 0.612189 -0.467336 0.706512
11.2032 24.0896 9.55454 -0.397252 -0.386973 0.98412
13.4761 22.5749 8.64135 -1.08262 -0.882556 -0.17845
11.274 23.0845 6.85657 -0.547665 0.442121 0.738954
13.0219 25.236 7.63806 0.230427 0.133585 0.664749
15.2239 24.7263 9.42284 0.27688 -1.98149 -2.0143
17.4968 23.2115 8.50965 -0.787158 1.08734 0.106943
15.2947 23.7212 6.72487 -0.92273 -0.22249 0.866777
17.0426 25.8726 7.50636 0.499478 1.09505 1.15678
19.2447 25.3629 9.29114 -0.312704 -2.26906 0.166737
21.5175 23.8481 8.37795 -0.791318 1.62271 1.1699
19.3154 24.3578 6.59317 -1.80341 0.647662 0.62743
23.7196 23.3385 10.1627 0.427983 1.66867 -0.532691
23.2654 25.9996 9.15944 -0.666038 -0.153853 -0.16309
25.5382 24.4848 8.24625 1.26785 0.379976 -0.0880597
23.3362 24.9944 6.46146 -0.297146 0.946984 -0.31935
27.7403 23.9751 10.031 -1.12202 -2.09593 -0.342151
27.8111 22.97 7.33306 0.366794 -1.32405 0.0309769
29.5589 25.1214 8.11455 0.681571 1.39223 -1.37628
27.3569 25.6311 6.32976 0.0967975 -1.07908 1.80857
30.0132 22.4603 9.11785 0.0955169 0.569171 0.172281
31.761 24.6118 9.89934 -0.288632 1.32385 -0.841904
10.749 26.7507 8.55125 1.00151 2.13811 1.63122
12.4969 28.9022 9.33274 -0.104758 0.751373 -1.27811
12.5676 27.8971 6.63475 1.42447 0.157818 2.28339
14.3155 30.0485 7.41624 -1.03358 -0.59489 -1.73293
16.9718 26.8777 10.2043 0.752011 -0.723063 -1.70428
14.7697 27.3874 8.41955 0.271414 0.620014 -0.816106
16.5176 29.5388 9.20104 -0.216016 -0.0478163 -0.307333
16.5884 28.5337 6.50305 1.2625 -0.186049 -0.763873
20.9925 27.5144 10.0726 1.43162 -0.442338 -1.28314
18.7904 28.024 8.28785 -0.658742 1.43398 -0.0913113
20.5383 30.1755 9.06934 0.57706 1.08091 0.325169
21.0633 26.5092 7.37466 0.720993 1.6472 -1.70407
20.6091 29.1703 6.37135 0.0319677 -1.33993 0.38041
25.0132 28.151 9.94093 0.802736 -0.361919 1.75824
22.8112 28.6607 8.15615 0.333243 1.61964 1.08108
25.084 27.1459 7.24295 -0.68516 -0.32865 0.381016
27.2861 26.6362 9.02774 -0.902462 -0.561018 -1.50536
29.0339 28.7877 9.80923 -1.04181 0.82533 0.454259
26.8319 29.2973 8.02444 1.22372 1.03303 0.696816
29.1047 27.7825 7.11125 0.466814 0.614864 -1.45976
31.3068 27.2729 8.89604 0.838711 0.735275 -1.84192
14.2447 31.0536 10.1142 0.637823 -1.78039 -1.99418
18.2654 31.6903 9.98253 0.00751935 0.83693 -3.18383
16.0634 32.1999 8.19773 -2.31204 -0.208835 0.142029
17.8112 34.3514 8.97923 -0.988955 1.25018 0.958244
18.3362 30.6851 7.28454 -0.797264 -1.60874 0.632258
22.2861 32.3269 9.85083 -0.627145 -0.665987 0.435671
20.0841 32.8366 8.06603 -1.08786 1.10758 -0.643891
24.559 30.8121 8.93764 0.199136 -0.382746 -1.04089
22.3569 31.3218 7.15284 -1.68861 -0.24621 0.0648074
14.4536 4.4568 13.8797 0.120855 -0.37069 -0.480856
18.4743 5.09345 13.748 1.06314 1.01652 -0.124783
16.2722 5.60312 11.9632 -0.251555 0.569364 0.367704
20.2929 6.23976 11.8315 -0.556799 0.5094 1.66391
22.495 5.73009 13.6163 -1.01571 -1.20103 1.07377
26.5157 6.36673 13.4846 -0.275938 -1.50298 0.359966
11.7265 8.6327 13.7896 -2.11836 0.898312 0.558092
13.9994 7.11791 12.8764 -1.04669 0.743888 -0.909249
13.5451 9.77901 11.8731 0.269955 -0.233754 1.52739
15.7472 9.26934 13.6579 0.177444 -0.873734 -0.29453
18.0201 7.75455 12.7447 0.710968 0.896536 -0.593132
15.818 8.26422 10.9599 -0.977685 -1.9193 -0.316553
19.7679 9.90599 13.5262 1.56126 2.12304 1.16933
22.0408 8.39119 12.613 0.531461 0.616118 -1.2016
19.8387 8.90086 10.8282 1.21177 0.102625 -1.83301
24.3136 6.8764 11.6998 -1.32512 1.79866 -0.142409
26.0615 9.02783 12.4813 -1.77276 0.386224 0.482106
23.8594 9.5375 10.6965 1.12878 1.25264 -0.150339
28.2636 8.51817 14.2661 0.00139594 -1.63051 -0.246969
28.3344 7.51304 11.5681 -0.913274 0.498579 0.454337
27.8801 10.1741 10.5648 -1.63713 0.709701 2.90105
30.5364 7.00337 13.3529 0.884271 0.530695 0.91323
32.2843 9.15481 14.1344 -1.11237 -0.0777216 0.621525
30.0822 9.66448 12.3496 0.131373 0.997335 -0.751468
8.99941 12.8086 13.6995 0.456357 1.22229 -3.12384
10.818 13.9549 11.783 0.271323 1.66158 -0.126744
11.2723 11.2938 12.7863 -1.13655 0.999518 1.91765
13.0201 13.4452 13.5677 0.414598 -0.0596781 1.32022
13.0909 12.4401 10.8698 0.56879 -0.175969 1.6667
15.293 11.9304 12.6546 1.50728 0.0144937 3.56777
17.0408 14.0819 13.436 1.70984 -0.672802 2.3471
17.5658 10.4157 11.7414 0.0775416 -2.14177 -0.36555
17.1116 13.0768 10.7381 -1.15956 -0.661423 0.671617
21.5158 12.0574 14.3077 1.70573 -0.902261 0.756384
19.3137 12.5671 12.5229 0.853828 -1.52022 -0.843164
21.5866 11.0523 11.6097 1.88747 -1.18512 0.557955
21.1323 13.7134 10.6064 -0.126982 -1.11495 0.639908
23.7886 10.5426 13.3945 2.79212 -0.824626 1.37641
25.5365 12.6941 14.1759 -1.26347 0.459229 -0.162555
23.3344 13.2037 12.3912 -0.855756 -0.0865215 1.20597
25.6073 11.6889 11.478 -1.50368 0.485339 1.99664
25.153 14.35 10.4747 -1.66165 -0.631132 1.12969
27.8094 11.1793 13.2628 0.17987 0.808758 -0.849105
29.5572 13.3307 14.0442 1.03844 1.62934 0.372564
27.3551 13.8404 12.2595 1.2623 -0.440868 1.33518
29.628 12.3256 11.3463 0.299584 0.622961 0.999405
31.8301 11.8159 13.1311 -1.72784 1.75676 0.511389
33.5779 13.9673 13.9125 0.798772 -0.415297 -0.897674
6.27233 16.9845 13.6093 -0.802848 0.598185 1.28801
8.54519 15.4697 12.6962 1.09232 -0.818001 0.0900462
10.293 17.6211 13.4776 -0.807314 -2.15885 0.220877
8.09097 18.1308 11.6929 -0.42066 -2.03323 -2.28389
10.3638 16.616 10.7797 -0.059194 -0.705392 0.367061
12.5659 16.1063 12.5645 -1.29842 0.956763 0.848046
14.3138 18.2578 13.3459 1.00967 -1.19983 -0.415626
14.3845 17.2526 10.648 -0.144149 -0.457959 1.93174
14.8388 14.5915 11.6513 0.0314999 1.22823 2.1425
16.5866 16.743 12.4328 -0.976561 1.91014 0.561788
18.4053 17.8893 10.5163 0.689736 0.887155 0.318265
18.7887 16.2333 14.2175 0.260493 0.142269 -1.05394
21.0616 14.7185 13.3043 1.71951 -0.15001 -0.644338
18.8595 15.2282 11.5196 -0.35902 0.638995 0.791844
20.6073 17.3796 12.3011 0.837819 1.23243 -0.877399
22.8094 16.87 14.0858 -0.329302 0.468359 -0.51576
25.0823 15.3552 13.1726 -1.22845 0.265779 0.375684
22.8802 15.8648 11.3879 -3.20364 -1.22406 0.243594
24.628 18.0163 12.1694 -0.822203 -0.808391 0.294827
26.8301 17.5066 13.9541 -0.277263 -0.191539 -0.203099
29.103 15.9918 13.0409 -0.830488 -0.298878 0.860842
26.9009 16.5015 11.2562 -0.689611 1.27061 1.59843
29.1738 14.9867 10.343 -1.22302 0.247485 1.21549
30.8508 18.1432 13.8224 1.18033 -0.89703 -1.29107
31.3758 14.477 12.1278 1.08079 -1.74154 -0.409158
33.1237 16.6284 12.9092 0.926118 -0.889084 2.81693
30.9216 17.1381 11.1245 1.08723 0.783113 -1.46824
3.54525 21.1604 13.5192 -0.632501 -0.818305 -0.00536445
5.81811 19.6456 12.606 -2.2277 -0.370714 1.24494
5.36388 22.3067 11.6027 -0.951391 1.84506 -1.18177
7.56597 21.797 13.3875 0.331137 0.606913 0.954808
9.83882 20.2822 12.4743 0.191183 -1.24497 0.220809
7.63674 20.7919 10.6895 1.18215 -1.37708 -0.0289582
12.0409 19.7726 14.2591 -0.140076 2.38811 -1.10156
12.1117 18.7674 11.5612 -0.120431 -1.34896 0.603999
13.8595 20.9189 12.3426 -0.493907 -1.96064 -0.662396
11.6575 21.4285 10.5578 0.348347 2.5322 -1.15597
16.0616 20.4092 14.1274 2.30279 -0.895076 -0.700628
18.3345 18.8944 13.2142 1.29189 -0.122312 -0.353631
16.1324 19.4041 11.4294 0.247921 -2.63633 -0.0728347
17.8803 21.5555 12.2109 -0.142823 -0.760267 0.0545089
15.6782 22.0652 10.4261 0.698081 0.0670838 1.66457
20.0823 21.0459 13.9957 -0.356711 0.373765 1.10063
20.1531 20.0407 11.2977 -2.62385 -0.488638 1.3641
21.901 22.1922 12.0792 -1.04501 -0.289799 -0.164276
22.3552 19.5311 13.0825 1.59083 0.55796 -0.325233
24.103 21.6825 13.864 0.756415 -1.13327 1.35006
22.426 18.5259 10.3846 0.924986 0.26544 1.58125
24.1738 20.6774 11.166 -1.15345 -0.766298 0.610394
26.3759 20.1677 12.9508 0.974955 -2.91483 0.601987
28.1238 22.3191 13.7323 -0.760598 0.37577 2.03009
28.6488 18.6529 12.0377 -0.421398 -0.382095 0.500932
28.1945 21.314 11.0343 -0.445768 -0.0988554 0.607997
30.3966 20.8043 12.8191 -0.166374 0.918321 -0.721921
32.6695 19.2895 11.9059 -0.546217 -3.00297 -0.383371
32.2153 21.9507 10.9026 -0.224821 -1.23976 -0.492105
34.8716 18.7799 13.6907 -0.421664 -1.35725 0.0069472
34.4173 21.441 12.6874 0.287806 1.47229 0.512744
5.29311 23.3118 14.3007 -0.696565 -0.802422 0.482699
9.31382 23.9485 14.169 0.503656 -1.28736 -1.10593
7.11174 24.4581 12.3842 0.101567 0.0705738 -0.8209
9.3846 22.9433 11.471 0.126554 0.789175 2.11596
8.93037 25.6044 10.4677 -0.0260199 -1.99756 0.217597
11.5867 22.4337 13.2558 0.479735 1.51452 0.097626
13.3345 24.5851 14.0373 -1.12163 -0.0526284 -1.56296
11.1325 25.0948 12.2525 1.06066 -0.812054 -0.578814
13.4053 23.58 11.3393 -0.23847 0.690324 -1.70557
12.9511 26.2411 10.336 -0.284461 -0.981034 0.623823
15.6074 23.0703 13.1241 0.156481 0.0393926 0.428804
17.3552 25.2217 13.9056 -1.81362 -0.697592 0.64846
15.1532 25.7314 12.1208 -0.557372 2.32734 0.809979
17.426 24.2166 11.2076 1.20149 -0.1282 0.182293
19.6281 23.707 12.9924 2.34772 -1.54299 -0.35657
21.376 25.8584 13.7739 -0.92321 0.458868 0.390993
19.1739 26.3681 11.9891 0.714439 0.724334 1.76997
19.6989 22.7018 10.2944 -1.04766 -1.61957 2.20528
21.4467 24.8533 11.0759 -0.950408 0.317404 -0.341054
23.6488 24.3436 12.8607 0.504279 1.21808 -0.210053
25.9217 22.8288 11.9475 0.835629 -0.187021 -1.20077
25.4675 25.4899 10.9442 1.64072 -1.60835 -0.977393
27.6695 24.9802 12.729 -0.566791 0.387445 -0.512867
29.4882 26.1265 10.8125 -0.393514 0.380055 1.50159
32.1445 22.9558 13.6006 -0.248704 0.122087 2.02578
29.9424 23.4654 11.8158 1.82559 1.15461 -1.12751
31.6902 25.6169 12.5973 -0.67255 1.50515 0.809069
36.1652 23.5924 13.4689 1.8956 1.88892 -0.671518
33.9631 24.1021 11.6841 -2.06912 -1.21572 -0.351486
35.711 26.2535 12.4656 -2.70684 0.148318 -0.260528
8.8596 26.6096 13.1657 -1.02914 -0.481554 -1.7392
10.6075 28.761 13.9472 -0.342487 -1.86687 -0.063931
10.6782 27.7559 11.2492 -0.17244 1.99843 0.921694
12.8803 27.2462 13.034 0.869873 0.443633 -0.225684
14.6282 29.3976 13.8155 0.517234 0.631419 -0.0738731
12.4261 29.9073 12.0307 -1.7015 -1.27343 -1.81256
16.901 27.8829 12.9023 -0.219288 -0.119811 3.21165
14.6989 28.3925 11.1175 -0.14221 1.33931 0.482595
18.6489 30.0343 13.6838 0.178397 1.21347 -1.06602
20.9217 28.5195 12.7706 -0.745731 1.09557 -2.02134
18.7197 29.0292 10.9858 0.845534 0.816603 1.079
25.3967 26.495 13.6422 0.797695 -0.2501 -0.872451
23.1946 27.0047 11.8574 2.27096 -1.26156 1.09516
24.9425 29.1561 12.6389 -1.94803 0.686072 0.249362
22.7404 29.6658 10.8541 0.824562 0.370272 -0.2457
29.4174 27.1317 13.5105 0.171643 0.419393 -0.409848
27.2153 27.6413 11.7257 -0.903271 -0.566247 -0.69071
28.9632 29.7928 12.5072 -0.639311 -0.711327 -0.787034
26.7611 30.3024 10.7224 -2.37222 -1.90628 -1.67304
31.1652 29.2831 14.292 0.81457 -0.654465 -0.595218
33.4381 27.7683 13.3788 -0.748879 -0.803358 0.599655
31.236 28.278 11.594 -1.06911 0.0436539 -1.90713
33.5089 26.7632 10.6808 0.429006 0.327246 -0.722984
14.1739 32.0587 12.8122 0.651598 -0.468237 1.88895
15.9218 34.2102 13.5937 0.888026 0.685092 -1.36251
16.4468 30.544 11.899 -0.178805 -2.33376 1.52127
18.1947 32.6954 12.6805 0.998624 -2.04712 -0.226896
15.9926 33.2051 10.8957 -0.303267 -0.413262 0.553237
20.4675 31.1806 11.7673 -1.40628 1.76691 0.61387
22.2154 33.332 12.5488 -0.182305 -0.0141952 -0.629633
20.0133 33.8417 10.764 0.972865 0.293557 -0.634135
22.6696 30.6709 13.5521 1.99636 -0.926231 0.25497
24.4882 31.8172 11.6356 1.77042 -1.9291 0.0350324
26.6903 31.3076 13.4204 -0.415378 -0.0949461 -0.407379
17.7404 35.3565 11.6772 -0.349518 -2.21108 0.991765
19.9425 34.8468 13.462 0.207927 0.598303 1.47333
12.1807 5.9716 14.7929 0.317509 1.25862 0.731525
14.3828 5.46193 16.5777 2.52307 0.429017 0.664788
16.6557 3.94714 15.6645 -0.969877 0.38612 -0.221844
18.4035 6.09857 16.446 -1.15112 -1.05591 -1.24727
16.5849 4.95226 18.3625 0.775095 -0.486076 -0.543369
20.6764 4.58378 15.5328 -0.873307 0.593695 -0.0917177
18.8577 3.43747 17.4493 -0.504741 0.283982 1.63585
20.6056 5.5889 18.2308 -0.185408 0.170562 -0.250683
24.6971 5.22042 15.4011 1.60031 1.42635 -1.85665
22.8785 4.07411 17.3176 -2.10341 -1.28584 1.48427
24.6263 6.22554 18.0991 0.786821 -1.10278 -0.000685408
28.7178 5.85706 15.2694 0.425255 1.8766 -0.0136815
26.8992 4.71075 17.1859 0.845918 -0.00356839 1.5402
7.63501 9.00118 16.6192 1.61274 0.0881804 -0.845724
9.90786 7.48639 15.7061 -1.59248 0.102688 -0.991695
9.45364 10.1475 14.7028 0.543957 0.26302 -0.73566
11.6557 9.63783 16.4875 -1.75975 1.99599 0.402776
13.9286 8.12303 15.5744 1.30259 0.563809 1.27412
12.1099 6.97672 17.4909 -1.20448 0.709057 0.721799
13.8578 9.12816 18.2723 -0.372752 0.23755 -3.62214
15.6764 10.2745 16.3558 -0.278059 -0.507342 -1.46615
16.2014 6.60824 14.6612 -0.286389 -1.03416 0.829836
17.9493 8.75967 15.4427 -1.15659 -0.232113 2.14098
16.1307 7.61336 17.3592 -0.653365 -0.022382 -0.768986
17.8785 9.7648 18.1406 0.091878 0.582689 -1.08616
20.2221 7.24488 14.5295 0.115898 -0.739718 1.3968
21.97 9.39632 15.311 0.778777 0.724569 1.16189
20.1514 8.25001 17.2274 -0.958169 -0.00842155 1.19182
21.8992 10.4014 18.0089 1.57239 0.854557 -1.70692
24.2429 7.88152 14.3978 0.564756 -0.647095 0.811329
25.9907 10.033 15.1793 -1.05191 -0.543728 0.379731
22.4242 6.73521 16.3143 1.05384 1.57002 -0.688638
24.1721 8.88665 17.0957 1.20599 -0.185499 1.30336
26.4449 7.37185 16.1826 -0.198022 -0.238568 -0.670359
28.1928 9.52329 16.964 -0.61292 1.4439 -1.34434
28.647 6.86219 17.9674 0.528377 -2.10069 -0.0223241
30.4657 8.0085 16.0509 0.803232 -0.941732 -0.454615
32.2135 10.1599 16.8323 0.636389 0.00233295 -0.347179
5.36215 10.516 17.5324 -1.14021 0.373114 0.548026
4.90792 13.1771 16.5291 1.12994 -0.429719 0.814755
6.72656 14.3234 14.6126 0.986518 0.00808538 1.97427
7.11 12.6674 18.3139 -0.118684 0.237569 1.69011
9.38286 11.1526 17.4007 0.133227 -0.238119 -0.325441
7.18078 11.6623 15.6159 -1.40263 -0.0753899 -3.1479
8.92864 13.8137 16.3974 1.36652 0.067578 1.85206
11.1307 13.3041 18.1822 -1.95327 -0.291967 -1.91914
13.4036 11.7893 17.269 0.643535 2.35841 -2.84733
11.2015 12.2989 15.4842 0.430224 0.818958 0.703977
13.4744 10.7841 14.5711 0.198488 0.244448 0.72077
15.1514 13.9407 18.0505 0.286265 1.23525 0.578783
17.4243 12.4259 17.1373 0.893413 1.49106 -0.0201966
15.2222 12.9356 15.3525 0.726129 -0.831582 -0.621275
17.4951 11.4208 14.4394 0.776661 -0.547257 1.01948
19.6971 10.9111 16.2241 -0.180163 1.42515 1.11349
21.445 13.0625 17.0056 0.7095 -0.470458 1.78492
19.2429 13.5722 15.2208 -2.33571 1.33035 0.617144
23.7179 11.5478 16.0924 1.16784 -0.0820706 -0.0298005
25.4657 13.6992 16.8739 -0.376095 0.207431 -0.0345543
23.2636 14.2089 15.0891 -0.945354 -0.60752 -0.283946
25.9199 11.0381 17.8772 -1.14069 0.29733 -0.0318091
27.7386 12.1844 15.9607 -0.362061 -0.136283 2.9208
29.4864 14.3358 16.7422 -0.297009 2.05854 0.166785
30.0114 10.6696 15.0476 1.56277 2.17692 0.640626
31.7593 12.821 15.829 -0.0619004 -0.954194 -1.98012
29.9407 11.6747 17.7455 0.779382 -0.448135 0.32744
34.0321 11.3062 14.9159 -2.05805 1.45436 -0.211763
35.78 13.4577 15.6973 0.88452 -0.11901 0.217695
33.9614 12.3114 17.6138 -1.21109 -1.07323 -0.308108
4.38292 16.8433 18.2238 0.116842 1.71648 2.10582
6.65578 15.3285 17.3106 0.686907 2.00538 -1.78745
4.4537 15.8382 15.5258 0.259004 1.28446 0.918214
6.20155 17.9896 16.3073 -1.04389 -1.06129 -0.393577
8.40364 17.48 18.0921 0.588858 0.221581 0.305691
10.6765 15.9652 17.1789 0.243063 0.528298 -0.889022
8.47441 16.4748 15.3941 1.45087 0.654254 0.0691403
10.7473 14.96 14.4809 -1.13318 1.01673 1.72017
12.4243 18.1166 17.9604 -0.368261 -2.30583 -0.806649
12.9494 14.4504 16.2657 0.899521 1.90412 0.670488
12.4951 17.1115 15.2624 0.759107 1.09818 0.0790335
14.6972 16.6018 17.0472 -0.815562 -1.81676 0.263155
16.9701 15.087 16.134 -0.921706 0.945002 1.782
14.768 15.5967 14.3492 -0.689221 -0.222472 1.56207
16.5158 17.7481 15.1307 2.43987 1.69697 1.30103
19.1721 14.5773 17.9188 -0.201771 -0.41486 0.0781822
18.7179 17.2384 16.9155 -0.548069 0.557391 2.06598
20.9908 15.7236 16.0023 -0.623738 1.35289 0.547167
20.5366 18.3848 14.999 -1.65141 0.276324 -1.48653
23.1929 15.214 17.7871 0.959604 0.12936 0.999237
22.7386 17.8751 16.7838 0.233779 1.63688 -0.450374
25.0115 16.3603 15.8706 -2.25969 -2.04522 1.23885
27.2136 15.8506 17.6554 1.41274 -1.2017 -2.10993
27.2844 14.8455 14.9574 -2.61206 -0.53767 0.434578
29.0322 16.9969 15.7389 0.119229 2.75222 -0.304768
31.2343 16.4873 17.5237 -0.0961468 -0.871231 0.215183
33.5071 14.9725 16.6105 -1.3192 -0.776606 -0.669193
31.3051 15.4821 14.8257 1.3656 -0.139791 -0.193975
33.0529 17.6336 15.6072 2.63216 -0.371272 0.471971
35.255 17.1239 17.392 0.0373773 0.773753 1.41135
37.5279 15.6091 16.4788 0.00197538 -1.21462 -0.708156
35.3258 16.1188 14.694 4.50345 -0.957083 0.516032
37.0736 18.2702 15.4755 1.70378 0.394634 2.10116
3.9287 19.5044 17.2205 -1.51848 0.358263 -1.08808
5.67655 21.6558 18.002 1.54406 -1.72233 1.51938
3.47447 22.1655 16.2172 -0.187159 0.377497 -2.06749
3.99948 18.4993 14.5225 -0.870619 0.235991 -1.72411
5.74733 20.6507 15.304 0.0722084 -1.7992 -0.882462
7.94941 20.1411 17.0888 -0.0914117 2.04768 1.3
9.69727 22.2925 17.8703 1.05279 -1.93526 -1.24086
10.2223 18.6263 16.1756 0.692741 -2.22899 1.5331
8.02019 19.1359 14.3908 0.256004 0.107203 0.620073
9.76805 21.2874 15.1723 1.93018 -0.446856 -0.808179
11.9701 20.7777 16.9571 0.507455 -0.0685569 0.36961
14.243 19.2629 16.0439 -1.58446 0.449245 0.607954
13.7888 21.924 15.0406 0.885151 0.288707 0.362523
16.4451 18.7532 17.8287 0.38396 0.0778944 0.0195803
15.9908 21.4143 16.8254 -0.560492 -1.16658 -0.776239
18.2637 19.8995 15.9122 -3.24735 -1.05474 0.453688
20.4658 19.3899 17.697 -0.146842 -1.27936 -2.03147
20.0116 22.051 16.6937 1.63952 1.67531 -1.53414
22.2844 20.5362 15.7805 -0.734699 -0.57003 2.27306
24.4865 20.0265 17.5653 -0.685026 -2.21556 -0.236974
24.5573 19.0214 14.8673 -0.156342 3.54256 -0.538176
26.2343 22.178 18.3468 1.46547 -0.277457 0.460008
26.7593 18.5117 16.6521 0.455083 0.0918796 0.122106
28.5072 20.6632 17.4336 -0.581554 -2.04961 -1.54762
26.3051 21.1728 15.6488 0.246831 0.607625 -0.115575
28.578 19.658 14.7356 0.504253 -1.53288 -1.20359
32.9821 18.6387 18.3052 -0.979953 -0.825861 1.50191
30.7801 19.1484 16.5204 0.123276 0.92478 0.777907
32.5279 21.2998 17.3019 0.490917 0.470763 -2.48878
30.3258 21.8095 15.5171 1.05869 0.946207 -0.803538
32.5987 20.2947 14.6039 0.800667 0.324701 -0.0646968
37.0029 19.2753 18.1735 0.0536494 -0.269313 2.0947
34.8008 19.785 16.3887 0.978737 0.275062 -2.03945
36.5486 21.9364 17.1702 1.22557 0.541934 2.37509
36.6194 20.9313 14.4722 0.459151 -0.781914 -0.448482
5.22233 24.3169 16.9987 -0.207779 -0.626715 0.549717
7.04096 25.4633 15.0822 1.97277 -1.45677 -1.44551
7.49519 22.8022 16.0855 -0.917344 0.359451 0.0281006
9.24304 24.9536 16.867 2.16122 1.06482 1.49213
13.718 22.9291 17.7386 -0.409464 -2.26625 -0.787886
11.5159 23.4388 15.9538 0.96381 0.435722 -0.961833
13.2638 25.5902 16.7353 0.325971 0.517328 -0.727567
11.0617 26.0999 14.9505 -1.0379 3.15855 -2.42189
17.7387 23.5658 17.6069 0.569483 -0.456751 1.43413
15.5366 24.0754 15.8221 -0.310999 0.192609 -0.0734277
17.2845 26.2269 16.6036 0.474667 1.0398 -0.634852
17.8095 22.5606 14.9089 0.0155522 -1.06005 0.814222
21.7594 24.2024 17.4752 1.23889 -0.668119 -0.0811509
19.5573 24.7121 15.6904 2.5898 -1.60523 -1.77308
21.8302 23.1973 14.7772 -2.37271 -2.95393 0.340563
23.5073 26.3538 18.2567 0.584463 -1.58785 0.639356
24.0323 22.6876 16.562 -0.321494 0.636428 0.128143
25.7801 24.8391 17.3435 -2.16644 0.224405 -0.531629
23.578 25.3487 15.5587 0.591761 -0.829081 0.17903
25.8509 23.8339 14.6455 -1.03503 0.727531 0.0489175
28.053 23.3243 16.4303 0.920719 0.908828 -0.217547
29.8008 25.4757 17.2118 1.31035 0.344997 -0.846169
27.5988 25.9854 15.427 -1.47308 -2.32574 -1.34771
29.8716 24.4706 14.5138 0.872945 0.0203728 0.476681
30.2551 22.8146 18.2151 -1.26875 1.0709 -1.14457
32.0737 23.9609 16.2986 -0.502979 0.957569 0.863165
34.2758 23.4512 18.0834 0.187754 0.209785 1.12542
33.8216 26.1123 17.0801 -0.650899 0.753992 0.709805
34.3466 22.4461 15.3854 -0.306064 -1.16511 -0.440219
36.0944 24.5975 16.1669 0.0561455 0.845186 0.00660944
33.8923 25.1072 14.3821 -0.386084 -1.94759 0.0536404
6.97019 26.4684 17.7802 0.0964862 -0.379899 -0.429505
8.78882 27.6147 15.8637 1.51358 -0.24418 -0.271066
10.5367 29.7661 16.6452 -0.324302 0.305128 -0.53975
10.9909 27.105 17.6485 0.790707 -1.82352 0.32181
12.8095 28.2513 15.732 -0.146193 0.225708 -2.05574
15.0116 27.7417 17.5168 0.231537 0.619188 -2.55631
16.7595 29.8931 18.2983 -2.09798 0.270633 2.11569
15.0824 26.7365 14.8188 -1.13128 1.40669 -0.429857
16.8302 28.888 15.6003 0.872157 0.722369 1.47484
19.0323 28.3783 17.3851 -0.573743 0.121727 -1.6065
21.3052 26.8635 16.4719 0.798857 -0.0570261 0.164917
19.1031 27.3732 14.6871 -1.89406 1.05579 0.633337
20.851 29.5246 15.4686 1.77304 -0.79517 -1.25381
23.053 29.0149 17.2534 -0.856346 -0.014816 0.0485877
25.3259 27.5002 16.3402 -0.97344 -0.993775 0.502609
23.1238 28.0098 14.5554 -1.14046 -0.262245 -0.0308068
24.8717 30.1613 15.3369 -0.635413 2.34954 -0.939327
27.528 26.9905 18.125 -0.0216991 0.745296 -1.47422
27.0738 29.6516 17.1217 -0.651411 -3.52933 -2.71652
29.3466 28.1368 16.2085 0.354059 0.654336 -0.405864
27.1445 28.6465 14.4237 0.226607 2.54469 -1.37439
31.5487 27.6271 17.9933 -0.294922 -0.182076 -0.862849
31.0945 30.2882 16.99 -0.574326 0.613661 -0.211692
31.6195 26.622 15.2953 -1.17418 -0.450153 -1.21478
33.3673 28.7734 16.0768 0.485355 -0.214691 1.55846
35.5694 28.2638 17.8616 0.0621573 -0.431662 0.492416
35.6402 27.2586 15.1636 -0.64579 0.377927 -2.09965
12.2845 31.9176 17.4267 0.951768 -0.287538 0.0202387
14.0324 34.069 18.2082 1.32476 -0.609625 -0.471581
14.5574 30.4028 16.5135 -1.09233 -1.02411 0.532253
12.3553 30.9124 14.7287 1.97952 -0.358334 -1.48957
14.1032 33.0639 15.5102 0.553934 -0.0664875 -0.26954
16.3052 32.5542 17.295 -0.413632 -0.112024 -0.839174
16.376 31.5491 14.597 -0.598572 -1.16174 -1.30232
18.1239 33.7005 15.3785 -0.0829745 -0.499446 -0.238252
20.7802 30.5297 18.1666 -0.600038 -2.12594 -0.732571
18.5781 31.0394 16.3818 2.25666 -0.226478 0.0669011
20.326 33.1908 17.1633 -0.899344 0.801383 -1.03309
20.3967 32.1857 14.4653 -0.907808 0.0718698 -1.06685
22.1446 34.3372 15.2468 1.88412 -1.05506 -1.65779
24.8009 31.1664 18.0349 -0.491452 1.58299 -0.657332
22.5988 31.6761 16.2501 -0.609218 1.19916 1.98093
24.3467 33.8275 17.0316 -0.563536 0.343103 0.813994
24.4175 32.8224 14.3336 1.7339 0.681067 0.593372
28.8216 31.803 17.9032 -2.68048 -0.212224 -1.65907
26.6195 32.3127 16.1184 1.15003 1.27171 1.60783
28.8924 30.7979 15.2052 -0.115343 -1.83746 -0.753916
18.0531 34.7056 18.0765 0.0529272 -1.05333 1.62077
15.851 35.2153 16.2917 1.5557 -0.398261 0.635503
17.5989 37.3667 17.0732 1.73503 -0.552821 0.585036
17.6697 36.3616 14.3752 -1.20026 -1.67506 -1.08867
22.0738 35.3423 17.9448 0.760473 -0.614068 -0.861398
19.8717 35.8519 16.16 1.00507 1.21979 1.12942
16.5141 5.95739 21.0604 0.457121 0.205439 -0.434476
18.787 4.4426 20.1472 0.439799 1.99464 1.63843
21.0598 2.9278 19.234 -1.02807 0.81031 -0.812881
20.989 3.93293 21.932 -0.518937 -1.80459 0.126372
22.8077 5.07924 20.0155 1.65132 -2.9543 1.40517
25.0805 3.56444 19.1023 1.15778 -0.0100443 -0.0167979
23.2619 2.41813 21.0188 -0.966873 -1.12116 1.02526
25.0098 4.56957 21.8003 0.285639 2.10212 -0.416414
26.8284 5.71588 19.8838 0.271707 0.0454109 -1.17605
7.56423 10.0063 19.3172 0.832858 -0.883337 1.10009
9.83709 8.49152 18.404 1.57237 -0.333826 -0.662838
9.76631 9.49664 21.102 0.543138 1.34396 0.725534
12.0392 7.98185 20.1888 -1.77921 1.08151 1.41044
13.787 10.1333 20.9703 -1.18051 0.703983 -0.0402543
14.312 6.46705 19.2756 0.415585 -0.0787954 -0.640308
14.2412 7.47218 21.9736 -0.842623 -0.930603 -1.74484
16.0599 8.61849 20.0571 0.370274 -0.270565 0.20256
18.3327 7.1037 19.1439 -1.06238 -0.321981 0.224845
18.262 8.10882 21.8419 0.0727241 -0.557797 0.0264441
20.0806 9.25513 19.9254 -1.02235 -1.25683 -0.742703
20.5348 6.59403 20.9287 0.863644 -2.52093 -0.414072
22.2827 8.74547 21.7102 1.29929 0.200475 -0.11645
22.3535 7.74034 19.0122 -1.96792 -0.386694 0.494348
24.1013 9.89177 19.7937 -0.657851 0.82798 0.750048
24.5555 7.23067 20.797 2.36442 -2.02175 -2.2112
26.3742 8.37698 18.8805 0.492593 -0.640633 -0.637946
26.3034 9.38211 21.5785 1.21068 1.60333 0.746546
28.5762 7.86731 20.6653 -2.50995 0.338409 1.09319
30.3949 9.01362 18.7488 -0.226962 -0.948032 -0.0680864
30.3241 10.0187 21.4468 -0.942366 2.07068 -3.00427
4.83715 14.1822 19.2271 -0.73379 2.10109 -2.34375
5.29137 11.5211 20.2304 1.46638 0.41799 -2.07494
7.03923 13.6725 21.0119 -0.398954 -1.16121 0.895025
9.31208 12.1577 20.0987 -0.148595 -0.369796 0.902392
7.49345 11.0114 22.0152 -1.88393 -0.458439 1.54307
11.0599 14.3092 20.8802 -2.51407 0.307788 -0.652554
11.5849 10.643 19.1855 0.423608 0.225516 1.23396
13.3328 12.7944 19.967 -0.705423 -0.469312 0.244512
11.5142 11.6481 21.8835 0.137568 0.0609863 2.26974
15.6057 11.2796 19.0538 -0.146616 -0.78446 0.993946
17.3535 13.431 19.8353 0.556762 0.062225 -0.95841
15.5349 12.2847 21.7518 0.347781 -1.48808 -1.33758
17.8077 10.7699 20.8386 0.0393416 0.942237 0.252428
19.6264 11.9162 18.9221 -2.03821 0.106624 0.234249
21.3742 14.0677 19.7036 2.15939 -1.66472 1.01386
19.5556 12.9214 21.6201 0.449857 1.72216 0.438699
21.8285 11.4066 20.7069 -0.497973 0.0296949 -0.807205
23.6471 12.5529 18.7904 -0.600837 2.60996 -0.396753