ITEM: TIMESTEP
0
ITEM: NUMBER OF ATOMS
13
ITEM: BOX BOUNDS ss ss ss
1.8118062972370090e+01 2.2671937027629909e+01
1.7729817457419880e+01 2.3060182542580119e+01
1.7692935500850183e+01 2.3097064499149816e+01
ITEM: ATOMS x y z vx vy vz
18.1221 21.9098 21.3082 1.29701 0.319567 1.19659
18.6471 18.2436 19.6135 0.491413 -0.201661 0.120477
20.395 20.395 20.395 2.02579 -1.58495 -0.563029
22.1429 22.5464 21.1765 -0.297217 1.37894 -2.45709
22.6679 18.8802 19.4818 -2.80701 0.782474 0.35651
18.1929 20.9047 18.6102 0.134252 0.14245 -1.36146
19.9408 23.0561 19.3917 1.25324 0.707692 0.131988
20.4658 19.3899 17.697 1.14949 -0.189972 0.593459
22.2136 21.5413 18.4785 -2.1214 0.57268 0.81969
18.5764 19.2487 22.3115 -0.402977 0.525772 0.340318
20.3242 21.4001 23.093 -1.89027 -0.838797 0.437433
20.8492 17.7339 21.3983 0.463944 -0.886081 -0.110833
22.5971 19.8853 22.1798 0.703741 -0.728115 0.495949
ITEM: TIMESTEP
1000
ITEM: NUMBER OF ATOMS
13
ITEM: BOX BOUNDS ss ss ss
1.7775642865198495e+01 2.2647723774044231e+01
1.8213413686842689e+01 2.3277762406652787e+01
1.7817565257948825e+01 2.3103213294848025e+01
ITEM: ATOMS x y z vx vy vz
18.6352 21.9154 21.8046 0.880685 0.365554 0.692974
18.2415 17.7115 20.3103 2.68123 0.240595 -0.312467
20.1384 20.4145 20.1922 -5.32965 1.40106 1.64014
22.1468 22.2688 20.5717 -0.645259 -0.755672 -0.907805
22.8358 19.3665 19.8348 0.783138 0.562871 -0.659401
19.0063 21.637 18.0858 1.54042 -1.89951 -1.5915
19.8346 23.1532 19.4798 2.30713 0.760801 -0.894301
20.3004 19.1166 18.2485 -3.12749 0.87585 1.49562
21.6644 21.5311 18.3779 -1.39086 0.259962 0.593428
18.2381 19.514 21.8927 -0.686027 -3.42298 -2.76571
20.4279 20.4455 22.6699 3.94715 3.89824 1.67781
20.8994 18.128 21.741 -0.475092 -0.93664 -2.3251
22.7661 19.9329 21.9258 -0.485385 -1.35012 3.35632
ITEM: TIMESTEP
2000
ITEM: NUMBER OF ATOMS
13
ITEM: BOX BOUNDS ss ss ss
1.8515032490841254e+01 2.2640876636860099e+01
1.7789246804749631e+01 2.2831388377116198e+01
1.7682113516425375e+01 2.2938487958132974e+01
ITEM: ATOMS x y z vx vy vz
20.1963 22.0331 21.814 0.440092 1.11123 -0.119204
19.3732 18.0197 19.4955 -0.596136 0.80866 -1.10921
18.1327 20.8232 20.7802 0.137358 -3.80425 2.12783
22.9251 22.208 20.3775 0.106543 -2.31954 -2.73419
20.9774 20.1973 20.2544 -3.15975 -2.54348 -3.04845
19.2092 21.1197 18.5067 2.96329 0.0426416 5.97164
20.793 23.2632 19.3284 -0.00465212 -0.126404 -1.25199
20.421 18.9398 17.3811 1.54114 0.529473 -0.676073
21.7153 21.0781 17.6893 2.24954 1.74816 -1.21417
18.4708 18.3506 21.9978 -1.4226 -0.461843 -1.09505
19.4862 20.0772 23.3327 -0.937812 -1.39787 2.08349
20.9679 18.5922 21.8312 -2.48904 3.8005 1.24066
22.467 20.4331 22.3462 1.17202 2.61271 -0.175268
ITEM: TIMESTEP
3000
ITEM: NUMBER OF ATOMS
13
ITEM: BOX BOUNDS ss ss ss
1.7639244821212522e+01 2.3363499468571447e+01
1.8178776808370593e+01 2.2718253664056203e+01
1.8069096810485760e+01 2.3633838701579503e+01
ITEM: ATOMS x y z vx vy vz
20.2924 21.3971 20.8299 2.25804 0.133562 0.00165498
19.3928 18.4686 19.549 -2.58423 -2.2069 -0.0381346
17.6506 20.4675 21.3824 1.91567 2.15562 -1.17963
23.3661 21.2226 19.6513 1.64651 -0.645571 0.806155
22.0889 19.243 20.4064 1.01202 0.0964046 0.398535
18.3593 20.7589 18.9235 0.203162 -2.09003 0.485397
19.9437 22.7138 18.7855 2.35674 -0.141967 -1.80405
20.8606 19.9646 18.1465 -3.45685 -2.10553 -1.13217
22.5009 22.4616 18.0883 -3.68785 1.86405 3.80314
17.8385 18.1877 21.6198 -2.07887 1.22704 -0.453408
20.3064 20.6785 23.6319 -0.190219 -1.45026 0.428249
20.2433 18.5698 22.0154 3.33371 -0.101606 -2.31907
22.2915 21.0012 22.1051 -0.727842 3.2652 1.00333
ITEM: TIMESTEP
4000
ITEM: NUMBER OF ATOMS
13
ITEM: BOX BOUNDS ss ss ss
1.7493344251215763e+01 2.2865974754293745e+01
1.8607154893417121e+01 2.2356121824009101e+01
1.7759067824716574e+01 2.3250102943085295e+01
ITEM: ATOMS x y z vx vy vz
20.1538 21.1057 20.4594 -0.743926 -0.430437 -2.19478
19.2311 19.1022 18.5568 0.858537 0.0439684 -2.59614
17.6171 20.8351 22.2873 1.30234 1.29026 3.21233
22.9266 21.4383 20.1808 0.596384 -0.367719 -1.3647
21.2528 18.5477 20.197 -3.01573 0.894659 1.8521
17.9446 21.2327 19.7409 0.325275 1.13323 0.890924
19.8171 21.4276 17.9473 2.00145 -1.25433 -2.54692
22.2509 20.1687 18.42 -2.0191 -0.77849 4.53579
21.766 22.6339 17.9062 -0.0773922 2.56136 -1.02726
18.8772 18.5232 21.0617 -0.802842 -2.60128 -2.51377
20.1613 20.8665 23.2917 -0.938871 -0.231635 0.438786
20.7156 18.8174 22.7178 3.01591 -2.48382 1.3474
22.4209 20.4362 22.368 -0.502032 2.22423 -0.0337837
ITEM: TIMESTEP
5000
ITEM: NUMBER OF ATOMS
13
ITEM: BOX BOUNDS ss ss ss
1.7630985141941199e+01 2.2518664789887360e+01
1.8303916885562522e+01 2.3025791987204521e+01
1.7608716672569397e+01 2.3433222852890012e+01
ITEM: ATOMS x y z vx vy vz
19.8935 21.1479 20.1308 0.129988 2.59785 -2.81435
19.4893 19.0612 18.3375 -2.94178 0.960305 0.604217
18.4934 21.1817 22.2665 -0.150649 -4.04443 1.20576
22.4883 21.6203 20.8351 3.17727 -0.146537 3.73994
21.3811 18.1272 19.7688 -0.560108 -1.94903 1.80959
17.6249 20.501 19.5352 -0.181433 -2.03466 -1.61833
20.2572 21.2502 17.4381 -0.778471 2.5832 -3.05612
22.2986 20.2817 18.4986 -0.141904 0.877029 0.422433
21.3749 22.9156 18.8587 0.0471025 -0.217564 -2.02228
18.8488 18.8837 21.4555 1.35709 -0.796379 -0.139782
20.6632 21.6642 22.729 0.564932 2.9803 2.32523
20.5851 18.9427 23.5692 -0.807527 2.47838 1.23995
21.7368 19.5576 21.712 0.285488 -3.28846 -1.69625
ITEM: TIMESTEP
6000
ITEM: NUMBER OF ATOMS
13
ITEM: BOX BOUNDS ss ss ss
1.7675915376333997e+01 2.2696418381144220e+01
1.7472092411490088e+01 2.2485085439534316e+01
1.8073965347641224e+01 2.3625062386712525e+01
ITEM: ATOMS x y z vx vy vz
19.986 21.5276 20.7413 -2.81424 -2.28835 0.388347
19.5534 18.8799 18.1925 0.495582 -1.74094 -0.912456
18.0448 20.4807 22.0597 1.9791 -0.763692 2.09403
22.5273 22.3756 21.0103 3.02771 0.428369 1.83004
20.7242 17.2779 19.0428 0.140639 -2.23262 3.11256
17.7792 20.4075 19.3662 -3.1387 2.53496 -3.3597
19.6808 21.4262 17.7412 0.520821 1.16327 -0.654644
21.8104 19.7556 19.1945 -0.490515 2.80241 -1.82349
21.7948 22.5268 18.7614 -0.458412 1.67329 0.213372
19.6413 18.856 20.9649 3.05515 -1.31443 1.74922
21.4799 21.7601 23.2147 1.25032 -1.25862 -1.37186
19.7904 20.0174 23.1527 -1.87029 1.77556 -0.651959
22.3227 19.8435 21.6927 -1.69717 -0.779207 -0.613465
ITEM: TIMESTEP
7000
ITEM: NUMBER OF ATOMS
13
ITEM: BOX BOUNDS ss ss ss
1.7589267220683904e+01 2.3481568430541316e+01
1.8156740293597355e+01 2.2696421035147683e+01
1.7924739248349425e+01 2.3373696640071440e+01
ITEM: ATOMS x y z vx vy vz
20.0971 21.0076 20.2054 1.47058 2.97037 0.365659
19.8295 19.1558 18.1876 0.68254 -1.37669 1.08554
17.8812 20.6391 21.7074 1.94573 0.544608 0.00312984
23.5505 20.518 20.701 -0.76786 -1.95401 0.28304
21.4455 18.2146 19.5041 -2.13119 -1.08638 -2.32601
17.6357 19.6366 19.6325 -0.520459 -1.32801 -1.46935
18.7162 21.5881 18.226 -0.841213 -2.86467 3.41516
21.914 20.6892 18.5447 -0.374093 4.21055 -0.92955
22.0796 22.737 20.2657 -0.644162 -3.06307 1.5623
19.3333 18.5175 20.932 1.52422 1.7133 -1.32923
21.2786 22.3728 22.4728 0.110079 1.56781 -0.930197
19.6739 20.5661 22.9469 -0.735374 0.755862 -3.35457
21.6998 19.4926 21.8089 0.281199 -0.0896847 3.62408
ITEM: TIMESTEP
8000
ITEM: NUMBER OF ATOMS
13
ITEM: BOX BOUNDS ss ss ss
1.7514239761151320e+01 2.3449088130311900e+01
1.8641955566861490e+01 2.2524519175477657e+01
1.8213691552089262e+01 2.2914232075962023e+01
ITEM: ATOMS x y z vx vy vz
20.227 21.0167 20.4013 0.766327 -1.81079 -2.03909
19.7845 18.7992 18.2443 0.819984 0.621605 -1.97213
17.9225 20.9239 21.3779 0.967674 -0.214953 1.88418
23.4454 20.8183 21.0146 0.0657181 3.44352 1.34122
21.8274 19.0224 19.5408 -1.39724 -0.797518 1.70301
17.524 19.6527 19.3918 1.37171 4.42184 -0.184299
18.4693 21.3231 18.3299 -1.85385 0.0164379 -0.242837
21.2098 20.9433 18.2176 -1.41773 -3.02275 -0.165691
22.834 22.5179 19.9948 1.11535 -0.66498 -0.493832
19.2412 18.6371 21.1918 -0.00921796 -2.35088 0.433228
21.1971 22.0082 22.4068 -0.198648 3.15438 1.12365
19.7631 20.2636 22.9048 -1.18643 -2.36983 -1.0912
21.6897 19.2089 22.1186 0.956355 -0.426078 -0.296204
ITEM: TIMESTEP
9000
ITEM: NUMBER OF ATOMS
13
ITEM: BOX BOUNDS ss ss ss
1.7961768246033685e+01 2.2636000562651240e+01
1.8062566987038526e+01 2.2266799758918644e+01
1.7319222619264973e+01 2.3073161253889605e+01
ITEM: ATOMS x y z vx vy vz
20.4676 21.5141 20.4018 -0.52441 0.480328 2.44883
20.0494 19.0405 18.7217 1.6386 2.0112 1.49424
18.7922 22.1191 22.1836 1.44135 0.346621 -1.79148
22.6643 21.489 21.7135 -0.368758 0.976218 2.67604
22.4214 20.2522 19.7204 0.794 0.299245 -0.441916
17.9946 20.3263 20.4349 0.44039 1.05851 1.17333
18.8321 20.882 18.1182 -0.455218 0.128569 -0.120107
21.5942 19.9831 17.2431 -1.05702 -1.1826 -0.966204
22.0331 22.1191 18.2448 -0.349373 -1.37151 -1.71128
19.364 17.9279 20.7032 1.91662 -2.38642 -0.129687
20.5918 21.1947 23.2008 -1.12289 -0.67989 0.634866
18.922 19.2133 22.5954 -2.02892 0.767193 0.650518
21.4084 19.0737 21.8536 -0.324369 -0.447462 -3.91716
ITEM: TIMESTEP
10000
ITEM: NUMBER OF ATOMS
13
ITEM: BOX BOUNDS ss ss ss
1.8135613909913197e+01 2.2849424977191113e+01
1.7625587620905780e+01 2.2625002516771822e+01
1.7018750987696066e+01 2.3327521311998431e+01
ITEM: ATOMS x y z vx vy vz
20.0851 21.9157 20.5678 -0.666535 -0.46912 -1.23067
20.1552 18.5764 18.598 2.17451 -1.26874 2.16864
18.1081 21.7821 22.531 -1.2994 1.24821 0.77936
22.3135 21.5692 21.3611 -1.93253 2.51718 -1.97313
22.6298 19.8285 19.2457 1.38684 -1.70372 -2.52715
18.4808 20.2527 20.6073 -0.61565 1.01536 0.559413
19.8945 21.0047 18.1526 -1.42718 1.41732 -0.737445
21.7769 20.1219 16.8633 -0.917406 -1.12859 0.137742
22.0553 22.2765 18.5626 1.77017 0.214745 2.8947
18.9339 17.846 21.0227 2.30351 -1.39409 -1.08049
20.543 21.3669 23.1872 2.40169 -5.08633 2.1075
19.184 19.3478 23.3027 -0.258855 3.16917 -2.15386
20.9749 19.2466 21.133 -2.91916 1.46862 1.05538
ITEM: TIMESTEP
11000
ITEM: NUMBER OF ATOMS
13
ITEM: BOX BOUNDS ss ss ss
1.7811792468643482e+01 2.3011338003689406e+01
1.7608859493590707e+01 2.2956644041445561e+01
1.7316851703277692e+01 2.2947754219812239e+01
ITEM: ATOMS x y z vx vy vz
20.3531 23.4389 20.5864 1.76143 3.04728 -1.43204
19.7448 18.5361 18.2899 -1.05036 -1.09126 0.0436266
18.4093 21.4832 21.6713 1.72977 -1.82277 0.402748
22.9336 21.0569 21.4455 -0.569039 -3.42237 1.27125
21.8872 19.1784 19.6431 -0.879754 2.17967 0.84131
18.1435 18.9763 20.2247 2.12873 -2.91232 2.14506
19.7199 21.0956 19.256 2.08857 -1.76722 -0.0740367
21.3174 20.4843 17.2876 -2.54353 1.86948 1.33981
22.2094 21.9714 19.1384 -0.221072 -1.59896 0.086458
20.0721 17.6045 20.6171 0.0155685 0.101559 -3.62701
21.0584 22.1312 22.521 -2.88573 1.46043 0.0330751
18.616 19.2456 22.7238 0.562155 2.5525 -1.95575
20.6702 19.9327 21.7303 -0.136748 1.40398 0.925492
ITEM: TIMESTEP
12000
ITEM: NUMBER OF ATOMS
13
ITEM: BOX BOUNDS ss ss ss
1.7761687612771567e+01 2.2803681884699852e+01
1.8008369058120486e+01 2.3419212985506189e+01
1.7489568996099500e+01 2.2995389257429814e+01
ITEM: ATOMS x y z vx vy vz
19.6481 23.2513 20.2337 1.75187 -1.93959 1.02169
19.9514 18.3317 18.0956 -1.38474 1.23045 2.08697
18.3667 21.6991 21.7553 -0.539662 1.21013 0.974782
22.2408 19.9856 20.5025 -0.404014 1.79 -2.48607
22.4582 18.4682 18.2372 1.50681 -1.15643 -2.06424
18.4368 19.0105 20.622 2.06955 -0.858428 -1.2368
19.6977 20.7444 19.5253 -2.48805 1.74532 -1.92953
21.9792 20.8697 18.0231 2.87025 -0.0164928 1.52434
22.1801 22.5114 19.9533 -0.834792 0.312881 2.76587
20.873 17.9911 20.497 -1.33718 -3.63794 1.57647
21.0281 22.541 22.1664 -1.49413 0.389436 -2.88573
17.9364 19.7501 23.1176 -0.86343 -0.64625 2.18741
20.3385 19.9811 22.4061 1.14751 1.5769 -1.53515
ITEM: TIMESTEP
13000
ITEM: NUMBER OF ATOMS
13
ITEM: BOX BOUNDS ss ss ss
1.8219604006288105e+01 2.2544218080331323e+01
1.7721184057994634e+01 2.4149578136060107e+01
1.7891226343342538e+01 2.3044314949519126e+01
ITEM: ATOMS x y z vx vy vz
20.0792 23.7329 20.3071 -0.64671 -0.278859 -1.36327
20.1821 18.6652 18.2006 0.519367 1.75042 1.00418
18.6846 21.8109 21.9065 0.9512 -1.02566 -1.13514
22.2394 20.2391 20.4995 3.21507 -2.30241 -0.766786
22.7211 18.5941 18.7659 -0.187534 1.16313 -0.86309
18.1507 18.5906 20.9092 -1.18806 -1.65051 2.36454
19.6031 20.6998 19.6966 -0.909728 1.54419 2.4282
21.8536 20.6845 17.7985 0.891322 2.34479 1.42201
21.9173 22.6674 19.4936 0.880106 -0.588469 -3.27424
20.7446 18.0411 20.553 -0.666406 -1.19501 -0.566425
21.2863 22.2673 21.7652 1.13901 1.72952 -0.0682237
17.5186 19.5735 22.814 -3.4321 -1.07056 -0.674307
20.1543 19.5687 22.4253 -0.565535 -0.420568 1.49256
ITEM: TIMESTEP
14000
ITEM: NUMBER OF ATOMS
13
ITEM: BOX BOUNDS ss ss ss
1.7285144821386744e+01 2.2711580851502518e+01
1.7946959472091113e+01 2.3618576105513291e+01
1.7923595123403697e+01 2.2699387427703162e+01
ITEM: ATOMS x y z vx vy vz
19.8524 23.5271 20.3705 -0.851379 -2.91266 -0.434887
19.872 18.6892 18.1811 0.173862 -0.404003 0.0799423
18.5652 22.0666 22.3283 0.607432 0.873008 1.18649
22.5502 20.2397 20.8408 1.94049 3.30196 -0.122255
22.4737 18.6394 18.8444 -1.69651 2.49656 -0.543894
18.4216 18.0816 20.2875 -0.919629 0.540366 0.14853
19.7171 20.6448 19.8427 2.16976 -1.44906 -3.10569
21.3317 20.8403 17.9366 -1.01765 -0.527248 -3.1568
21.9513 22.5728 19.462 0.390793 0.568101 1.98748
20.8815 17.8986 20.6561 -0.558048 -2.14289 2.34838
21.4432 22.1924 21.8493 1.54644 -0.986137 1.88471
17.8609 19.9006 22.1532 -1.4796 0.741161 -1.05914
20.2143 19.8417 22.3825 -0.305967 -0.0991654 0.787144
ITEM: TIMESTEP
15000
ITEM: NUMBER OF ATOMS
13
ITEM: BOX BOUNDS ss ss ss
1.7819168885989551e+01 2.2485404081187706e+01
1.8175411561011806e+01 2.2856169244002199e+01
1.7647532300778447e+01 2.2739848775197846e+01
ITEM: ATOMS x y z vx vy vz
19.3882 22.9588 20.5994 1.06515 -1.02881 -0.378339
19.9439 18.4208 18.1588 0.361166 1.26397 -0.927861
18.763 22.3513 22.927 -1.2594 -1.05422 0.223894
22.3751 20.0173 21.2669 1.03783 3.05454 -1.40408
22.359 19.2895 18.6518 0.664051 -2.40863 0.857549
18.8721 18.2043 20.6308 -0.639483 -2.99392 2.39389
19.9565 20.3515 19.7406 -0.258218 -0.660946 -0.432852
21.2155 20.7611 17.1923 2.11884 -0.460306 -1.09068
22.1049 21.9697 19.4541 -0.985243 1.4692 1.80792
21.2271 17.6724 20.247 -2.40458 1.3972 -0.92773
21.2231 22.4176 22.1182 0.217746 -0.91135 0.186581
17.5335 20.6972 21.73 1.15781 1.35508 2.76614
20.173 20.0235 22.418 -1.07567 0.978198 -3.07444
ITEM: TIMESTEP
16000
ITEM: NUMBER OF ATOMS
13
ITEM: BOX BOUNDS ss ss ss
1.7756232681178901e+01 2.2686802913853775e+01
1.7919481271802344e+01 2.2956680255794296e+01
1.7703783200918657e+01 2.3204497456213126e+01
ITEM: ATOMS x y z vx vy vz
18.9282 22.9811 20.8878 0.0316031 0.271817 -0.165094
20.0862 18.878 18.1463 -0.354094 -1.26177 -1.80101
19.1754 21.944 23.0928 -0.142412 -1.62641 0.0318839
22.1732 20.4474 20.3522 -1.11469 0.621401 -1.64891
22.3963 18.1789 18.6832 -3.36302 -1.17963 -0.611804
18.9316 18.4316 20.3193 2.6042 0.806719 2.4617
19.4673 20.8133 19.6934 -0.136295 -0.636762 4.24567
21.9764 20.4239 17.7629 1.40762 1.57179 1.27738
21.2701 22.8449 19.3679 1.66773 1.29218 0.703077
21.3114 17.8149 21.0264 -0.377034 -1.21215 1.20662
21.2858 22.1956 21.8407 -0.652722 1.75482 -1.44257
17.8616 20.4966 21.7982 1.48587 -1.32811 -3.1963
20.2715 19.6851 22.1639 -1.05675 0.926096 -1.06062
ITEM: TIMESTEP
17000
ITEM: NUMBER OF ATOMS
13
ITEM: BOX BOUNDS ss ss ss
1.7860261280469906e+01 2.2388464516692384e+01
1.7728099366552780e+01 2.3055379383234840e+01
1.7711749404513697e+01 2.3015765643312097e+01
ITEM: ATOMS x y z vx vy vz
19.2991 22.6684 21.0768 0.115187 -0.176077 -1.26704
19.6834 18.8537 17.7317 2.36837 1.3606 2.70949
18.6552 21.853 23.2773 -1.47973 0.295772 1.9263
23.0033 20.5618 19.8686 3.72905 -2.0038 -2.7625
21.7309 18.5351 19.0063 1.85465 2.3377 -1.6047
19.2518 18.186 20.5381 -2.34831 -1.15353 -0.139044
20.0232 20.5361 19.7536 -0.277122 -0.345115 0.27651
21.6963 20.6832 17.5692 -2.14815 -1.71626 0.562041
21.3129 22.7763 19.3041 -0.676858 0.309625 0.679678
21.5862 18.4711 21.4598 0.350235 1.44588 -1.15342
21.4986 21.5279 21.7328 0.712903 -0.625899 -0.185349
17.7077 20.8055 21.3212 0.820131 -0.120818 -0.730523
19.6863 19.6771 22.4956 -3.02035 0.391921 1.68856
ITEM: TIMESTEP
18000
ITEM: NUMBER OF ATOMS
13
ITEM: BOX BOUNDS ss ss ss
1.7791424827307608e+01 2.2803629393081291e+01
1.8252316464246999e+01 2.3039492697989708e+01
1.7703468878836329e+01 2.3144422274982794e+01
ITEM: ATOMS x y z vx vy vz
19.1746 22.6905 20.922 1.5125 -0.71836 1.01657
20.4475 18.6002 18.18 0.546896 0.446531 0.107661
19.4115 22.1618 23.2725 0.804829 0.29747 1.18239
22.7209 20.2728 20.1835 0.709344 -1.02712 0.668442
22.8758 18.6132 18.4562 1.11007 -0.365952 -1.61538
18.2994 18.5462 20.3335 0.717503 -1.1578 -1.56556
19.34 20.4559 19.7377 0.176078 2.02473 -1.55299
21.6486 20.7352 17.7911 -0.158963 -2.99269 0.487919
21.2002 22.4235 19.4247 -0.86684 0.58337 0.229329
21.0742 18.4265 20.7193 -1.51443 0.474494 0.0532021
21.6171 21.7683 21.8925 -2.17749 2.50572 -0.517444
17.4415 20.8098 21.7928 -0.602236 -0.375772 1.60562
19.8837 19.631 22.4292 -0.257258 0.305385 -0.0997505
ITEM: TIMESTEP
19000
ITEM: NUMBER OF ATOMS
13
ITEM: BOX BOUNDS ss ss ss
1.7773850535805071e+01 2.2475109884722613e+01
1.7919271450503587e+01 2.3153690982443777e+01
1.7748500649563347e+01 2.3027745094574666e+01
ITEM: ATOMS x y z vx vy vz
19.3727 23.1477 20.5466 -0.387827 -1.34738 1.35586
19.6467 18.7019 18.5642 -0.769517 1.59997 1.14823
18.8964 21.1479 22.4765 -0.060221 -2.16362 0.608302
22.549 20.1617 20.2654 0.102771 1.0682 -1.45819
22.4254 18.6772 18.1395 -0.183268 0.0310428 0.511637
18.7539 18.6845 21.4629 1.30744 0.900187 -1.82068
19.8758 20.6833 20.0689 -1.10741 -3.06353 0.788689
21.2108 20.7942 17.7832 -0.930182 -1.34243 0.0546384
21.5833 22.8253 19.7989 1.65935 -1.24805 -1.12259
21.2292 18.0292 20.6213 -1.15783 2.30822 1.06073
21.1857 22.043 22.1447 -1.51473 0.460608 1.767
17.3778 20.5828 20.778 1.3404 1.79635 -2.60212
21.0283 19.6564 22.4849 1.70103 1.00045 -0.291519
ITEM: TIMESTEP
20000
ITEM: NUMBER OF ATOMS
13
ITEM: BOX BOUNDS ss ss ss
1.7401245113981780e+01 2.2615684280234426e+01
1.8080768531923155e+01 2.2925106682724806e+01
1.7820706626333262e+01 2.2746107921174151e+01
ITEM: ATOMS x y z vx vy vz
19.0839 22.8341 20.0968 0.570944 -1.98226 -1.10837
19.3205 18.6683 18.8085 -1.01348 -1.87105 0.579829
18.8756 21.1925 22.5635 -0.677812 -1.43196 -0.84343
22.9703 20.6733 19.9772 0.853019 -2.06942 0.0685759
22.0114 18.8374 18.5678 -0.975874 1.34923 0.79146
18.8888 18.5145 21.6394 -0.537136 -0.014729 0.928271
20.3556 20.5182 20.2467 0.377584 2.87031 0.444729
21.0943 21.3226 17.9779 -1.18197 3.55547 -1.03282
21.8864 22.9162 19.9485 -0.230489 -0.731811 -0.861501
20.8426 17.5335 20.475 0.216083 -1.77553 -0.926055
21.1291 22.256 22.0805 -0.372197 -0.40385 0.968058
17.6051 20.4351 20.3131 1.79202 1.20554 -1.20406
21.0715 19.4333 22.4402 1.17931 1.30005 2.19532
ITEM: TIMESTEP
21000
ITEM: NUMBER OF ATOMS
13
ITEM: BOX BOUNDS ss ss ss
1.7849190369353057e+01 2.2781270115580188e+01
1.7978864697772487e+01 2.2896362759444727e+01
1.8025495111870892e+01 2.3002470770040532e+01
ITEM: ATOMS x y z vx vy vz
19.4814 22.8766 19.9393 -1.85981 1.35673 -0.821011
19.6302 18.8264 18.5936 -0.112545 -0.237984 -0.170893
18.9078 21.0738 22.4702 0.39458 -0.863505 -0.2594
22.8859 20.0473 21.1276 0.091273 0.0998688 -3.92277
21.9037 19.8734 18.295 0.032132 -0.190773 4.7719
18.8383 18.4955 21.5391 -1.13185 1.0658 -1.11842
20.4435 20.5901 20.3937 0.780394 -2.15415 0.410857
19.2914 21.0531 17.9723 -1.73557 -1.00465 -1.32572
22.1621 22.2373 19.4267 0.674281 -0.151126 1.80157
21.1699 18.0648 20.7442 -1.31604 1.97716 0.253615
21.7218 22.3529 21.8071 -0.180818 -0.00446368 0.275697
17.7942 20.1886 19.943 4.2862 0.292131 1.30272
20.9049 19.4552 22.883 0.0777722 -0.185024 -1.19814
ITEM: TIMESTEP
22000
ITEM: NUMBER OF ATOMS
13
ITEM: BOX BOUNDS ss ss ss
1.7849190369353057e+01 2.2781270115580188e+01
1.7978864697772487e+01 2.2896362759444727e+01
1.8025495111870892e+01 2.3002470770040532e+01
ITEM: ATOMS x y z vx vy vz
19.4953 22.9359 20.1225 -1.63023 -0.447286 -1.16609
19.7251 18.529 18.5402 -0.322905 2.60779 -0.313748
18.7932 21.359 22.3583 0.403873 2.20419 2.98507
22.9163 19.9973 21.0484 0.895012 0.940686 -0.126032
21.9592 19.7116 18.4497 0.199215 -0.497453 -0.77919
18.6755 18.6416 21.21 -1.26353 -2.7801 1.81214
20.3992 20.2948 20.455 0.0827508 -0.590914 0.950298
19.6115 21.1287 18.0733 1.48698 -0.687266 0.634376
21.9567 22.1397 19.2764 1.35048 -0.748111 -3.00554
21.4844 17.8917 20.8687 1.28302 -1.67828 -0.973263
21.3681 22.3449 21.7979 0.733471 2.58418 3.26338
17.7101 20.5212 20.2758 -1.72469 -0.0521635 -2.36347
21.0404 19.6396 22.6588 -1.49344 -0.855287 -0.917948
ITEM: TIMESTEP
23000
ITEM: NUMBER OF ATOMS
13
ITEM: BOX BOUNDS ss ss ss
1.7729743112804456e+01 2.3233309039117650e+01
1.7977704058513922e+01 2.2880478248319832e+01
1.8308471661057808e+01 2.2696584059153302e+01
ITEM: ATOMS x y z vx vy vz
19.1711 22.8765 20.1246 0.540989 2.39516 -1.879
19.2818 18.5748 18.7855 -0.1797 -0.246087 -1.32116
18.8265 21.071 22.3928 0.853852 -2.85345 1.01325
23.0818 19.9421 20.7732 1.79931 0.861444 0.11068
21.9196 19.3656 18.4326 -1.71417 -0.727421 -0.369289
18.5971 18.5496 21.3476 1.37078 -0.867443 2.76912
20.4112 20.3142 20.5615 1.13513 -1.17725 0.697306
20.0228 21.1493 17.9438 1.27347 -2.28684 -0.00212585
21.8901 22.178 19.6328 0.676813 2.19891 -1.08873
21.3079 17.8181 20.5589 -0.415017 -0.0343617 -2.25067
21.17 22.5633 22.0966 0.680971 0.236295 1.37615
17.85 20.5703 19.6358 -2.89714 1.69738 -1.03698
21.6052 20.1624 22.8493 -3.12528 0.803656 1.98146
ITEM: TIMESTEP
24000
ITEM: NUMBER OF ATOMS
13
ITEM: BOX BOUNDS ss ss ss
1.7729743112804456e+01 2.3233309039117650e+01
1.7977704058513922e+01 2.2880478248319832e+01
1.8308471661057808e+01 2.2696584059153302e+01
ITEM: ATOMS x y z vx vy vz
19.3635 22.9627 20.2745 1.1821 -0.628432 -0.00158939
19.3716 18.6129 18.8878 -0.321674 2.82054 -0.374103
18.7243 20.8193 22.4109 -0.464605 0.845801 -0.499375
22.7945 20.2426 20.8195 0.969863 1.49876 -0.18004
22.0212 19.3651 18.3558 -3.44218 -0.154469 1.27339
18.7567 18.6118 21.7642 -0.74966 -1.05421 1.47592
20.3005 20.5894 20.1811 1.43868 1.40052 1.58317
20.1844 21.0684 17.7831 1.81534 -0.225515 -0.610219
21.9814 22.2354 19.1494 1.33416 -0.14381 -1.36755
21.3853 17.9631 20.8141 2.02561 0.712023 -0.792379
21.3026 22.3429 21.934 -1.06229 -0.547557 -1.44734
17.7842 20.5286 19.9709 -0.574624 -2.51242 1.02559
21.1651 19.7927 22.7896 -2.15073 -2.01122 -0.0854829
ITEM: TIMESTEP
25000
ITEM: NUMBER OF ATOMS
13
ITEM: BOX BOUNDS ss ss ss
1.7685772542958105e+01 2.3081197592892575e+01
1.8056185653662869e+01 2.2658638957342621e+01
1.7844180910230861e+01 2.2946290451210963e+01
ITEM: ATOMS x y z vx vy vz
19.1502 22.735 20.1179 -0.716527 0.859238 -0.772314
19.3215 18.6892 18.8338 -0.64988 0.0790868 0.204454
18.7665 20.9983 22.4215 0.208084 -0.110334 -1.80258
23.0753 20.4003 20.7784 -0.326491 0.967572 -0.605664
22.0112 19.4817 18.5223 -3.10588 -0.93585 0.662829
18.8215 18.6979 21.8029 3.21491 -0.7497 -2.53869
20.4098 20.3411 20.3139 -1.58481 1.93425 0.328546
19.8615 21.1006 17.8412 1.56522 -2.3013 3.7687
22.264 22.1491 19.2226 2.47873 -0.0324021 0.787409
21.2197 17.9568 20.8421 -0.588237 -1.1643 -0.899552
21.1968 22.2616 21.9621 -0.945795 -0.805869 0.96791
17.8985 20.5406 19.774 -1.12589 0.475695 -0.346785
21.1386 19.7829 22.7023 1.57657 1.78392 0.245738
ITEM: TIMESTEP
26000
ITEM: NUMBER OF ATOMS
13
ITEM: BOX BOUNDS ss ss ss
1.7685772542958105e+01 2.3081197592892575e+01
1.8056185653662869e+01 2.2658638957342621e+01
1.7844180910230861e+01 2.2946290451210963e+01
ITEM: ATOMS x y z vx vy vz
19.342 22.8129 20.2133 -2.14163 2.76715 -1.5682
19.1604 18.3991 19.0073 0.202681 2.20872 0.859577
18.9207 21.1769 22.2432 0.00392623 -2.21086 1.3989
22.8748 20.3359 21.0443 0.121421 0.26786 2.09401
21.7829 19.135 18.5933 -1.74624 -0.593283 0.148113
18.9652 18.5736 21.5878 0.754829 0.865563 1.96503
20.3403 20.2775 20.2787 -0.868839 -0.0441907 -1.03959
19.8664 21.2546 18.0174 0.539769 0.108601 -1.67043
21.912 22.3538 19.3802 3.07343 -0.710038 -0.646705
21.4764 17.9524 20.6109 2.06855 -0.948227 -1.36343
21.2361 22.4552 21.8181 0.495259 -0.899992 1.63253
17.8716 20.6468 19.5551 -1.65723 -1.53865 -0.36431
21.3862 19.7614 22.7854 -0.84592 0.727348 -1.4455
ITEM: TIMESTEP
27000
ITEM: NUMBER OF ATOMS
13
ITEM: BOX BOUNDS ss ss ss
1.7685772542958105e+01 2.3081197592892575e+01
1.8056185653662869e+01 2.2658638957342621e+01
1.7844180910230861e+01 2.2946290451210963e+01
ITEM: ATOMS x y z vx vy vz
19.3416 22.5975 19.9579 1.25439 0.914872 -0.427323
19.1052 18.8487 18.6675 -0.0880006 0.155811 -0.420402
18.717 21.0811 22.4173 -1.57361 -0.396188 -0.776069
23.216 20.2089 20.6647 -0.0670451 0.879667 -0.677119
21.8562 19.4399 18.3708 -1.01703 -0.890097 -1.20855
18.8908 18.5363 21.5899 0.934451 0.0564775 0.337022
20.4347 20.3674 20.4387 -0.755759 0.5483 -1.94522
19.9503 21.0948 17.842 -0.498731 -1.8642 -1.42197
22.1214 21.9741 19.185 1.24225 -0.449761 3.59671
21.5 18.149 20.824 -0.639347 1.02639 -0.868367
20.9274 22.4375 21.9904 0.1313 0.0363637 1.07726
17.7964 20.5059 20.0949 1.15497 -0.793511 2.35811
21.278 19.894 23.0918 -0.0778433 0.775881 0.375921
ITEM: TIMESTEP
28000
ITEM: NUMBER OF ATOMS
13
ITEM: BOX BOUNDS ss ss ss
1.7685772542958105e+01 2.3081197592892575e+01
1.8056185653662869e+01 2.2658638957342621e+01
1.7844180910230861e+01 2.2946290451210963e+01
ITEM: ATOMS x y z vx vy vz
19.4369 22.9033 20.0226 0.177541 -2.00592 0.835115
19.2963 18.4659 19.0153 -1.60274 1.18061 2.14264
18.798 21.3078 22.2225 0.096883 1.31817 -0.94565
22.9779 20.2676 21.0032 -0.101788 -0.563985 0.775361
21.7669 19.5167 18.4926 0.103531 0.781075 0.578345
18.9124 18.2736 21.4108 -0.689156 -0.0670278 0.928638
20.4284 20.2646 20.5007 -0.418003 -0.371838 -1.90548
19.7572 21.2651 18.0724 0.150326 1.20728 1.35043
21.9312 22.1729 19.2928 -0.100216 1.19253 -2.04905
21.5024 17.6836 20.4966 1.9171 -0.995058 -0.499074
20.9994 22.557 21.8893 -0.707064 1.34815 -0.189896
17.9465 20.7016 19.9275 0.91112 -0.695315 -1.86126
21.3816 19.7552 22.7888 0.262465 -2.32866 0.839872
ITEM: TIMESTEP
29000
ITEM: NUMBER OF ATOMS
13
ITEM: BOX BOUNDS ss ss ss
1.7685772542958105e+01 2.3081197592892575e+01
1.8056185653662869e+01 2.2658638957342621e+01
1.7844180910230861e+01 2.2946290451210963e+01
ITEM: ATOMS x y z vx vy vz
19.3181 22.7411 20.123 -0.593677 -1.60704 0.028486
19.1709 18.6761 18.9196 -1.76137 1.11478 -1.90876
18.73 20.8779 22.3979 0.876206 0.956711 -0.319708
22.9506 20.4681 20.9588 0.92862 -0.411507 -1.08464
22.0182 19.4388 18.2961 0.458721 0.42087 -1.4764
18.9045 18.5771 21.5836 -2.07332 -1.48056 -0.509708
20.4178 20.4412 20.4891 1.04414 1.70089 -0.707986
19.8199 21.2705 17.9938 -0.692127 -3.23807 1.10666
22.1029 22.0955 19.2213 0.827246 0.710216 0.877748
21.4741 18.0551 20.3895 0.698953 -0.26611 0.966553
21.4624 22.2157 21.974 -1.06197 -0.492972 1.90092
17.6958 20.4279 19.8738 0.335478 0.730961 0.00309053
21.0698 19.8501 22.9146 1.01311 1.86182 1.12374
ITEM: TIMESTEP
30000
ITEM: NUMBER OF ATOMS
13
ITEM: BOX BOUNDS ss ss ss
1.7685772542958105e+01 2.3081197592892575e+01
1.8056185653662869e+01 2.2658638957342621e+01
1.7844180910230861e+01 2.2946290451210963e+01
ITEM: ATOMS x y z vx vy vz
19.2808 22.9565 20.0477 -0.523318 -0.0151532 -0.661747
19.5353 18.4659 18.6799 1.39124 -0.166128 0.231203
18.8349 21.0414 22.4276 0.882422 0.43656 0.811646
23.0141 20.3641 21.0243 0.912727 0.00204396 2.0907
21.8203 19.3554 18.4962 1.1416 -0.387112 -0.92394
19.0059 18.4079 21.3285 -0.463112 -1.21446 2.43757
20.3986 20.3948 20.3879 0.139959 0.287899 1.28018
19.5209 21.2095 18.026 -0.824162 1.49694 0.334015
21.8698 22.3783 19.3746 -0.636862 2.22583 -1.63296
21.4547 17.8982 20.6911 -2.10579 -1.49701 -0.201225
21.1197 22.2731 21.916 -1.69021 -1.88714 -1.22573
17.9021 20.7888 20.0302 2.41381 0.71596 -0.248613
21.3778 19.6013 22.7048 -0.638298 0.00176625 -2.2911
ITEM: TIMESTEP
31000
ITEM: NUMBER OF ATOMS
13
ITEM: BOX BOUNDS ss ss ss
1.7685772542958105e+01 2.3081197592892575e+01
1.8056185653662869e+01 2.2658638957342621e+01
1.7844180910230861e+01 2.2946290451210963e+01
ITEM: ATOMS x y z vx vy vz
19.3222 22.7368 20.4449 -0.560956 -3.81528 0.161712
19.2926 18.5109 18.8328 0.324049 0.867731 2.08522
18.8091 21.115 22.377 1.1014 0.580739 1.19654
22.9885 20.4348 20.7437 0.386053 0.138302 1.92318
22.0216 19.7098 18.4123 1.12982 -2.29319 -1.16943
18.7121 18.4501 21.6346 -0.638615 -0.353856 -1.10721
20.3451 20.4072 20.4956 -1.05618 0.768817 0.196536
19.8934 21.1302 17.9377 -0.14254 -0.352216 0.148565
21.8691 22.211 19.1278 -0.156183 1.14539 0.480793
21.4533 18.1776 20.4438 0.308583 1.10175 -2.24063
21.4521 22.2835 22.0756 1.97872 0.382153 0.0698184
17.7602 20.2594 19.8751 -2.06204 0.473063 -1.36028
21.2158 19.7086 22.7342 -0.612128 1.3566 -0.384816
ITEM: TIMESTEP
32000
ITEM: NUMBER OF ATOMS
13
ITEM: BOX BOUNDS ss ss ss
1.7685772542958105e+01 2.3081197592892575e+01
1.8056185653662869e+01 2.2658638957342621e+01
1.7844180910230861e+01 2.2946290451210963e+01
ITEM: ATOMS x y z vx vy vz
19.2245 22.6329 20.185 0.348212 1.12076 -1.66185
19.5178 18.4495 18.8887 1.38053 0.0683722 0.626081
18.9491 21.1656 22.3657 -0.0863696 0.215982 1.31534
22.9369 20.3249 20.822 0.30793 0.498204 -1.08083
21.6846 19.6621 18.3277 2.05673 0.142328 1.848
19.0384 18.4756 21.3945 0.677022 -0.396417 -0.873493
20.421 20.4198 20.4789 -0.374616 -0.159948 -1.02349
19.599 21.1185 17.9305 -0.145814 -0.316823 0.159718
21.7165 22.2451 19.0863 -0.283698 0.498438 -1.32139
21.666 17.9707 20.806 -2.28507 -0.526516 -0.346688
21.2996 22.23 22.0555 -2.39713 -0.280904 -0.949158
17.7219 20.7787 19.9092 -0.924506 1.47752 1.52438
21.3599 19.6615 22.8848 1.72678 -2.341 1.78338
ITEM: TIMESTEP
33000
ITEM: NUMBER OF ATOMS
13
ITEM: BOX BOUNDS ss ss ss
1.7685772542958105e+01 2.3081197592892575e+01
1.8056185653662869e+01 2.2658638957342621e+01
1.7844180910230861e+01 2.2946290451210963e+01
ITEM: ATOMS x y z vx vy vz
19.498 22.8566 20.3048 -1.18505 0.226458 0.675357
19.4381 18.3691 19.0003 -1.96896 0.877524 -0.817597
18.8145 21.1458 22.3353 1.05495 0.910956 -0.045179
23.0194 20.7243 20.7127 1.5113 1.47362 1.81355
22.0315 19.6596 18.2583 -0.620329 1.43971 -0.211267