ITEM: TIMESTEP
0
ITEM: NUMBER OF ATOMS
13
ITEM: BOX BOUNDS ss ss ss
1.7704545815608824e+01 2.3085454184391175e+01
1.7759875428549226e+01 2.3030124571450774e+01
1.7749170524275993e+01 2.3040829475724006e+01
ITEM: ATOMS x y z vx vy vz
20.395 20.395 20.395 1.15026 -0.0264843 1.25803
23.0814 21.4305 20.58 0.450928 0.737621 -0.148728
20.6874 23.026 21.5419 1.11049 -1.63864 -0.567807
20.1026 17.764 19.2481 0.442719 1.56648 -2.40125
17.7086 19.3595 20.21 -2.37474 0.123519 0.381099
21.0845 22.5258 18.5764 -0.617873 0.353487 -1.58812
21.5465 20.5302 23.0368 1.01456 1.24368 0.373329
19.2435 20.2598 17.7532 1.72752 -0.385026 0.542372
19.7055 18.2642 22.2136 -1.46064 0.721948 1.11227
22.189 19.7209 18.2385 -0.139727 0.949055 0.133359
22.4746 18.4875 20.9952 -1.65524 -0.323995 0.571372
18.3154 22.3025 19.7948 -0.0146384 -1.86026 -0.331805
18.601 21.0691 22.5515 0.366392 -1.46139 0.665882
ITEM: TIMESTEP
1000
ITEM: NUMBER OF ATOMS
13
ITEM: BOX BOUNDS ss ss ss
1.7708039089415447e+01 2.2942989593044882e+01
1.7643682188572821e+01 2.3052460646360643e+01
1.7843881990924345e+01 2.2824720645847041e+01
ITEM: ATOMS x y z vx vy vz
20.4178 20.6486 20.1744 -0.905607 1.82507 0.231793
22.7944 21.185 20.2105 -3.65972 1.54923 -1.70164
20.4198 22.9114 21.9829 1.10245 -4.25799 -2.16143
19.7823 17.6287 19.6929 -0.00431572 0.211095 0.0445366
17.8609 19.3005 20.1674 4.65875 -0.0311093 0.814875
21.5181 23.1435 18.9343 -1.41176 4.83336 3.22505
21.512 20.6592 22.7508 1.48547 0.00990243 -2.46405
19.5512 19.2885 17.8959 -0.195559 -0.438982 1.73324
19.9088 18.7168 22.1206 -3.81476 5.08101 1.51931
21.8944 19.8499 18.2309 0.946926 -2.47937 3.88464
22.0254 18.5119 21.0235 -2.39446 -1.45104 -2.84708
18.7067 22.4222 20.0211 3.45289 -4.60628 1.84641
18.7431 20.8689 21.9298 0.739691 -0.244888 -4.12565
ITEM: TIMESTEP
2000
ITEM: NUMBER OF ATOMS
13
ITEM: BOX BOUNDS ss ss ss
1.8152645493203348e+01 2.3302278967012370e+01
1.7446206689790799e+01 2.3394022870650861e+01
1.7889789913411516e+01 2.2192979597522957e+01
ITEM: ATOMS x y z vx vy vz
21.0978 20.8917 19.6947 -0.358357 -1.30365 -5.23685
22.3285 23.4501 21.4164 1.23846 2.44366 0.452958
21.1772 20.981 22.1119 0.611821 -5.98955 -2.38251
19.6615 17.4099 20.5727 0.551898 -2.14008 -0.495242
18.2028 19.218 20.0099 1.66873 1.93507 0.536439
20.5157 23.435 20.5323 -1.54643 1.90924 -1.43228
23.2683 20.7767 20.9942 -1.01201 0.94678 -1.25198
19.3499 19.5658 17.8511 0.0542231 -0.0701474 -1.69182
19.3864 19.4166 22.1618 -1.84866 0.102859 -0.734024
20.8369 17.891 18.5385 2.18921 -0.710438 4.96645
21.8703 18.403 21.1684 -0.698059 -0.0895476 0.254012
18.9507 22.158 18.8103 2.76948 0.886733 6.87113
18.4888 21.5381 21.2726 -3.62031 2.07906 0.143715
ITEM: TIMESTEP
3000
ITEM: NUMBER OF ATOMS
13
ITEM: BOX BOUNDS ss ss ss
1.7582602924405627e+01 2.3630776509167816e+01
1.7587122122659114e+01 2.3384240863495101e+01
1.7396647631494897e+01 2.2573671054821702e+01
ITEM: ATOMS x y z vx vy vz
21.5504 20.2976 18.7036 0.28744 0.376195 -2.07289
22.5833 22.1599 19.8896 -1.60385 1.08271 -2.81363
20.6463 21.4253 21.5734 -2.16059 1.73641 1.10209
19.6507 17.3047 20.8497 1.56089 1.77976 -2.88265
19.0249 19.9538 20.3418 2.81356 -0.140366 3.67121
18.8981 23.3074 21.6973 0.410479 2.58838 2.50848
22.896 20.7011 21.7729 -1.78908 0.58159 2.20251
19.6608 20.0114 17.5355 -0.837798 -0.746769 0.698838
20.4124 19.0881 22.4904 -0.713493 -0.964624 0.251955
20.4512 18.0169 18.9329 -2.20316 -4.3978 0.0174764
22.0313 18.5062 21.044 1.27154 -2.37371 0.25453
19.6162 22.5465 19.2256 3.7335 3.00777 -1.00799
17.7134 21.8159 21.0783 -0.769421 -2.52953 -1.92994
ITEM: TIMESTEP
4000
ITEM: NUMBER OF ATOMS
13
ITEM: BOX BOUNDS ss ss ss
1.8236544540917627e+01 2.2394242676955386e+01
1.7449668297978789e+01 2.4270230782392659e+01
1.8336800734826376e+01 2.3228571346400880e+01
ITEM: ATOMS x y z vx vy vz
22.2685 19.5768 18.289 0.651545 -3.27125 -2.01571
21.4303 23.0718 21.0777 -1.45448 -3.85432 -1.62493
19.918 21.4163 22.2259 -2.06363 2.28186 -0.991078
20.6968 17.6164 21.4168 0.78684 2.72107 0.788642
18.8856 19.2287 20.5174 -0.82495 -1.84832 4.01806
19.2963 24.3393 20.4418 0.73382 0.835631 0.956556
21.9048 20.074 21.0653 1.40895 -1.25878 2.76038
18.5478 20.4122 18.4881 2.61396 -0.544384 0.979731
20.7309 19.2832 23.1753 -2.50618 -1.02431 -0.803228
20.0177 18.4122 18.5947 -2.72716 1.83917 -2.65136
22.5673 17.901 19.6817 2.48315 3.69985 -0.820242
20.5492 21.2098 19.5088 -0.0879671 0.949296 -1.627
18.3216 22.5933 20.6526 0.986109 -0.52551 1.03018
ITEM: TIMESTEP
5000
ITEM: NUMBER OF ATOMS
13
ITEM: BOX BOUNDS ss ss ss
1.7943040271940802e+01 2.2953095620669956e+01
1.8106664860397014e+01 2.3112949609816166e+01
1.7227988852733542e+01 2.3114529772767444e+01
ITEM: ATOMS x y z vx vy vz
20.6758 20.2819 17.3568 -3.30567 0.331527 3.5856
22.7107 21.9903 21.1286 -1.43952 0.698263 1.27839
19.8661 22.0827 22.1526 0.958222 3.74554 0.9934
21.0162 18.1035 21.1616 1.54915 -0.867676 0.228254
18.4463 19.1045 20.5224 -3.72638 -0.0971514 -1.60825
20.0855 23.0317 19.9312 -1.05149 -2.01069 -3.62584
22.3189 20.3164 22.7617 2.59395 0.384701 0.360706
18.7954 20.4935 17.702 1.63001 0.616846 -0.698541
19.6657 19.4154 22.9517 0.6961 0.707779 -5.13956
20.2 18.1977 18.869 -0.327083 2.24157 -1.82336
22.9499 19.7804 20.0492 -0.428374 -2.05984 1.76252
20.4376 20.4524 20.2234 1.92385 -1.04071 3.55178
17.9669 21.8846 20.3249 0.927241 -2.65015 1.1349
ITEM: TIMESTEP
6000
ITEM: NUMBER OF ATOMS
13
ITEM: BOX BOUNDS ss ss ss
1.8315211191492544e+01 2.2639131694467924e+01
1.7569234544840892e+01 2.3187492956071114e+01
1.7930326265604709e+01 2.2923763539830652e+01
ITEM: ATOMS x y z vx vy vz
21.4547 20.9114 18.0289 -3.49658 -0.273051 -2.9875
21.7675 22.9322 19.1646 -0.460272 -2.0752 0.637341
20.7194 21.7251 22.9057 0.108825 1.09314 1.5464
20.5816 17.6937 21.2315 -2.65628 1.47269 3.46461
18.6086 19.4762 20.1203 0.571782 1.22458 0.227792
19.4067 22.7007 19.0138 0.966729 -0.881705 0.517126
21.7784 19.3631 22.7331 -2.64709 0.597707 0.622415
19.1273 20.557 17.7483 3.58752 -0.904315 -0.419506
19.1782 19.5082 22.6984 1.57269 -5.83533 -2.93464
20.5932 18.6386 18.9895 0.577496 -0.0463674 -1.04937
22.7754 18.9701 20.3229 3.41197 0.849495 -1.07784
21.1253 20.9388 20.741 -1.35151 1.67513 -1.62791
18.0187 21.72 21.4369 -0.185281 3.10323 3.08109
ITEM: TIMESTEP
7000
ITEM: NUMBER OF ATOMS
13
ITEM: BOX BOUNDS ss ss ss
1.8710605739163416e+01 2.2380723281390953e+01
1.7924332612533110e+01 2.3173022331032030e+01
1.7250932479030688e+01 2.3453346339745359e+01
ITEM: ATOMS x y z vx vy vz
21.4176 21.0542 18.164 3.65706 -1.23934 -0.450133
21.3029 23.3015 19.2801 -2.06836 -1.796 3.05632
20.563 21.6109 23.4269 0.188657 -0.785671 -1.17925
20.5915 17.4241 21.1547 1.29519 1.93131 -4.20888
19.2499 19.6592 19.9345 -0.0994067 -3.87085 1.89923
19.0787 22.2273 19.0173 1.06025 0.123029 0.0671824
21.518 19.4558 22.9757 3.2514 1.29409 0.483453
19.4868 20.1513 17.3178 -1.25866 -0.797287 3.62147
19.3491 19.534 22.3737 -1.79259 0.632327 -1.9605
20.2638 18.0651 18.7216 -0.726544 1.60043 -0.298625
22.1862 19.0337 20.2854 -5.28478 0.658866 2.10094
21.3791 21.53 21.0917 -1.05 2.15601 -0.152937
18.7484 22.0879 21.3916 2.82779 0.0930874 -2.97827
ITEM: TIMESTEP
8000
ITEM: NUMBER OF ATOMS
13
ITEM: BOX BOUNDS ss ss ss
1.8552291531855786e+01 2.2106945725077026e+01
1.7411871376571245e+01 2.3088502397797456e+01
1.7087003917837254e+01 2.3076538519099110e+01
ITEM: ATOMS x y z vx vy vz
21.7001 20.4833 18.3714 3.23285 -1.60749 -0.69944
20.5204 23.1816 19.59 -0.906573 -0.301961 0.249324
20.6383 21.5774 22.9756 -1.42869 -3.53514 -0.897904
20.5745 17.628 21.1654 -1.85522 1.88021 0.283571
19.8018 20.2602 19.9896 3.70934 1.7195 1.7525
18.4109 22.1414 18.6162 -0.385413 -2.21513 -0.914405
21.1942 18.8137 23.1394 1.08477 2.09439 -1.52038
19.3316 20.4897 17.3535 -2.88839 1.37511 3.6198
19.0249 19.7008 22.3526 0.193665 -1.16404 -2.64397
20.3409 18.2358 18.8435 -1.46648 0.258008 1.79612
22.6012 19.0523 20.3871 1.07117 1.27883 -1.8123
22.2504 21.3319 20.9004 -0.142423 -1.67563 2.70171
18.7456 22.2388 21.4502 -0.218599 1.89333 -1.91462
ITEM: TIMESTEP
9000
ITEM: NUMBER OF ATOMS
13
ITEM: BOX BOUNDS ss ss ss
1.7666412385972727e+01 2.2357085373279105e+01
1.7932856383584070e+01 2.2849741247376343e+01
1.7740777143330199e+01 2.3343211745806993e+01
ITEM: ATOMS x y z vx vy vz
22.5185 20.0474 19.5264 0.418009 -1.56876 0.316997
19.6373 22.9767 19.1789 -0.531713 1.14133 0.973334
20.5596 21.6205 23.7021 -0.557918 3.96137 1.17787
19.7989 17.657 21.0347 -0.471173 -2.24727 -0.927874
19.7333 20.0409 19.716 0.742375 0.421325 -0.237712
17.7705 21.6201 19.4594 2.0644 0.222874 2.67925
21.5659 19.5912 21.7862 0.519195 0.987618 -2.93695
20.9235 21.3272 17.7604 1.34655 -1.62917 1.88554
19.2696 20.2725 22.5641 -0.100202 -0.990271 0.728651
20.7646 17.9463 18.2383 1.68046 1.68126 -0.340931
22.0702 17.4716 20.0987 -1.62693 -3.21017 -0.696298
21.5194 22.179 20.6475 -4.0429 1.93719 -1.52251
19.0037 22.3847 21.4223 0.55985 -0.70732 -1.09936
ITEM: TIMESTEP
10000
ITEM: NUMBER OF ATOMS
13
ITEM: BOX BOUNDS ss ss ss
1.7793343793718137e+01 2.2954944363729080e+01
1.7499956859541822e+01 2.2963145226609477e+01
1.8123833847268561e+01 2.3332285041752943e+01
ITEM: ATOMS x y z vx vy vz
22.8579 19.9226 19.2152 -1.08493 0.505704 1.62164
19.739 22.8478 18.5747 1.29006 -2.03509 1.95955
20.8863 21.2511 23.3402 2.95249 -0.571254 0.457206
19.909 17.4152 20.5255 1.25621 -1.84667 0.156604
19.1036 20.3368 19.9087 2.306 -3.51131 -0.235336
17.8412 22.2024 19.6653 -0.276043 2.24324 -0.339469
21.1978 19.6167 21.4317 0.436178 0.129898 2.81634
21.0396 20.8736 18.0961 -0.662647 0.516289 -1.44803
18.8494 20.0219 22.7944 -1.08156 -0.46954 0.554856
20.8509 18.4122 18.7071 -0.301759 0.190932 -2.76479
22.6151 17.7912 20.2976 -2.88775 1.54609 -0.266925
21.1583 21.9469 20.6455 -0.757795 1.7631 -0.436916
19.087 22.4967 21.933 -1.18846 1.53862 -2.07473
ITEM: TIMESTEP
11000
ITEM: NUMBER OF ATOMS
13
ITEM: BOX BOUNDS ss ss ss
1.7924088567386654e+01 2.2819430222014962e+01
1.7543736161476144e+01 2.3271537352869050e+01
1.8079526723236697e+01 2.3122879467645134e+01
ITEM: ATOMS x y z vx vy vz
22.6552 20.2731 19.258 -1.00218 0.798824 0.456041
19.7547 23.3977 19.4212 2.17535 0.849105 2.20047
20.9539 21.5362 23.0141 -0.44564 -3.58571 -0.269287
19.5115 17.6692 21.7457 -0.81748 1.46398 -0.794946
19.5372 20.0599 19.929 2.47316 -1.99133 1.0388
17.9613 21.7821 19.0338 0.594787 0.596092 -1.12089
21.571 19.315 21.7469 1.52731 3.15095 2.68284
20.8117 21.3934 18.0851 -2.16234 -0.291508 -0.199383
18.9162 19.6851 22.588 1.13464 0.349594 1.61145
20.908 18.342 18.3477 0.297788 0.523738 -0.134655
21.8137 17.6117 19.9183 -1.27992 -1.93198 -0.348504
21.5586 21.8098 20.5424 -1.42639 1.66698 -2.27624
19.1818 22.2598 21.5048 -1.06907 -1.59874 -2.8457
ITEM: TIMESTEP
12000
ITEM: NUMBER OF ATOMS
13
ITEM: BOX BOUNDS ss ss ss
1.8584541397067298e+01 2.2824121760142020e+01
1.7427541819366660e+01 2.3529165498906284e+01
1.7824971158363834e+01 2.3132626361540929e+01
ITEM: ATOMS x y z vx vy vz
22.1732 19.9244 19.2681 3.33086 -0.072838 -2.14664
19.6853 23.5682 19.1943 -1.97646 2.49674 -0.202601
20.7645 21.2203 23.3175 -0.438736 -1.36937 -2.48934
20.2502 18.0158 22.2995 0.374611 -2.1548 3.39431
19.6492 19.755 20.2456 -0.663724 1.05452 0.0931021
19.0289 21.3424 18.2777 1.89374 0.152764 -1.75521
22.2142 19.2828 21.8098 0.687906 1.13825 -2.40036
21.4538 21.9016 17.9416 1.04195 -2.1899 0.430227
18.8198 19.7568 23.0747 -2.0939 0.0397225 -0.765218
20.0515 19.1344 17.6998 -1.10368 -0.0451107 -0.69846
21.085 17.451 20.025 -0.63224 1.0328 1.67124
21.3332 22.0366 20.6291 -1.79612 -0.0160932 1.37912
18.6261 21.7457 21.3523 1.37579 -0.0666811 3.48982
ITEM: TIMESTEP
13000
ITEM: NUMBER OF ATOMS
13
ITEM: BOX BOUNDS ss ss ss
1.8515848102602323e+01 2.2582409325197791e+01
1.8065360775218174e+01 2.3546838434659328e+01
1.7755069011422645e+01 2.3171190539008656e+01
ITEM: ATOMS x y z vx vy vz
22.7275 20.3342 18.7044 0.0398981 1.03733 -0.931737
19.9424 23.2904 19.4402 -0.752032 1.22983 -0.874797
21.2165 20.8397 23.5723 0.387456 -0.0869383 2.7719
20.2373 18.0471 22.5498 1.67011 2.94189 -2.9984
18.7128 19.1459 20.2186 -2.47943 2.80982 -2.22125
18.6983 21.3253 18.6466 -1.09498 0.139611 2.13039
22.4387 19.2792 22.1752 2.04093 -0.0485257 1.70417
21.1039 21.9826 17.7863 1.73717 -1.9579 -0.146095
18.8887 20.2452 22.582 0.31247 -1.27731 0.816794
20.3045 19.4041 17.9612 1.00502 0.679948 0.327281
21.4648 18.1819 20.0335 -0.343301 -3.2264 1.4678
20.8519 20.7529 20.5521 -0.312153 -2.35181 -1.93673
18.5478 22.3064 20.9129 -2.21117 0.110448 -0.109328
ITEM: TIMESTEP
14000
ITEM: NUMBER OF ATOMS
13
ITEM: BOX BOUNDS ss ss ss
1.8017958758599690e+01 2.3000855015676169e+01
1.7992765710980532e+01 2.3304307207176556e+01
1.8326617075653100e+01 2.3358019788613767e+01
ITEM: ATOMS x y z vx vy vz
22.7374 19.7995 19.0878 -0.250285 0.904657 1.19782
19.9199 23.3664 19.8889 -0.521406 -0.648528 -0.360715
21.1796 21.0257 23.0692 -0.218856 0.505013 2.03394
20.3231 18.5293 22.5565 1.22171 0.179025 1.74361
18.9479 19.3306 19.9228 -1.21029 2.39303 0.370434
18.6696 21.4049 18.3966 1.31012 0.430905 0.834801
22.7049 19.2422 21.516 -4.67392 -0.118288 -2.89945
21.3035 21.8223 18.3202 0.485159 1.08336 1.015
18.8682 20.5382 22.9361 -0.305041 0.980511 0.513144
20.4599 19.5844 17.9087 -0.425037 -3.69263 1.73967
21.093 17.8525 19.8638 1.65206 1.0169 -3.37296
20.8655 20.969 20.9001 1.99817 -0.730435 -1.82665
18.0626 21.6699 20.7684 0.937612 -2.30352 -0.988659
ITEM: TIMESTEP
15000
ITEM: NUMBER OF ATOMS
13
ITEM: BOX BOUNDS ss ss ss
1.7917846656782029e+01 2.3293801499918931e+01
1.8209783055824214e+01 2.3287218482597218e+01
1.7914910544522908e+01 2.3064378920076429e+01
ITEM: ATOMS x y z vx vy vz
22.8941 20.1819 19.1361 -0.340103 -1.19336 -1.97778
19.7648 23.3166 19.1917 -2.20602 4.06443 -0.581165
21.1867 19.3853 22.8876 0.92424 -1.26885 -0.873909
19.2461 17.9748 22.3213 1.36964 0.491367 -0.621758
18.6228 19.5637 20.4168 -0.978872 -1.54028 3.57378
18.9501 21.231 18.4696 -0.17702 0.365673 -0.568446
22.9218 20.2407 21.3247 -2.65165 0.929564 2.74914
21.3213 21.99 17.9732 1.20555 -1.60231 -0.288829
19.2112 20.6694 22.9405 0.0700988 -0.183328 1.33096
20.5396 19.1029 18.3672 2.43155 0.322073 1.11156
21.3991 18.2293 20.5757 -1.69053 0.238068 -2.32727
20.7286 21.2309 20.543 0.859307 -0.913837 1.15414
18.349 22.0184 20.9876 1.18381 0.290777 -2.68044
ITEM: TIMESTEP
16000
ITEM: NUMBER OF ATOMS
13
ITEM: BOX BOUNDS ss ss ss
1.7917846656782029e+01 2.3293801499918931e+01
1.8209783055824214e+01 2.3287218482597218e+01
1.7914910544522908e+01 2.3064378920076429e+01
ITEM: ATOMS x y z vx vy vz
22.6959 20.0721 18.8838 -0.156496 -2.17597 1.59633
19.9157 23.4347 19.4714 -1.7762 -0.835831 -0.088309
21.5169 19.086 23.0586 0.721558 1.50128 -2.37806
19.2805 18.3178 22.1427 0.59747 2.40258 -1.77799
18.7233 19.4578 20.232 0.0847605 0.768299 0.617564
18.842 21.2537 18.4033 -1.05326 1.35618 1.48374
22.7785 20.438 21.7657 -0.420269 0.16883 1.10366
21.1543 22.0239 17.9881 0.08505 -1.56506 -0.0716582
19.4751 20.7231 22.7998 -1.08006 -2.31703 0.521616
20.5943 19.0493 18.4689 2.73359 -1.45832 -0.457626
21.4189 18.0398 20.7319 -1.69282 1.24484 -1.03437
20.7713 21.0942 20.559 1.5088 0.807759 -0.497718
17.9682 22.1447 20.6297 0.447876 0.102436 0.982823
ITEM: TIMESTEP
17000
ITEM: NUMBER OF ATOMS
13
ITEM: BOX BOUNDS ss ss ss
1.7917846656782029e+01 2.3293801499918931e+01
1.8209783055824214e+01 2.3287218482597218e+01
1.7914910544522908e+01 2.3064378920076429e+01
ITEM: ATOMS x y z vx vy vz
22.8598 19.9056 18.9438 0.964388 -1.98125 1.85902
19.9705 23.202 19.6924 1.43342 -1.13694 -0.403213
21.401 20.0977 22.8077 1.28312 2.82354 1.74888
19.4897 18.1942 21.9062 -1.35118 0.419157 -2.63269
18.2627 19.74 20.1162 0.341173 0.304184 1.2101
18.7745 21.3592 18.437 0.152468 0.053359 0.295594
23.3447 20.032 21.4697 1.71136 0.150911 -0.760758
21.411 21.5436 17.9915 0.510825 -0.879424 -0.425268
18.7431 20.4371 22.6235 0.0544463 -1.10415 0.148803
20.4641 19.0916 18.699 -0.952975 1.35595 2.23677
21.6888 18.4587 20.7274 -0.469332 1.41728 -4.21657
20.6141 20.9216 20.5675 -2.20309 0.222832 1.39019
18.111 22.1518 21.1532 -1.47462 -1.64544 -0.450856
ITEM: TIMESTEP
18000
ITEM: NUMBER OF ATOMS
13
ITEM: BOX BOUNDS ss ss ss
1.7747858484804709e+01 2.3027839339745508e+01
1.8312380241026617e+01 2.3240757683740387e+01
1.8062257378506128e+01 2.2985266290606997e+01
ITEM: ATOMS x y z vx vy vz
22.8249 20.5984 19.3633 -0.980533 0.117492 -0.20991
20.3829 22.6633 19.3144 -0.0484443 -2.39678 1.99349
21.266 19.5648 23.2093 1.96463 -0.267195 1.73383
19.718 18.366 21.6921 -1.46359 0.0947404 1.78032
17.9567 19.6853 20.4084 0.554235 -1.56205 -1.64977
18.3666 21.1662 18.5066 -0.50595 2.04995 0.751225
23.2719 19.9543 21.7454 2.06261 -1.32922 2.17511
21.1069 21.4501 17.4607 0.555993 -0.342382 -3.23916
18.6569 20.6812 22.6953 -0.712288 -0.93896 -1.38648
20.403 19.3738 18.6074 -1.41555 -0.3271 1.05152
21.9597 18.5336 20.3944 0.37526 2.13909 -1.89031
20.7057 20.8361 20.9016 0.142937 1.89759 -0.102931
18.5159 22.2621 20.8362 -0.529313 0.864824 -1.00693
ITEM: TIMESTEP
19000
ITEM: NUMBER OF ATOMS
13
ITEM: BOX BOUNDS ss ss ss
1.7307966923539777e+01 2.3260053628520048e+01
1.7842796731705370e+01 2.2396867745646823e+01
1.7343839006572392e+01 2.2988686916314006e+01
ITEM: ATOMS x y z vx vy vz
22.4137 20.9322 19.4073 -3.19428 -0.332855 2.56905
20.6243 22.718 19.0797 -1.82743 2.4698 -1.12798
21.1661 19.3315 22.6739 1.14001 -0.463538 -0.812684
19.6571 17.7856 21.4621 -0.103502 0.148203 0.77027
17.6669 19.8669 19.9269 1.77804 -1.95403 -0.977968
18.4697 21.6464 18.229 1.44029 3.18832 -1.92164
23.6029 20.0653 21.6421 1.90009 -2.41425 0.195058
20.7115 20.6491 17.5109 -1.56541 -1.7862 1.49856
18.6846 20.145 22.3336 -1.98431 -1.55381 1.13764
20.1541 19.8067 19.8998 0.898767 1.25392 1.40274
22.2438 18.2693 20.5966 0.849833 -2.23446 -0.534456
21.2113 21.6875 21.6255 1.06914 3.75511 -1.49093
18.529 22.2316 20.7477 -0.401246 -0.0762071 -0.707659
ITEM: TIMESTEP
20000
ITEM: NUMBER OF ATOMS
13
ITEM: BOX BOUNDS ss ss ss
1.7307966923539777e+01 2.3260053628520048e+01
1.7842796731705370e+01 2.2396867745646823e+01
1.7343839006572392e+01 2.2988686916314006e+01
ITEM: ATOMS x y z vx vy vz
22.7626 20.8555 19.4491 -0.149112 -1.91611 -0.618353
20.6999 22.9738 19.1299 -1.30126 -0.0430496 1.00371
21.2447 19.3018 22.5672 0.837865 1.14642 -0.588113
19.5078 18.0051 21.3825 1.11548 2.14822 0.698725
17.6226 19.4876 20.3194 1.47562 1.53878 -1.1059
18.5496 21.2256 18.6368 -1.19625 -1.36703 -0.25749
23.2929 20.1099 21.6919 0.693535 -2.00312 1.69052
20.8805 21.0248 17.5862 0.839396 -0.0595525 2.74002
18.666 20.46 22.1063 -0.945856 1.476 -0.395466
20.511 19.616 19.6706 0.70381 1.92782 -0.830876
22.1779 17.9428 20.6048 -1.08305 0.706322 -1.11888
20.8582 21.6679 21.3054 0.400648 -0.973448 -2.2886
18.3615 22.4643 20.685 -1.39083 -2.58125 1.07071
ITEM: TIMESTEP
21000
ITEM: NUMBER OF ATOMS
13
ITEM: BOX BOUNDS ss ss ss
1.7307966923539777e+01 2.3260053628520048e+01
1.7842796731705370e+01 2.2396867745646823e+01
1.7343839006572392e+01 2.2988686916314006e+01
ITEM: ATOMS x y z vx vy vz
22.7593 20.7964 19.1332 1.34032 1.47297 -0.879472
20.7456 22.4912 18.8923 0.0315706 -1.34985 -0.265128
21.0334 19.5603 22.7469 0.44434 0.709394 -2.31206
19.55 18.0301 21.266 -1.82083 -1.53317 0.799308
17.586 19.6725 20.0349 -1.71291 -0.0527503 -1.61089
18.4802 21.5063 18.6537 -1.59585 -0.608776 2.00114
23.3491 20.0802 21.7893 0.64088 -3.30898 -0.209098
20.8818 20.6754 17.369 -0.137033 -0.158004 0.258309
18.5009 20.0259 22.3309 1.53798 0.0174947 -1.47268
20.2384 20.0163 19.8022 2.12883 0.079377 0.879362
22.2364 18.4472 20.6025 -0.159684 1.47317 1.63354
21.2623 21.7453 21.4471 1.05014 3.05789 1.71514
18.5117 22.088 21.0669 -1.74776 0.201219 -0.537474
ITEM: TIMESTEP
22000
ITEM: NUMBER OF ATOMS
13
ITEM: BOX BOUNDS ss ss ss
1.7307966923539777e+01 2.3260053628520048e+01
1.7842796731705370e+01 2.2396867745646823e+01
1.7343839006572392e+01 2.2988686916314006e+01
ITEM: ATOMS x y z vx vy vz
22.4088 20.6448 19.3337 -0.644684 0.820856 -1.58249
20.611 22.6229 18.9914 3.02243 -1.09893 0.629315
21.422 19.4235 23.1609 1.48292 1.65703 1.98436
19.5887 18.1725 21.5335 1.08384 -1.31856 1.26317
17.9008 19.9534 20.4209 0.570595 -0.194702 -1.53195
18.6284 21.4451 18.203 -0.700933 0.127162 -0.154096
23.2719 20.3914 21.8959 -2.12295 -1.7676 -1.48139
20.9511 21.3734 17.1853 -0.541489 1.01552 0.154841
18.7782 20.1792 22.8204 -0.281223 -1.26059 -1.56359
19.9949 19.2855 18.7715 0.1517 -1.33137 -0.427537
22.1011 18.5697 20.6888 -0.621295 0.896615 1.70971
20.6897 20.7302 21.1914 -0.852304 0.426349 -1.10563
18.7884 22.3434 20.9382 -0.546606 2.02822 2.10529
ITEM: TIMESTEP
23000
ITEM: NUMBER OF ATOMS
13
ITEM: BOX BOUNDS ss ss ss
1.7905290849782912e+01 2.3252029248270599e+01
1.8153395753862000e+01 2.2616080395275048e+01
1.7180913306256908e+01 2.3190834316289987e+01
ITEM: ATOMS x y z vx vy vz
22.5957 20.4836 19.0586 -0.446645 -1.31988 -1.34802
21.258 22.644 19.0677 -0.548374 1.36222 2.08386
21.1725 19.2304 23.0294 0.0265628 -0.941367 1.1399
19.5175 18.1413 21.5629 0.275815 -0.0681902 0.818557
17.9314 19.8959 20.3679 -0.336134 1.32806 0.4489
19.0525 21.76 18.6806 -0.670642 -1.09653 0.4414
23.122 20.9611 21.472 0.83594 0.0543207 -1.38813
21.0331 20.9735 17.055 -0.757175 0.983682 -0.923703
18.7509 20.116 22.977 -2.09544 1.01737 -1.67358
19.968 19.2822 18.8102 3.83257 -2.70568 -0.975544
22.1979 18.5836 20.7452 0.401329 -1.54084 -0.295432
20.4194 20.9629 20.8602 -0.00529767 2.37401 1.15795
18.116 22.1006 21.4482 -0.512512 0.552826 0.513833
ITEM: TIMESTEP
24000
ITEM: NUMBER OF ATOMS
13
ITEM: BOX BOUNDS ss ss ss
1.7655658420725597e+01 2.2777610068401916e+01
1.8159957122516879e+01 2.2537011937888334e+01
1.7004033302013671e+01 2.3153290744186780e+01
ITEM: ATOMS x y z vx vy vz
22.7738 20.2583 18.7379 -0.549742 -1.24055 1.58804
21.6564 22.4191 19.2226 -1.04533 -2.19593 -0.153114
21.2911 19.5098 23.1508 -0.608611 -0.953297 -1.0082
19.5 18.4292 21.6334 2.38379 0.999859 0.251817
17.8286 19.8479 19.9306 -1.87729 0.626737 -2.87456
19.1156 22.0101 18.7294 -3.36364 -0.137863 -0.632874
23.0488 20.7807 21.1466 0.0116468 -1.02786 -0.540573
20.8815 21.1859 17.16 0.469983 1.24211 1.62589
18.7317 20.1002 23.205 -0.526841 -0.604974 0.672571
20.1471 19.4587 18.9804 0.709179 -1.53679 0.242144
22.0312 18.5131 20.7485 2.06368 1.6108 -0.295881
20.4136 21.0228 21.1122 1.97251 0.996122 1.13658
17.7156 21.5993 21.3775 0.360662 2.22163 -0.011837
ITEM: TIMESTEP
25000
ITEM: NUMBER OF ATOMS
13
ITEM: BOX BOUNDS ss ss ss
1.7655658420725597e+01 2.2777610068401916e+01
1.8159957122516879e+01 2.2537011937888334e+01
1.7004033302013671e+01 2.3153290744186780e+01
ITEM: ATOMS x y z vx vy vz
22.6894 20.1015 18.9698 0.0340225 -0.0211061 -0.25114
21.6427 22.3694 19.2906 0.0318575 0.777075 -0.609153
21.5717 19.5483 23.0108 -0.906427 -0.566431 -0.706713
19.5009 18.3624 21.3895 1.54658 -0.19732 1.81606
17.6088 19.9334 20.2166 -2.29096 -0.709302 2.68925
18.83 21.759 18.8785 0.620096 2.54377 -2.11729
23.105 20.8286 21.3963 1.04809 -0.0773598 1.23339
20.7944 21.405 17.2273 0.876372 -0.66825 0.860743
18.5372 20.1728 22.7068 0.613548 -0.73623 -1.61436
20.2849 19.2898 18.8558 -0.561898 -0.3355 -0.542058
22.2328 18.5384 20.8182 -0.228272 -0.0968258 -0.424355
20.5625 20.746 21.0589 -0.0666797 0.591966 -0.201878
17.7746 22.0804 21.316 -0.716324 -0.504491 -0.132494
ITEM: TIMESTEP
26000
ITEM: NUMBER OF ATOMS
13
ITEM: BOX BOUNDS ss ss ss
1.7655658420725597e+01 2.2777610068401916e+01
1.8159957122516879e+01 2.2537011937888334e+01
1.7004033302013671e+01 2.3153290744186780e+01
ITEM: ATOMS x y z vx vy vz
22.715 20.1952 18.7459 0.808542 1.36576 -1.99657
21.9444 22.5137 19.2481 0.64275 -0.634752 -0.533732
21.2713 19.6053 22.9397 1.66986 -1.85673 -1.67654
19.6621 17.9427 21.4286 0.647965 -2.23072 1.32149
17.9405 19.8931 20.3729 -0.833505 1.51018 0.867899
19.2464 21.8296 19.0233 1.03939 0.173801 1.74062
22.7975 20.8987 21.1421 -1.28985 1.10314 2.20233
20.8812 21.1554 17.1837 0.295022 -0.00690128 -0.350341
18.6053 19.8105 22.7598 -0.910823 0.925241 0.0643657
20.1467 19.2941 19.1216 0.603003 -0.421292 0.969107
22.0485 18.5358 20.7442 -0.922739 -0.19669 0.52166
20.2559 21.3779 21.1756 -1.60548 0.466147 -2.79911
17.6202 22.0832 21.2496 -0.144131 -0.197181 -0.331177
ITEM: TIMESTEP
27000
ITEM: NUMBER OF ATOMS
13
ITEM: BOX BOUNDS ss ss ss
1.7655658420725597e+01 2.2777610068401916e+01
1.8159957122516879e+01 2.2537011937888334e+01
1.7004033302013671e+01 2.3153290744186780e+01
ITEM: ATOMS x y z vx vy vz
22.8721 19.9324 18.5901 -1.98508 -1.12627 1.20076
21.6077 22.4258 19.2072 1.07652 -0.883077 1.48102
21.0877 19.4448 22.7638 1.15458 0.300927 -1.14123
19.5941 17.8695 21.4873 0.895788 -0.0944819 -0.902735
18.1729 19.7006 20.197 -1.19282 -0.52791 -2.4962
19.0319 22.0694 19.1121 -0.735328 -0.558692 0.817978
22.8186 20.7213 21.0334 0.899284 0.506269 1.92345
20.8124 21.1149 17.3892 -1.09291 -1.46879 -2.23294
18.6825 20.1757 22.6764 1.42178 0.1354 -1.17437
20.4703 19.7069 19.2745 -0.15755 1.81781 1.08776
22.1199 18.4217 20.7634 0.412947 -0.503999 -0.136785
20.3133 21.6594 21.4358 0.159287 2.01825 1.39522
17.5516 21.8926 21.2048 -0.856507 0.38457 0.178073
ITEM: TIMESTEP
28000
ITEM: NUMBER OF ATOMS
13
ITEM: BOX BOUNDS ss ss ss
1.7546613000476409e+01 2.2848071655823794e+01
1.8021440911146151e+01 2.2195101311856980e+01
1.7112451350655277e+01 2.2685034340330620e+01
ITEM: ATOMS x y z vx vy vz
22.8065 19.8732 18.5843 -0.95407 0.131762 1.23399
21.9217 22.309 19.3382 0.225521 1.30081 -0.729043
21.0746 19.5257 22.5494 -0.353617 1.54163 -1.80858
19.6863 17.8468 21.2191 -0.515599 0.469386 0.0695682
17.8762 19.5774 20.3565 1.53207 -1.46919 1.34958
18.9768 22.2455 18.9826 0.0262885 0.602989 0.624856
22.7877 20.8495 21.1952 -0.462663 -1.05048 -0.780034
20.7327 20.9861 17.5729 2.83917 0.490548 -0.539187
18.7463 20.1961 22.6204 0.104771 -0.412387 1.39772
20.3462 19.6254 19.5863 -1.1746 -1.32975 -0.349124
22.4373 18.2766 20.6786 0.135891 -1.51343 -0.581699
20.284 21.8451 21.3926 0.272173 1.28034 0.622364
17.4587 21.9785 21.0588 -1.67534 -0.0422226 -0.510417
ITEM: TIMESTEP
29000
ITEM: NUMBER OF ATOMS
13
ITEM: BOX BOUNDS ss ss ss
1.7546613000476409e+01 2.2848071655823794e+01
1.8021440911146151e+01 2.2195101311856980e+01
1.7112451350655277e+01 2.2685034340330620e+01
ITEM: ATOMS x y z vx vy vz
22.8918 20.039 18.525 1.07826 0.112169 -0.614875
21.6858 22.2492 19.2891 -0.410754 0.705639 -0.183694
21.1311 19.6266 22.71 0.673585 1.14755 -0.637281
19.5331 17.7686 21.2801 -0.717172 0.220914 0.438979
17.8437 19.8847 20.0044 0.326812 0.676405 -0.443479
19.0842 22.0046 18.9626 1.77852 0.0865614 0.967813
22.5837 20.8966 21.1023 -0.708682 -0.989598 -2.70117
20.7888 20.6955 17.4291 0.931539 -0.294526 1.2902
18.5368 19.7897 22.4661 -1.27864 0.92343 -0.441681
20.482 19.6649 19.8981 -0.477985 -0.0625371 0.219849
22.4527 18.3735 20.5763 1.19973 -2.13729 0.116938
20.3104 22.0269 21.5604 -0.190938 1.93088 0.464816
17.8111 22.1152 21.3314 -2.20427 -2.31959 1.52358
ITEM: TIMESTEP
30000
ITEM: NUMBER OF ATOMS
13
ITEM: BOX BOUNDS ss ss ss
1.7546613000476409e+01 2.2848071655823794e+01
1.8021440911146151e+01 2.2195101311856980e+01
1.7112451350655277e+01 2.2685034340330620e+01
ITEM: ATOMS x y z vx vy vz
23.1607 20.0235 18.7018 0.0300213 -1.11179 -0.328448
21.5315 22.2565 19.3365 0.0886331 -0.695101 0.239592
21.1965 19.5821 22.5066 0.0367009 0.184408 -1.33584
19.4479 18.0886 21.3168 1.06323 1.0561 -0.985907
18.104 19.8172 20.2252 0.0524955 2.3632 0.193281
18.8614 21.9713 19.0406 -0.746508 0.676361 -0.301479
22.8068 20.9255 20.9075 -0.014666 -0.242376 2.40832
20.8564 20.9211 17.2981 -0.277753 -0.781317 1.41129
18.6211 19.9625 22.7842 0.391356 1.40309 -0.965927
20.5082 19.6555 19.541 -0.905742 -0.538454 0.193444
22.2899 18.0657 20.6011 1.41975 0.263428 -0.303862
20.1437 21.8222 21.5495 -0.682074 -0.489673 -1.55073
17.6068 22.0434 21.3261 -0.455442 -2.08788 1.32627
ITEM: TIMESTEP
31000
ITEM: NUMBER OF ATOMS
13
ITEM: BOX BOUNDS ss ss ss
1.7546613000476409e+01 2.2848071655823794e+01
1.8021440911146151e+01 2.2195101311856980e+01
1.7112451350655277e+01 2.2685034340330620e+01
ITEM: ATOMS x y z vx vy vz
22.876 20.0185 18.6978 0.410634 -0.185705 -0.704843
21.8315 22.3529 19.3676 -1.3207 0.971678 -1.92322
21.4098 19.5764 22.6276 -0.557122 -1.48133 -1.21372
19.4116 17.8164 21.241 0.576008 -0.226061 0.0545358
17.7717 19.5974 20.2688 1.80236 -0.38648 0.521234
19.0468 21.8774 19.0083 1.4841 0.474589 0.720534
22.7799 20.9212 21.1666 -0.547861 0.0956396 0.677579
20.6942 20.846 17.4927 0.669356 -0.631143 -0.22083
18.8057 20.0971 22.4155 -0.744918 0.0519448 -0.0942461
20.3564 19.8177 19.8795 0.663051 -0.0152063 -0.889132
22.2949 18.2498 20.3369 -1.85573 1.43607 1.90976
20.2158 21.8828 21.4472 -0.220029 -1.20648 -0.398929
17.6406 22.0814 21.1853 -0.359153 1.10248 1.56128
ITEM: TIMESTEP
32000
ITEM: NUMBER OF ATOMS
13
ITEM: BOX BOUNDS ss ss ss
1.7801128487204473e+01 2.2928964511953623e+01
1.8205806424565061e+01 2.2540411645259898e+01
1.7234999717952071e+01 2.3075666626960395e+01
ITEM: ATOMS x y z vx vy vz
22.7356 20.4178 18.7919 0.154767 0.474351 0.97768
21.5714 22.5378 19.3904 0.462209 -0.181617 -0.122694
21.3741 19.427 23.0752 0.314963 0.182277 -0.110187
19.6386 18.17 21.6602 -1.16616 -0.746381 0.761148
17.9669 19.7332 20.2519 0.705089 1.61094 -0.313949
19.0582 21.7657 18.7985 -0.166021 -0.639259 -2.01721
22.9726 20.7886 21.2645 0.80253 0.0680353 -0.0789667
20.9342 21.3305 17.1758 0.242016 1.70726 -1.39217
18.7061 20.3174 22.9433 -0.916088 -1.56812 2.14861
20.1501 19.3868 18.7986 -0.529721 -3.27568 -0.419704
21.8125 18.4131 20.6749 -0.304917 3.38677 0.12561
20.3714 20.8642 21.1102 -0.605817 -1.92736 -0.770489
17.8431 21.9829 21.1994 1.00715 0.908783 1.21231
ITEM: TIMESTEP
33000
ITEM: NUMBER OF ATOMS
13
ITEM: BOX BOUNDS ss ss ss
1.7801128487204473e+01 2.2928964511953623e+01
1.8205806424565061e+01 2.2540411645259898e+01
1.7234999717952071e+01 2.3075666626960395e+01
ITEM: ATOMS x y z vx vy vz
22.687 20.2744 18.7437 0.428207 -0.254213 -1.05219
21.7493 22.5407 19.3215 -0.973379 -0.870126 0.0999954
21.258 19.6832 22.9508 -0.619142 -0.224131 -0.160434
19.4565 18.1201 21.6698 -1.83505 -0.873427 0.019461
18.1436 19.7976 20.1665 -0.700541 -0.73507 2.02953