ITEM: TIMESTEP
0
ITEM: NUMBER OF ATOMS
13
ITEM: BOX BOUNDS ss ss ss
1.7770402766042498e+01 2.2584804753771756e+01
1.7625600778082912e+01 2.3143451178189071e+01
1.7773717565421265e+01 2.3016282575284990e+01
ITEM: ATOMS x y z vx vy vz
20.6661 19.224 23.0122 1.19085 -0.302068 1.00017
20.395 20.395 20.395 0.801569 -0.340271 -0.1949
20.1239 21.566 17.7778 1.86723 -1.29905 -0.420449
18.0456 19.7756 21.9459 -0.526177 1.14932 -2.15045
17.7745 20.9466 19.3287 -2.61123 1.03625 0.524982
19.8271 21.9684 22.7424 0.139321 -0.280861 -1.2913
19.5559 23.1394 20.1252 0.791658 0.699262 0.649351
22.5807 21.1777 22.1033 1.44634 0.0202708 0.554931
22.3096 22.3486 19.4861 -2.26951 1.19683 1.23462
22.5011 18.4962 20.9119 -0.255153 0.257624 -0.160634
22.23 19.6672 18.2947 -2.19623 -0.682529 0.390582
19.6983 17.6297 20.8145 0.921918 -1.01482 -0.597634
19.4272 18.8006 18.1973 0.699404 -0.439963 0.460731
ITEM: TIMESTEP
1000
ITEM: NUMBER OF ATOMS
13
ITEM: BOX BOUNDS ss ss ss
1.7505187020532397e+01 2.2482040505037379e+01
1.7574306254361119e+01 2.2812685582434064e+01
1.7819895458470750e+01 2.3053290672922884e+01
ITEM: ATOMS x y z vx vy vz
20.5876 19.6935 23.2238 -1.39615 -0.498355 -1.85182
20.3381 19.7916 20.2348 -0.355257 -4.20223 0.861307
20.0479 21.2051 18.0808 -0.615564 2.21657 -1.45844
18.2691 20.2603 21.3186 -1.7225 2.65025 2.47466
17.785 21.3652 19.3388 2.94375 -0.415116 0.425444
19.9183 22.073 22.3846 0.838975 -2.6607 -0.228019
19.6793 22.9581 20.4676 -2.36643 -0.28287 0.0426981
22.4596 21.0544 22.459 -1.40876 1.72527 2.47399
22.1308 21.8692 19.6313 4.36704 0.383861 -2.49939
22.4773 18.9262 21.4601 -2.01911 -0.505082 1.54709
22.1593 19.4195 18.2624 0.769398 0.253422 -4.86057
20.6646 17.6265 19.7299 -0.0957833 3.89727 -0.668023
18.618 18.8924 18.5432 1.06039 -2.56228 3.74109
ITEM: TIMESTEP
2000
ITEM: NUMBER OF ATOMS
13
ITEM: BOX BOUNDS ss ss ss
1.7787443560023487e+01 2.2527328830380586e+01
1.7094956489553006e+01 2.3399131097751980e+01
1.7951290989985175e+01 2.2976939640862543e+01
ITEM: ATOMS x y z vx vy vz
20.0398 19.1635 23.2025 1.13024 1.2471 2.7135
20.7601 21.0733 20.459 1.71958 1.60754 -5.29115
20.3996 22.0432 17.8337 -0.871546 1.50997 0.337272
18.0034 20.4329 21.5988 -0.788954 1.07309 -1.29112
18.6142 20.5547 18.5733 0.607039 2.35575 -2.57252
19.6739 22.0568 22.8035 1.59299 1.87164 0.347248
19.5597 23.0075 19.9656 -2.82997 -4.81633 0.337558
21.7958 20.4272 22.8173 0.354623 -3.14948 4.79525
22.5495 21.3857 19.0051 -0.565568 -1.11537 2.4126
22.4717 19.129 20.489 1.59916 2.38309 -0.227256
20.6766 19.572 18.2059 -0.727057 -1.18926 -1.83614
21.2621 17.4632 19.5221 -2.37253 0.555652 -0.311226
19.3286 18.826 20.659 1.152 -2.33338 0.585983
ITEM: TIMESTEP
3000
ITEM: NUMBER OF ATOMS
13
ITEM: BOX BOUNDS ss ss ss
1.8124932864048453e+01 2.2756138766791263e+01
1.7144204633693789e+01 2.3379844756873563e+01
1.7673219577657019e+01 2.3142853010421867e+01
ITEM: ATOMS x y z vx vy vz
19.4556 19.6213 23.0731 0.517839 1.90897 -0.680941
20.9567 21.545 20.6816 2.16885 -3.2619 -1.46662
20.2922 21.9501 17.6257 1.40382 2.00861 2.55876
17.9233 20.6144 21.6019 -0.366812 -0.944759 -0.576415
18.9404 20.7502 19.2021 1.77962 -2.68693 -1.49254
19.5397 22.3072 22.7221 0.624278 -1.34844 0.274835
19.3036 22.8604 20.2491 -1.84179 0.0783703 0.568006
21.8861 19.5709 22.7161 0.137729 0.0196649 0.842461
22.5046 21.2837 18.4686 -1.03676 2.95931 -3.43709
22.3151 19.6333 20.5316 -0.0659428 -1.58822 1.22
21.0047 19.3575 18.1739 -1.01638 2.0503 -1.61387
21.3344 17.0856 19.4275 1.18837 -2.01168 2.916
19.6785 18.5553 20.6617 -3.49282 2.81672 0.887427
ITEM: TIMESTEP
4000
ITEM: NUMBER OF ATOMS
13
ITEM: BOX BOUNDS ss ss ss
1.7604637165889784e+01 2.2425823092125817e+01
1.7535807509571725e+01 2.3087195683861612e+01
1.7642283159514985e+01 2.2970412543353238e+01
ITEM: ATOMS x y z vx vy vz
18.6368 19.1891 22.368 0.0628921 0.178242 -0.940937
22.2179 22.678 20.9879 0.0863462 -0.892391 2.70084
21.1878 22.8273 18.6674 2.14444 -1.36735 -2.75123
17.7547 21.2314 21.3051 -1.45724 1.59829 1.20814
19.6883 20.1654 19.784 -2.62077 1.70132 0.731416
20.2189 21.8331 22.3204 -1.76656 -1.04271 2.5656
19.4387 23.0486 20.2399 4.11277 0.841235 -2.24014
21.0079 19.4276 21.8154 -0.198324 -2.18902 -2.29386
20.6068 20.7164 17.6954 -3.54004 -1.05318 -0.531437
22.4168 20.4428 19.4676 0.776597 0.912644 -0.414424
20.8335 18.1003 19.2225 0.108153 1.82673 1.96075
22.4307 17.8429 20.5865 0.628825 3.44059 0.226377
18.6961 17.6321 20.6749 1.66291 -3.95441 -0.221104
ITEM: TIMESTEP
5000
ITEM: NUMBER OF ATOMS
13
ITEM: BOX BOUNDS ss ss ss
1.8141312116098000e+01 2.2345039665215364e+01
1.7501814490327376e+01 2.3162331944514232e+01
1.7865476799052523e+01 2.3310916178434727e+01
ITEM: ATOMS x y z vx vy vz
18.2621 19.8959 22.6465 -1.25356 4.58504 -0.219061
22.2067 20.6035 21.7498 -0.118745 0.0692508 1.4254
21.1272 23.0042 17.7128 0.896301 -2.02988 -0.818419
17.9444 21.2523 20.1447 0.69367 -0.778084 -0.344518
20.0085 19.6413 20.2636 -3.17354 2.49822 -0.121054
19.4886 21.9634 22.2291 -2.27191 -4.07424 1.49213
20.5635 22.5018 20.1381 3.80141 -2.51973 -1.43795
20.9465 18.8639 22.9407 1.26734 0.595181 -4.31613
19.493 21.2325 17.9645 -2.84624 -0.779736 1.05681
22.3068 20.9916 19.0682 -1.55859 1.91264 4.08865
21.1448 19.1101 17.9247 0.872388 1.37947 -1.98862
22.2735 18.401 20.8371 2.46161 -1.35362 -0.444231
19.3695 17.6735 21.5152 1.22987 0.495491 1.62698
ITEM: TIMESTEP
6000
ITEM: NUMBER OF ATOMS
13
ITEM: BOX BOUNDS ss ss ss
1.7374838214760171e+01 2.3098685102112309e+01
1.7638104962970388e+01 2.3130719070566567e+01
1.8209857274451640e+01 2.2585866879546924e+01
ITEM: ATOMS x y z vx vy vz
17.9417 20.0542 22.5352 -2.61574 -0.515776 -0.472192
22.0569 20.8835 20.9363 -4.11333 0.400026 -0.643942
21.1539 21.6394 18.3598 1.55813 0.266943 -0.0483019
17.6179 21.5886 20.6626 0.27919 1.59343 1.21814
19.5143 19.9667 20.0496 4.87305 -3.18461 0.0301718
19.5586 21.5944 22.4994 1.91153 0.26522 -0.395892
19.8041 22.8239 20.2909 2.33139 -2.59186 -0.852304
20.4481 19.1214 22.4156 -1.87625 1.15462 2.74372
18.7261 22.5426 18.313 -2.21169 -0.463695 0.788414
23.336 20.3126 18.7888 2.62128 1.95955 -1.18722
21.712 18.499 18.4835 -0.991004 0.955054 1.39252
22.9157 18.4581 21.3104 -2.45027 -0.18526 -2.83332
20.3498 17.6507 20.4901 0.683718 0.346354 0.260205
ITEM: TIMESTEP
7000
ITEM: NUMBER OF ATOMS
13
ITEM: BOX BOUNDS ss ss ss
1.7695868323640337e+01 2.3116896600080015e+01
1.7762810560829205e+01 2.3181705179097964e+01
1.8332563147079206e+01 2.2772397188615415e+01
ITEM: ATOMS x y z vx vy vz
18.3365 19.069 21.9732 -0.653611 -1.72891 0.972802
21.9801 21.4734 21.3492 -2.00344 1.54536 0.968567
21.3264 21.701 18.4402 2.5634 -1.89022 0.407634
18.1594 21.6421 20.743 2.99351 2.79598 1.53422
20.0315 20.0747 20.1625 0.631074 -1.53891 -1.69103
19.959 22.015 22.5891 -1.92753 -0.288337 -1.32484
20.0074 23.2182 20.3166 -1.88724 -1.92756 -1.03436
20.8059 19.3702 22.6089 1.90968 -1.36102 4.66399
18.9486 21.5102 18.2169 0.58353 2.25799 -2.884
23.1185 20.3881 19.4816 0.907444 -0.70992 -2.47374
20.84 18.859 18.1253 -1.20837 3.47983 3.62661
21.9413 18.3874 20.7307 -3.47296 1.91661 -3.73678
19.6804 17.4267 20.3975 1.56452 -2.55091 0.970915
ITEM: TIMESTEP
8000
ITEM: NUMBER OF ATOMS
13
ITEM: BOX BOUNDS ss ss ss
1.7647700978058076e+01 2.3480436747977922e+01
1.7324251377527727e+01 2.2442719272794960e+01
1.8336453911290199e+01 2.2855701912633755e+01
ITEM: ATOMS x y z vx vy vz
18.3101 18.8589 22.9348 1.02186 -3.06828 1.43348
22.436 20.4378 20.6646 -1.26643 -2.94218 -0.237397
21.8844 22.5221 18.4348 2.54017 1.06765 -3.31384
17.7714 21.9042 20.2281 -2.26368 -0.409291 -1.6331
19.4751 19.8131 20.2989 1.54442 2.642 -0.399267
18.8004 21.4401 22.5888 0.585416 -0.580073 1.57613
20.4672 22.2691 20.4228 -0.504686 -1.70096 1.28711
20.8389 20.0947 22.8079 -3.15027 1.67635 -0.776302
19.2435 21.6702 18.2748 -0.114882 0.8119 3.10076
23.5428 20.263 18.5531 3.61146 -0.919986 0.742859
21.2278 20.0653 17.9701 -2.06451 -0.524984 -3.10919
21.5452 18.2557 20.2229 0.914673 3.0098 -0.0607592
19.5922 17.5409 21.7335 -0.853534 0.938071 1.38952
ITEM: TIMESTEP
9000
ITEM: NUMBER OF ATOMS
13
ITEM: BOX BOUNDS ss ss ss
1.7873302061247692e+01 2.3363281765248761e+01
1.7529597790780258e+01 2.2698559599668286e+01
1.7540092618848611e+01 2.2778100989913867e+01
ITEM: ATOMS x y z vx vy vz
18.5216 18.4407 22.6517 1.05877 0.551586 -2.2829
22.2219 21.5784 20.2071 -0.662218 -1.85981 0.573458
21.6936 21.1707 17.231 -1.49975 0.62852 -0.310121
18.0052 22.4795 20.1257 -2.85972 2.79845 0.868824
19.1462 20.1964 20.0865 -1.02424 0.734389 -0.548148
18.2064 20.8391 22.8858 0.964022 0.26184 0.420979
19.8656 22.3428 21.8164 0.534199 -0.98835 0.357902
20.6419 20.1501 22.1975 1.7125 -1.55307 -2.19021
20.2847 22.3059 18.8759 1.51677 -2.61369 -1.51585
23.5346 19.8879 18.9426 1.70364 3.27282 1.19207
20.8919 19.2267 18.394 -0.224236 -2.50689 1.86811
22.1052 18.8259 20.6982 2.09187 0.986664 1.29021
20.0163 17.6911 21.0226 -3.3116 0.287539 0.275669
ITEM: TIMESTEP
10000
ITEM: NUMBER OF ATOMS
13
ITEM: BOX BOUNDS ss ss ss
1.7614640064257546e+01 2.3442474155583138e+01
1.7641514097581865e+01 2.3067542318056987e+01
1.7985608442741235e+01 2.2603994127428567e+01
ITEM: ATOMS x y z vx vy vz
18.5557 19.2842 22.2706 -0.246859 0.812453 -0.597505
22.2402 21.6566 20.5149 0.413642 0.019371 0.622225
22.082 21.8005 18.127 -0.472369 -0.80368 -0.190772
17.5898 21.5468 20.5987 0.108347 -0.494754 0.496228
18.5224 19.5415 19.786 3.46129 -0.637813 -0.899469
19.2728 21.7922 22.8493 1.71814 1.55014 2.04943
19.6882 23.0553 20.9741 -0.541807 0.385049 0.0994597
21.0551 19.8605 21.785 -0.238736 0.775279 -1.09908
19.6126 21.8684 18.836 -3.28524 0.358228 -0.542819
23.3035 19.9009 19.2786 0.954213 -0.257135 3.29774
20.9413 19.6947 18.9961 -0.260812 -0.277266 -2.13241
22.2284 17.8292 20.3081 1.82123 0.732171 -1.54686
20.0429 17.3043 20.8104 -3.43104 -2.16204 0.443842
ITEM: TIMESTEP
11000
ITEM: NUMBER OF ATOMS
13
ITEM: BOX BOUNDS ss ss ss
1.7875569635548040e+01 2.3407581660063652e+01
1.7327122661808019e+01 2.3141005095334162e+01
1.8293176328549038e+01 2.2726462018853532e+01
ITEM: ATOMS x y z vx vy vz
18.9488 19.2389 22.3607 -2.558 -2.49149 2.18759
22.4876 22.0416 21.3973 -1.21779 -0.958237 0.455312
21.7349 21.8134 18.6681 0.827761 1.64938 -2.56728
17.9177 21.4927 21.2882 -0.880565 1.62383 -0.00544004
18.234 19.2927 19.4927 -0.580221 0.979445 -0.799276
19.3269 22.1241 22.6902 0.527347 -0.663837 0.955048
20.6147 22.9078 20.4085 2.3065 -1.69204 -2.15207
20.6046 20.1339 20.913 -1.18169 -2.45899 1.56349
18.9842 21.241 18.6527 1.2732 1.06217 0.142567
23.3266 20.2907 20.0459 -2.49902 1.21031 -1.46222
20.9749 19.0097 18.5194 0.148442 -1.48764 2.00288
22.3013 17.9331 20.0555 0.783042 1.21003 -0.104531
19.6788 17.6155 20.6428 3.05099 2.01708 -0.216067
ITEM: TIMESTEP
12000
ITEM: NUMBER OF ATOMS
13
ITEM: BOX BOUNDS ss ss ss
1.7826697039176011e+01 2.2923561028368965e+01
1.7476658904028575e+01 2.2701657761642938e+01
1.8098494232451021e+01 2.2460114166053224e+01
ITEM: ATOMS x y z vx vy vz
18.5811 18.7609 21.9671 1.79176 0.100738 -2.48779
22.1891 20.8338 22.456 0.498559 0.167865 1.91944
20.9916 21.1836 18.1026 -0.381697 -1.72847 0.131498
17.8308 21.6705 21.2856 0.363437 -0.138866 1.34989
18.1904 19.2791 19.4489 2.22564 -0.748947 -0.98745
20.1437 22.5529 22.1584 -1.47367 1.01416 -2.52735
21.1954 22.6976 20.1611 1.57898 2.74621 1.13484
20.3019 20.3747 20.6464 -0.0955017 1.89305 3.03615
18.8321 21.8818 19.0251 -0.549047 -0.242527 1.76649
22.9195 20.9084 19.6988 -1.82165 0.321504 -2.82212
21.123 18.7368 18.6442 1.2527 -0.504891 -1.95762
22.5598 18.7741 21.022 -3.05735 -2.84837 0.562775
20.2767 17.4807 20.5188 -0.332172 -0.0314604 0.881247
ITEM: TIMESTEP
13000
ITEM: NUMBER OF ATOMS
13
ITEM: BOX BOUNDS ss ss ss
1.7680905572596220e+01 2.3093737587309736e+01
1.7651407064628128e+01 2.2727261572224602e+01
1.8160822196862132e+01 2.2227036400111981e+01
ITEM: ATOMS x y z vx vy vz
18.2481 18.7986 21.5483 0.68757 0.336502 1.19537
22.2516 20.8213 22.2585 -1.50962 -1.44986 1.43581
20.491 20.9435 18.2203 -2.07502 1.21353 1.28714
17.6623 21.0377 21.5067 -0.636935 -1.52508 -2.09556
18.4398 19.6585 19.0429 3.00427 -2.14628 -1.96157
19.7239 22.6475 21.7565 0.35476 0.646762 0.0892079
21.5653 22.7344 20.2632 -2.07907 0.499191 -0.827129
20.5221 20.2746 20.5507 -0.235919 1.28314 0.139617
18.8293 22.2698 19.3363 0.937711 1.86674 1.08954
23.1407 20.8857 19.5458 1.59109 -2.14091 -1.71726
21.2982 18.5737 18.7492 -2.09966 1.17164 1.19112
22.7349 18.7695 21.1749 0.759171 -2.18857 -0.889585
20.2279 17.7201 21.1818 1.30166 2.43321 1.0633
ITEM: TIMESTEP
14000
ITEM: NUMBER OF ATOMS
13
ITEM: BOX BOUNDS ss ss ss
1.7924358784480013e+01 2.2779944460054860e+01
1.7381212437849655e+01 2.3063524444073526e+01
1.8484924840974273e+01 2.2239010223826188e+01
ITEM: ATOMS x y z vx vy vz
17.8451 18.7761 21.7122 -0.6162 1.48003 1.53121
22.3707 21.2815 21.886 -0.0819444 -2.49423 -0.0596659
20.0653 21.0902 18.7545 2.45453 -1.04926 0.284552
17.932 21.1351 20.5019 -1.70352 0.971588 1.08239
18.7205 18.8003 19.1542 0.60891 2.06027 -0.882484
19.8993 22.5764 21.7583 -2.33574 -0.363664 -1.76983
21.7361 23.3545 20.1548 1.20646 1.35786 -1.91503
20.1304 19.8364 21.2021 1.68122 1.40797 0.318787
19.3675 23.3775 19.713 -3.41688 1.43138 0.235295
22.3481 20.711 19.4537 1.20525 0.870277 1.85709
21.4865 18.3625 18.7846 -1.5351 -0.770847 1.34383
22.6645 18.6144 21.2594 -0.892048 -1.9129 -0.548758
20.569 17.219 20.8004 3.42504 -2.98846 -1.47739
ITEM: TIMESTEP
15000
ITEM: NUMBER OF ATOMS
13
ITEM: BOX BOUNDS ss ss ss
1.7742726821800545e+01 2.3372711899487314e+01
1.7487633871642718e+01 2.3337129834845925e+01
1.8644500233516773e+01 2.1990880018735581e+01
ITEM: ATOMS x y z vx vy vz
18.0526 19.5906 21.5837 -2.29766 0.693817 2.60165
23.3714 20.8341 21.3873 0.302438 -1.74636 -0.581135
20.1358 21.1288 18.8454 -0.1923 0.0688472 -0.213707
17.6975 21.1736 19.6419 -1.40472 2.1074 -1.7314
18.8811 18.6714 19.3355 0.999598 -1.8568 0.730731
18.7119 22.0624 21.7696 -3.38713 -0.959549 -2.32378
21.1955 22.5681 20.9521 0.762873 2.45302 -0.954696
20.7344 19.9809 21.377 0.655776 -3.26724 -2.01764
19.0706 23.4078 19.6931 1.10571 -0.695101 3.08517
22.75 20.8672 19.3247 1.39577 1.07872 -0.817467
21.2126 18.6941 18.8339 1.59266 1.23275 3.69273
22.8167 18.4509 21.0759 0.599137 -0.903261 -2.29074
20.5051 17.7052 21.3151 -0.132149 1.79377 0.820273
ITEM: TIMESTEP
16000
ITEM: NUMBER OF ATOMS
13
ITEM: BOX BOUNDS ss ss ss
1.7960235392942231e+01 2.2747521210630989e+01
1.7494352077612405e+01 2.3269413497143265e+01
1.8768604666012070e+01 2.1969277847241926e+01
ITEM: ATOMS x y z vx vy vz
18.1114 18.9446 21.8186 0.87692 -2.16892 -1.12776
22.2773 21.204 21.9405 -2.79244 -0.877122 -0.640588
20.3713 21.1013 18.8038 1.03519 -1.38097 -0.65332
17.9257 20.9642 20.3014 -1.09269 1.73622 1.49027
18.8301 18.9128 19.1772 2.01158 0.209427 1.12903
19.5491 22.1534 21.9253 1.15887 1.07738 -0.301996
21.738 22.9394 20.08 2.19636 1.08288 0.0254173
20.3928 19.9613 21.4079 -4.65694 -1.33764 -1.0481
19.0465 23.2686 19.7443 -1.13658 -0.168648 0.0425136
22.8294 20.9495 19.2466 2.3794 -0.0105051 0.0602302
21.4393 18.599 18.7829 -2.774 0.87999 0.727218
22.5818 18.5974 21.1413 2.83857 0.493573 -1.21698
20.0423 17.5395 20.7653 -0.0442473 0.464335 1.51406
ITEM: TIMESTEP
17000
ITEM: NUMBER OF ATOMS
13
ITEM: BOX BOUNDS ss ss ss
1.7863274192682429e+01 2.3150865659694396e+01
1.7329518258134598e+01 2.3317394952595333e+01
1.8978902382031606e+01 2.1903096299696713e+01
ITEM: ATOMS x y z vx vy vz
17.5771 18.7508 21.566 0.699656 1.58752 1.4074
22.0441 21.3786 21.6102 -0.123748 -1.6177 0.377589
20.421 20.7667 19.4784 0.845777 0.546329 -0.841853
18.0616 21.0219 20.3025 0.993419 -0.428468 2.03236
18.5565 18.8018 19.3607 1.87616 -0.427319 -1.28778
19.8282 22.3114 22.1233 -1.24964 0.103076 -2.46378
21.6142 23.2412 19.9333 -1.83319 -0.0770943 1.04114
19.9715 19.7228 21.9999 -0.0516083 -1.339 0.602101
19.2393 23.2914 19.6238 1.77985 -0.937642 -0.771635
23.2295 20.8467 19.047 -1.7261 -0.0310674 1.87767
21.6954 18.6311 18.6504 -1.65433 -0.66194 -2.03684
22.4943 18.8242 20.6759 0.527302 0.27228 0.0888584
20.4023 17.5464 20.7637 -0.0835495 3.01103 -0.0252202
ITEM: TIMESTEP
18000
ITEM: NUMBER OF ATOMS
13
ITEM: BOX BOUNDS ss ss ss
1.7835561727192367e+01 2.2916142232461873e+01
1.7562317035004927e+01 2.2956677903018335e+01
1.8556008576353388e+01 2.2226919486494563e+01
ITEM: ATOMS x y z vx vy vz
17.842 18.6312 21.0197 0.41822 -0.602056 -0.77213
22.5003 21.3748 21.739 1.82674 -2.19911 0.118476
20.4713 20.4296 19.7638 -1.31701 -0.894228 -1.38462
17.861 21.0215 21.0562 -0.0188805 -0.133234 -0.144326
18.1568 19.3552 18.8218 -2.71895 0.279952 1.49034
19.9842 22.702 21.6912 -0.457121 -0.590568 -0.779922
21.5843 22.7202 19.6316 1.71492 1.56947 1.03236
20.1253 19.9334 22.1772 0.137801 1.04149 -1.46894
18.8799 22.625 19.5731 0.303983 -0.798027 -0.820634
23.4162 20.9437 19.2705 -0.569591 2.23226 2.35501
21.7102 18.6628 18.8852 0.241865 -1.69977 0.923327
22.5249 19.0341 21.2008 0.366694 0.98838 -1.78421
20.0786 17.7013 20.3049 0.0713315 0.805438 1.23527
ITEM: TIMESTEP
19000
ITEM: NUMBER OF ATOMS
13
ITEM: BOX BOUNDS ss ss ss
1.7808101795623145e+01 2.3390808477070546e+01
1.7908934231127731e+01 2.2871149532013522e+01
1.8651260850923826e+01 2.2098943239485045e+01
ITEM: ATOMS x y z vx vy vz
17.9811 18.465 21.2491 -0.447327 0.796152 0.777806
22.1625 21.4499 21.8398 0.43967 1.04851 -1.23731
20.4523 20.6381 19.2358 -0.0907962 1.60784 1.84329
17.8724 21.1025 21.3894 -0.521168 2.779 -2.31077
18.0663 19.7483 19.1407 0.82642 -1.24798 1.19158
20.0221 22.4525 21.6132 -3.28829 -0.690161 2.50618
21.7644 22.753 19.646 0.451014 1.1405 1.25451
20.0782 19.7836 22.0124 0.5758 -0.873451 -1.10273
18.7164 22.4563 19.2853 0.578636 -0.131882 -1.13974
23.25 20.823 19.4761 -0.179069 1.59446 -0.386734
22.0343 18.507 18.7713 1.41709 -2.47483 0.725418
22.6228 18.9312 21.3868 2.06224 -2.24711 -3.03127
20.1122 18.0245 20.089 -1.82422 -1.30104 0.909788
ITEM: TIMESTEP
20000
ITEM: NUMBER OF ATOMS
13
ITEM: BOX BOUNDS ss ss ss
1.7808101795623145e+01 2.3390808477070546e+01
1.7908934231127731e+01 2.2871149532013522e+01
1.8651260850923826e+01 2.2098943239485045e+01
ITEM: ATOMS x y z vx vy vz
18.0453 18.4734 21.1866 -0.180394 2.40402 0.960998
22.0166 21.3995 21.6894 1.48581 -1.77823 -1.83858
20.6642 20.379 19.6754 0.395376 -1.89735 1.78428
18.2196 21.1857 21.5752 0.444943 -0.42068 0.400988
18.0083 19.7755 19.1376 1.51792 -1.17874 1.85106
19.9482 22.8555 21.4952 -2.91352 0.38846 1.41179
21.4614 22.9598 19.3191 -0.756493 0.402098 0.280303
20.0034 19.7293 22.4368 -2.34338 0.399429 0.599585
18.8761 22.3768 19.2027 0.429042 2.38016 -2.89255
23.2879 20.6896 19.5208 -0.77357 -0.342124 0.110782
22.4957 18.6953 18.7371 0.920317 0.19651 0.442587
22.0367 18.74 21.4026 1.55399 -0.581923 -1.54365
20.0716 17.8757 19.7566 0.219963 0.0283639 -1.5676
ITEM: TIMESTEP
21000
ITEM: NUMBER OF ATOMS
13
ITEM: BOX BOUNDS ss ss ss
1.7808101795623145e+01 2.3390808477070546e+01
1.7908934231127731e+01 2.2871149532013522e+01
1.8651260850923826e+01 2.2098943239485045e+01
ITEM: ATOMS x y z vx vy vz
17.8105 18.524 21.2316 0.0996535 -0.0863486 0.34805
22.1981 21.2166 21.8748 -0.188413 0.991156 1.3757
20.4379 20.4887 19.5405 -2.62347 -0.31698 -0.359833
17.935 21.0848 21.0846 2.54597 1.23722 -1.17673
18.2876 19.3624 18.9987 -1.41595 0.345881 -1.01201
19.9035 22.5621 21.5758 -0.819958 -2.67089 -1.21251
21.8184 23.0362 19.7154 0.118477 -1.2159 2.41779
19.9273 19.9519 22.143 4.01952 0.968911 -0.940757
19.1631 22.7062 19.3147 -1.8338 0.387783 -0.191037
22.9971 20.9462 19.4753 0.375134 -1.16951 0.22064
21.912 18.3751 18.536 -0.398906 -0.587469 0.274218
22.4613 18.9774 21.0991 -0.159353 1.36898 0.825063
20.2832 17.9033 20.5455 0.281097 0.747165 -0.568572
ITEM: TIMESTEP
22000
ITEM: NUMBER OF ATOMS
13
ITEM: BOX BOUNDS ss ss ss
1.7808101795623145e+01 2.3390808477070546e+01
1.7908934231127731e+01 2.2871149532013522e+01
1.8651260850923826e+01 2.2098943239485045e+01
ITEM: ATOMS x y z vx vy vz
17.8245 18.6194 21.225 1.65066 0.014566 1.7781
22.2879 21.6856 21.709 -0.134194 2.50673 0.581607
20.9302 20.536 19.416 1.14719 -1.05868 -1.79831
17.6899 21.1074 21.3951 -0.618105 -0.117017 1.2099
17.9815 19.738 19.0543 2.11629 1.5183 -0.860605
19.8896 22.3836 21.6744 -1.25756 -0.790683 0.162584
21.7292 22.9518 19.4867 0.3054 0.0796315 -1.13121
20.1763 19.9418 22.0876 -0.468824 -1.20902 -0.390998
18.8034 22.1999 19.4457 -0.793383 1.1432 0.154857
23.4657 20.8882 19.778 -1.16987 0.0211855 0.538117
22.0974 18.1333 18.7219 1.04093 -0.561066 0.665464
22.2827 18.9338 21.0487 -0.512327 -2.72709 -0.891873
19.9768 18.016 20.0926 -1.30621 1.17993 -0.0176297
ITEM: TIMESTEP
23000
ITEM: NUMBER OF ATOMS
13
ITEM: BOX BOUNDS ss ss ss
1.7808101795623145e+01 2.3390808477070546e+01
1.7908934231127731e+01 2.2871149532013522e+01
1.8651260850923826e+01 2.2098943239485045e+01
ITEM: ATOMS x y z vx vy vz
17.7896 18.6862 21.3913 2.39839 0.161447 -1.02356
22.2926 21.702 21.7993 1.40216 -0.120665 1.14599
20.8027 20.4445 18.8201 1.17621 1.4324 -0.806042
17.7781 21.1744 21.4296 -0.394257 1.53035 1.86511
18.251 19.7108 19.2308 -1.78865 -0.987653 -1.6562
19.7769 22.459 21.8221 0.158653 -0.0267984 0.838775
21.4891 22.7787 19.6526 -2.52213 2.27954 -0.882924
20.1544 20.0897 21.6425 -0.24628 -0.81338 -1.11489
18.9909 22.1793 19.4805 -0.304607 -0.568645 -0.929332
23.2208 20.5841 19.6089 0.0372041 -1.2188 0.21453
22.3036 18.3792 18.8075 -0.137741 -1.29707 0.67531
22.4104 18.8169 21.3917 0.380728 -1.27125 1.01635
19.8749 18.1303 20.0582 -0.159688 0.900508 0.656895
ITEM: TIMESTEP
24000
ITEM: NUMBER OF ATOMS
13
ITEM: BOX BOUNDS ss ss ss
1.7715475058521012e+01 2.3266149700304677e+01
1.7856403052442445e+01 2.2864811981078635e+01
1.8866712189856337e+01 2.1857905801655178e+01
ITEM: ATOMS x y z vx vy vz
17.7168 18.6132 21.405 0.828575 -1.32296 1.21995
22.3611 21.4184 21.8555 -0.404699 -1.33897 -0.318928
20.7071 20.4699 18.7486 1.03147 -0.956344 -0.777629
17.7292 21.0751 21.5284 -0.324423 -0.329445 0.608157
18.2835 19.5537 19.1877 1.94364 1.91092 -1.75608
20.0961 22.9094 21.7427 0.269904 0.110032 1.28892
21.6035 23.0086 20.0079 -0.685851 0.124736 -1.47854
20.0605 20.2065 21.4148 -0.346836 -1.89532 -0.676253
19.0572 22.1573 19.264 0.0118637 2.14111 0.0427337
23.0772 20.8509 19.503 -0.58821 0.386312 -0.576036
22.1496 18.4452 18.9586 0.30734 -0.360014 -0.384052
22.2643 18.6405 21.3422 -1.63308 1.42375 0.904332
20.0289 17.7862 20.1766 -0.409692 0.106197 1.90343
ITEM: TIMESTEP
25000
ITEM: NUMBER OF ATOMS
13
ITEM: BOX BOUNDS ss ss ss
1.7715475058521012e+01 2.3266149700304677e+01
1.7856403052442445e+01 2.2864811981078635e+01
1.8866712189856337e+01 2.1857905801655178e+01
ITEM: ATOMS x y z vx vy vz
18.3406 18.673 21.6416 0.0546162 0.510956 0.902715
22.2015 21.6188 22.2842 -0.584904 3.39276 0.619722
20.4662 20.5595 18.3931 -1.25396 -0.147839 -0.923697
17.6729 21.1295 21.3167 -0.399236 -1.73678 -0.521989
18.2109 19.7543 19.2651 1.53787 2.36142 -0.930994
19.9961 22.5632 21.805 -0.888511 -3.1758 1.10156
21.5755 22.6217 19.6379 0.608229 -2.2583 -0.167368
20.3303 20.2026 21.1211 0.878123 2.49436 0.130477
18.9595 22.4418 19.3844 0.611776 -1.1013 0.217747
23.0506 20.622 19.9006 0.591757 -1.08257 0.749153
22.0045 18.5232 18.9291 -2.23761 -0.474503 -0.572261
22.311 18.6328 21.4193 0.93278 -0.0221301 -0.62307
20.0153 17.7927 20.0368 0.149068 1.23972 0.0180083
ITEM: TIMESTEP
26000
ITEM: NUMBER OF ATOMS
13
ITEM: BOX BOUNDS ss ss ss
1.7715475058521012e+01 2.3266149700304677e+01
1.7856403052442445e+01 2.2864811981078635e+01
1.8866712189856337e+01 2.1857905801655178e+01
ITEM: ATOMS x y z vx vy vz
18.3829 18.8032 21.6623 -1.10935 0.25818 0.657988
22.1571 21.7701 22.0896 2.09805 -2.03034 -1.03668
20.5831 20.2367 18.2445 1.20098 0.18357 0.286344
17.5804 21.2817 21.8077 -1.3548 1.42441 1.52121
17.9783 19.8754 19.4525 2.65802 -1.708 -0.359646
19.6639 22.6976 21.9492 -0.913286 0.488249 0.196359
21.6651 22.2123 19.6338 -1.46582 -0.668813 -0.955812
20.3001 20.397 20.9235 -0.049056 -0.477782 -0.0294519
18.7957 22.1654 19.4995 -0.440693 0.847238 -0.664302
23.3639 20.4776 20.1495 -0.464105 0.754069 0.353374
22.5029 18.5191 18.8048 0.833553 1.51574 1.08729
22.1335 18.6444 21.3639 -0.086846 -1.03811 -1.06756
20.0283 18.0546 19.554 -0.906647 0.451586 0.0108862
ITEM: TIMESTEP
27000
ITEM: NUMBER OF ATOMS
13
ITEM: BOX BOUNDS ss ss ss
1.7715475058521012e+01 2.3266149700304677e+01
1.7856403052442445e+01 2.2864811981078635e+01
1.8866712189856337e+01 2.1857905801655178e+01
ITEM: ATOMS x y z vx vy vz
17.9911 18.816 21.6031 -0.655229 -0.967902 0.284117
22.3802 21.2946 21.9549 -0.594316 -0.723143 1.41844
20.9973 20.1941 18.7144 0.00274041 -0.561198 0.226037
17.6683 21.481 21.519 0.928644 -0.112825 -0.524888
18.0493 19.6474 19.282 0.129514 0.0299838 1.26163
19.9972 22.8696 21.9874 1.47721 2.54783 -1.48723
21.2486 22.4243 19.7601 -0.344808 0.333898 -0.260029
19.9607 20.3408 21.3009 -0.194557 -0.400092 1.13697
18.6411 22.219 19.5731 -1.24975 -0.985556 0.044286
23.3097 20.8346 19.8063 0.961573 -0.668949 0.126542
22.5603 18.2942 18.8756 -1.16165 1.28526 -0.483088
22.2827 18.7572 21.0816 -0.351368 0.114957 1.04473
20.0483 17.9622 19.6765 1.05199 0.107738 -2.78752
ITEM: TIMESTEP
28000
ITEM: NUMBER OF ATOMS
13
ITEM: BOX BOUNDS ss ss ss
1.7715475058521012e+01 2.3266149700304677e+01
1.7856403052442445e+01 2.2864811981078635e+01
1.8866712189856337e+01 2.1857905801655178e+01
ITEM: ATOMS x y z vx vy vz
18.1916 18.6827 21.6263 -1.05201 -2.74699 2.42293
22.2525 21.3763 22.1558 -1.31585 -0.61587 1.95028
20.5914 20.4605 18.2996 -1.43684 0.100722 0.684348
17.883 21.3203 21.6016 0.755775 -0.0700096 -1.00865
18.0721 19.5963 19.2364 -0.588338 0.035036 0.138555
19.9472 22.8055 21.8878 -0.275231 0.38516 -2.20297
21.4933 22.6284 19.8437 3.5997 -0.836793 0.372969
20.2011 20.3127 20.9483 -2.12965 0.0186261 -0.391968
18.9418 22.205 19.3889 -0.0120819 1.38436 1.12266
23.0511 20.5872 19.9768 0.228126 0.379864 -0.624353
22.2825 18.6161 18.7822 0.0694415 -1.51051 -0.00807346
22.0874 18.6202 21.5172 1.65958 2.91297 -0.307636
20.14 17.9239 19.8704 0.497385 0.563437 -2.14809
ITEM: TIMESTEP
29000
ITEM: NUMBER OF ATOMS
13
ITEM: BOX BOUNDS ss ss ss
1.7715475058521012e+01 2.3266149700304677e+01
1.7856403052442445e+01 2.2864811981078635e+01
1.8866712189856337e+01 2.1857905801655178e+01
ITEM: ATOMS x y z vx vy vz
17.8336 18.4444 21.3279 0.848631 -1.28941 -0.739064
22.1952 21.3513 21.9945 0.070109 1.96578 -0.741719
20.654 20.3608 19.1111 0.816981 -2.31076 1.63673
17.615 21.1732 21.3784 0.615469 -0.89379 -0.926789
18.1113 19.7822 19.3283 -0.770836 1.49941 2.7143
19.894 22.7605 21.7411 -0.365736 0.884835 -0.698018
21.7486 22.7131 19.7399 0.462578 2.07755 0.96094
19.8891 20.1178 21.7615 1.43632 -1.45781 0.879575
19.1334 22.3197 19.3044 -0.032218 0.467258 -1.70499
23.291 20.7427 19.7816 0.583071 -0.247686 0.895154
22.2918 18.4628 18.5962 -0.235319 -0.433395 -1.54832
22.4543 18.8481 21.1006 -2.40601 -0.216679 0.265886
20.0236 18.0587 19.9695 -1.02304 -0.045314 -0.99368
ITEM: TIMESTEP
30000
ITEM: NUMBER OF ATOMS
13
ITEM: BOX BOUNDS ss ss ss
1.7692331732559452e+01 2.3270735509136756e+01
1.7833009809668422e+01 2.2800874071086970e+01
1.8835678299551837e+01 2.2147177913479169e+01
ITEM: ATOMS x y z vx vy vz
17.9366 18.5483 21.1805 1.18494 -1.11089 1.045
22.209 21.3255 21.8029 -0.264803 0.0314946 -0.0336774
20.5271 20.5024 19.7136 -0.820283 1.86488 -0.125467
18.0134 21.1064 21.2011 0.424646 0.102262 0.314317
18.3532 19.8798 18.8967 1.90526 -1.00307 -0.779323
20.0199 22.6873 21.6604 0.626381 -0.00253545 -1.26807
21.6582 23.1664 19.7887 0.164447 -1.05734 0.685117
20.0134 19.628 22.265 0.327793 1.59667 0.430986
18.9268 22.4873 19.1224 -1.56966 1.35378 -0.300575
23.0193 20.5982 19.4714 -1.21041 -1.63505 1.50983
22.0006 18.4925 18.735 1.03834 1.57355 0.597826
22.355 18.7678 21.2181 -0.951687 -1.36243 -2.02184
20.1025 17.9451 20.0791 -0.854964 -0.351309 -0.0541146
ITEM: TIMESTEP
31000
ITEM: NUMBER OF ATOMS
13
ITEM: BOX BOUNDS ss ss ss
1.7692331732559452e+01 2.3270735509136756e+01
1.7833009809668422e+01 2.2800874071086970e+01
1.8835678299551837e+01 2.2147177913479169e+01
ITEM: ATOMS x y z vx vy vz
17.7038 18.7175 21.0203 -0.0125524 -0.459157 -0.931843
22.2478 21.4896 21.822 1.10382 2.10268 0.0613678
20.6614 20.5202 19.7195 -0.664491 -0.484469 0.357633
18.0088 21.2313 21.1796 0.576888 1.51852 -0.191409
18.372 19.7491 18.9214 -1.11909 0.770241 1.13991
19.9943 22.4742 21.7775 -0.32043 -3.03186 -1.13009
21.4466 22.8154 19.7051 -1.2293 -2.44199 1.02864
20.1541 19.6906 22.1315 -0.179181 1.54579 1.33171
18.8417 22.4611 19.2886 0.611915 -0.615665 -0.0222664
23.2661 20.7567 19.4854 1.86655 -0.282778 0.46271
22.0336 18.4323 18.6913 0.0192567 0.447751 -1.94707
22.4363 18.8358 21.2481 -1.06161 1.14404 0.192339
19.9684 17.9613 20.1446 0.408215 -0.213108 -0.35163
ITEM: TIMESTEP
32000
ITEM: NUMBER OF ATOMS
13
ITEM: BOX BOUNDS ss ss ss
1.7692331732559452e+01 2.3270735509136756e+01
1.7833009809668422e+01 2.2800874071086970e+01
1.8835678299551837e+01 2.2147177913479169e+01
ITEM: ATOMS x y z vx vy vz
17.8651 18.4742 21.232 0.243137 -0.318614 1.02107
22.3914 21.2518 21.7527 1.03375 -1.15362 1.0662
20.5864 20.5116 19.5304 0.521317 -0.602401 0.356062
17.6815 21.1687 21.2144 -3.05012 -0.828839 -1.89049
18.2073 19.7866 19.1133 -0.203975 0.645819 0.348495
19.834 22.4839 21.6354 1.18259 0.621597 -1.63262
21.7801 22.8173 19.7533 2.94017 0.832567 -0.200819
19.8667 19.9747 22.0116 -1.36778 -0.0361423 0.593959
18.9716 22.5082 19.2003 -1.34326 1.1676 1.40363
23.4 20.669 19.5873 -2.03467 0.623408 -1.45093
22.1285 18.5752 18.731 0.45504 0.105406 -0.763344
22.3947 18.9049 21.1457 -0.339794 -0.347242 0.842025
20.0276 18.009 20.2277 1.96359 -0.709533 0.306765
ITEM: TIMESTEP
33000
ITEM: NUMBER OF ATOMS
13
ITEM: BOX BOUNDS ss ss ss
1.7692331732559452e+01 2.3270735509136756e+01
1.7833009809668422e+01 2.2800874071086970e+01
1.8835678299551837e+01 2.2147177913479169e+01
ITEM: ATOMS x y z vx vy vz
17.8468 18.4491 21.3248 -0.625631 -0.0430873 -0.424154
22.3342 21.3607 21.5923 1.75498 1.41648 -0.474684
20.6452 20.3489 19.4828 -0.136053 1.41008 1.05522
17.7664 21.1943 21.1896 0.330016 -1.33323 1.27322
18.0959 19.6936 19.216 0.0717623 -0.851249 -1.57682