ITEM: TIMESTEP
0
ITEM: NUMBER OF ATOMS
146
ITEM: BOX BOUNDS ss ss ss
1.0339135718955674e+01 3.0450864281044296e+01
1.1225351425297436e+01 2.9564648574702559e+01
1.1137707133191702e+01 2.9652292866808299e+01
ITEM: ATOMS x y z vx vy vz
21.2533 13.8905 15.155 0.639976 0.706713 1.43496
18.5262 18.0664 15.0649 0.384879 -0.152467 0.698827
20.7991 16.5516 14.1517 -0.223468 -0.477457 -1.82445
20.3448 19.2127 13.1484 0.830113 -0.607358 2.30683
22.5469 18.7031 14.9332 0.993165 1.68544 -0.24199
15.7991 22.2423 14.9748 -1.64037 0.998391 1.30534
17.547 24.3938 15.7563 -0.603638 1.57938 -0.770824
18.072 20.7275 14.0616 -0.281706 -0.669502 -1.73878
17.6178 23.3886 13.0583 -1.25073 -0.223682 2.07301
19.8198 22.879 14.8431 -0.369397 0.0347543 0.751205
22.0927 21.3642 13.9299 0.136788 -0.319361 -0.690679
19.8906 21.8738 12.1451 0.78333 -0.435014 1.69175
21.6385 24.0253 12.9266 1.01211 0.228383 0.881546
19.4364 24.5349 11.1418 3.84671 -0.646576 0.286516
24.2948 20.8545 15.7147 -0.220411 -0.337704 -0.104349
23.8405 23.5156 14.7114 -0.339208 -1.0104 0.746752
21.5677 25.0304 15.6246 -1.24849 -0.376099 -1.70091
19.3656 25.5401 13.8398 -0.243221 1.57346 1.00354
14.8889 15.7738 18.8979 0.911199 -0.0312498 0.337797
17.1618 14.259 17.9847 0.0973649 -0.520604 0.244909
19.4346 12.7442 17.0715 -1.40318 -0.644261 -2.56998
21.1825 14.8957 17.853 0.168046 0.398676 1.08591
21.7075 11.2294 16.1583 -1.68158 -1.17033 1.02474
18.9804 15.4053 16.0682 -1.26364 -0.539471 -2.32011
19.3639 13.7493 19.7695 1.25153 0.440174 0.698466
21.6367 12.2346 18.8563 -0.304367 -0.117167 2.85795
23.4554 13.3809 16.9398 1.36913 -0.332101 0.13664
25.2032 15.5323 17.7213 -1.17567 0.510481 0.3648
23.3846 14.386 19.6378 -0.273988 2.25632 -0.0626162
12.6161 17.2886 19.8111 1.20381 1.04589 0.0719166
12.1618 19.9497 18.8078 0.826102 -1.06621 1.57006
16.6368 17.9252 19.6794 0.143485 -0.214601 1.00166
14.4347 18.4349 17.8946 -0.471161 0.290279 1.93795
16.7076 16.9201 16.9814 0.178877 -0.263478 -0.656087
16.2533 19.5812 15.9781 0.11356 -0.187822 -0.638397
18.9096 16.4105 18.7662 2.30883 -0.314588 0.324138
20.6575 18.5619 19.5477 0.984114 0.579432 -1.18955
18.4554 19.0716 17.7629 -2.09754 -0.300912 -2.33262
20.7283 17.5568 16.8497 0.311492 0.894802 -1.36409
20.2741 20.2179 15.8464 1.12537 -0.0861361 0.0174318
22.9304 17.0471 18.6345 -0.419982 -1.22696 -0.231805
24.6782 19.1985 19.416 -2.96759 -1.82641 -0.477139
22.4761 19.7082 17.6312 -1.25113 0.660747 0.395152
23.0011 16.042 15.9365 -0.0569068 -0.513495 -0.886561
24.749 18.1934 16.718 -1.68705 0.212524 -1.25164
26.9511 17.6837 18.5028 -0.119798 0.385454 1.62145
28.6989 19.8352 19.2843 1.22765 -0.417799 -1.30305
26.4968 20.3448 17.4995 -1.90575 2.26274 0.275615
13.9097 22.1011 19.5892 1.80077 -0.762899 -0.228311
13.9805 21.096 16.8913 0.285207 1.27666 0.3131
15.6576 24.2526 20.3707 2.54783 -1.21579 -0.792121
16.1826 20.5863 18.6761 -0.308825 -0.90367 -0.504746
17.9304 22.7378 19.4575 -0.0394475 0.950981 -1.12411
15.7283 23.2475 17.6728 -1.05221 -0.055806 0.845277
18.0012 21.7327 16.7596 -0.890598 -0.149432 1.68594
22.4054 20.7133 20.3291 -0.843895 2.3077 -2.73863
19.6783 24.8892 20.239 -0.846154 -0.0483875 -2.09672
20.2033 21.223 18.5444 -0.564514 0.510848 -2.26821
21.9511 23.3744 19.3258 -1.55179 -0.485234 -0.836164
19.7491 23.8841 17.5411 0.263594 -0.585834 -0.351917
22.0219 22.3693 16.6279 0.301971 1.40849 0.608494
26.4261 21.35 20.1974 -2.3541 -0.285803 -0.482952
24.224 21.8596 18.4127 -1.28374 -0.529082 -1.43466
25.9718 24.0111 19.1941 0.579504 0.317208 1.81783
23.7698 24.5207 17.4094 1.31877 0.683847 1.22241
26.0426 23.0059 16.4962 0.688801 -0.809237 0.969014
30.4468 21.9866 20.0657 0.862861 2.32471 -0.379967
28.2447 22.4963 18.281 0.631581 2.67161 -3.17684
17.4762 25.3989 18.4542 1.84662 -0.524205 -0.567164
19.2241 27.5503 19.2357 0.149393 -1.38588 0.656632
21.4969 26.0355 18.3225 0.206052 1.00335 1.2618
19.2948 26.5452 16.5378 0.650169 0.274093 -1.53653
23.699 25.5259 20.1073 0.962492 -1.51097 -1.9595
17.091 15.2641 20.6827 -0.384021 0.175608 -0.345811
19.2931 14.7545 22.4675 0.95355 0.521507 0.723272
21.5659 13.2397 21.5543 0.0419594 -1.30171 -1.02746
21.4952 14.2448 24.2522 -0.0146611 -1.77502 -0.528221
23.3138 15.3911 22.3358 0.693186 0.720066 -1.84752
10.3432 18.8034 20.7243 1.19533 0.37748 0.739728
12.5453 18.2937 22.509 0.41422 0.66026 0.170399
14.3639 19.44 20.5926 1.54285 0.49224 0.272075
14.8182 16.7789 21.5959 -0.855928 -2.34412 -0.606268
16.566 18.9304 22.3773 1.0848 1.01343 -0.391601
14.7474 17.7841 24.2938 -1.08743 -0.446628 0.627948
17.0202 16.2693 23.3806 -0.0921743 -1.10205 -2.41351
18.3846 20.0767 20.4609 0.46099 0.0186745 -0.600192
18.8389 17.4156 21.4642 1.49453 -1.3149 -2.53877
20.5867 19.567 22.2456 -1.05348 0.0470274 1.24446
21.1117 15.9008 20.551 -0.0440951 2.49294 -0.0109492
18.7681 18.4207 24.1621 -1.47957 -0.891353 -0.975831
21.0409 16.9059 23.2489 -1.22653 -0.110512 0.442684
22.8596 18.0522 21.3325 -1.11881 -1.26809 0.960766
24.6074 20.2037 22.1139 0.536334 -0.653886 0.711549
25.1324 16.5374 20.4193 -0.098 -0.864549 0.0214383
22.7888 19.0573 24.0304 -2.27982 1.55241 -0.418567
25.0617 17.5425 23.1172 -0.993609 -1.32645 1.52837
26.8803 18.6889 21.2008 -1.08495 -0.795606 1.43318
26.8095 19.694 23.8987 -0.641663 1.73512 -0.868533
12.0911 20.9548 21.5057 0.95611 0.133989 -0.326974
13.8389 23.1063 22.2872 1.92161 -0.871757 -0.590897
14.2932 20.4452 23.2905 1.57977 0.970997 0.203586
16.1118 21.5915 21.374 -1.45084 1.25459 0.757711
17.8596 23.7429 22.1555 -0.0993774 0.61787 0.00935151
16.041 22.5966 24.072 -1.09285 -0.571989 1.88421
17.7889 24.748 24.8535 -0.86395 -0.0339337 0.315027
18.3139 21.0818 23.1588 0.0298489 -0.849232 1.27194
20.1325 22.2281 21.2423 -1.14462 1.09965 -1.19606
21.8804 24.3795 22.0238 1.0487 -0.137406 0.725405
20.0617 23.2332 23.9403 0.701192 0.741011 1.05224
22.3346 21.7184 23.0271 -0.321833 -1.22116 0.730647
20.5159 20.5721 24.9436 -0.0644672 0.791172 1.287
24.1532 22.8648 21.1106 -0.704199 0.0912162 -0.321852
24.0824 23.8699 23.8086 -0.44764 -0.329727 0.154523
26.3553 22.3551 22.8954 -1.23635 -0.522762 0.280972
24.5367 21.2088 24.8119 0.835716 -0.114182 0.0740433
28.1739 23.5014 20.9789 -2.03077 0.553596 -0.328519
28.6282 20.8403 21.9822 -0.841702 -0.525701 0.200828
15.5868 25.2577 23.0687 -0.291093 1.70426 -1.85223
17.3346 27.4091 23.8502 -1.93445 1.39878 0.285915
17.4054 26.404 21.1522 0.244401 -2.04461 0.0357106
19.0825 29.5606 24.6317 0.30894 0.516122 -1.23962
19.6075 25.8943 22.937 -1.62352 -0.372454 0.388605
21.3554 28.0458 23.7185 0.740725 -0.22545 -0.243187
19.1533 28.5554 21.9337 1.0264 1.69704 -2.10306
21.4261 27.0407 21.0205 1.57279 0.117616 -1.06647
21.8096 25.3847 24.7218 1.07896 -0.103533 -0.193272
23.6282 26.531 22.8053 0.853594 -0.714789 1.10224
25.9011 25.0162 21.8921 0.999555 0.667801 1.12814
19.2223 15.7596 25.1654 -0.520059 0.519449 0.76559
21.4244 15.2499 26.9502 0.0727175 1.82111 1.96311
16.4952 19.9355 25.0753 -0.395391 -1.71818 0.139945
16.9495 17.2744 26.0786 -0.870636 -0.548139 -0.899731
18.6973 19.4258 26.8601 -1.65113 -1.46316 -0.00303908
20.9702 17.911 25.9469 -0.842537 0.425632 -0.140852
19.1515 16.7647 27.8634 -0.297624 -0.809414 2.58821
20.8994 18.9162 28.6449 1.10868 0.379064 -1.32105
21.3536 16.2551 29.6482 0.788374 -1.33745 0.184459
22.718 20.0625 26.7284 1.34499 2.1289 -0.643823
23.243 16.3962 25.0337 2.35874 -1.31353 2.22968
24.9909 18.5477 25.8152 1.61549 -1.69882 0.854163
23.1722 17.4014 27.7317 0.78912 -0.273425 0.200496
18.2431 22.0869 25.8568 -0.137413 -1.8346 -0.478621
19.9909 24.2384 26.6383 1.49725 2.26785 0.505185
22.2638 22.7236 25.7251 -0.0863881 -0.306859 2.05182
20.4452 21.5773 27.6416 -0.0147651 -1.92965 -0.80992
19.5367 26.8995 25.635 -1.18113 0.170214 0.392576
ITEM: TIMESTEP
1000
ITEM: NUMBER OF ATOMS
146
ITEM: BOX BOUNDS ss ss ss
1.1219999459910071e+01 2.9710008569366458e+01
1.1828826143202479e+01 2.8948691494680727e+01
1.1989605914406260e+01 2.9158164216540683e+01
ITEM: ATOMS x y z vx vy vz
21.3111 14.0805 15.2094 -0.0126554 -1.69481 -0.545438
18.4817 18.1634 14.8647 -0.791836 -0.761354 -1.58705
20.8081 16.7691 14.3814 0.207815 0.0115717 -1.73954
20.298 19.4103 13.4089 -0.116465 -0.631608 -1.67969
22.63 18.7469 14.8647 0.485161 1.34819 -0.83374
15.9086 22.188 15.0323 -1.83707 -0.490027 -0.399915
17.5882 24.3222 15.7591 0.565496 0.499179 -0.724857
18.0387 20.8908 13.899 0.56539 0.572707 -1.90973
17.5802 23.3775 13.0197 -0.846278 0.633681 0.196037
19.8171 22.7768 14.8025 0.307631 -0.82647 1.33812
21.9175 21.5029 13.9353 0.267226 2.34656 -0.521708
20.139 21.6915 12.0991 -0.41692 -0.625203 -1.28475
21.4901 24.086 12.9078 0.980946 -0.656541 0.609817
19.3406 24.3885 11.4451 0.323162 2.28112 1.35637
24.2522 20.8936 15.6073 1.11929 0.378745 -0.551236
23.7108 23.3956 14.7819 0.42935 0.120914 -1.52646
21.4709 24.7241 15.5896 -0.71061 -0.216628 -2.30775
19.1843 25.3421 13.8307 -1.06908 1.27226 0.0840689
15.1301 15.7583 19.154 -1.84329 -4.28108 -0.396989
17.4283 14.4044 18.1085 1.19325 1.09252 0.736741
19.3538 12.8363 17.2142 -1.22302 -1.39379 0.615522
21.1859 14.8926 17.9527 0.00157758 1.41551 0.721374
21.6074 11.6542 16.3844 -1.2876 0.334604 -2.96663
19.1501 15.4734 16.2278 0.0388834 -0.126251 -0.0326734
19.555 13.7834 19.8297 0.555061 -0.765706 -1.93833
21.7759 12.1734 18.9029 0.293282 -0.192745 0.59801
23.504 13.5129 16.9279 1.69827 -0.658169 0.0733282
25.0196 15.5549 17.7414 1.80108 -3.14617 -0.498799
23.3284 14.2908 19.5531 0.0444644 -2.16687 -1.38599
12.8235 17.3795 19.9493 -1.05972 0.140483 0.604175
12.3616 20.0298 18.7678 -0.793003 0.0115937 -1.10533
16.5086 17.8716 19.6145 -1.2732 1.27397 2.43216
14.6505 18.5196 17.9574 -2.44222 -0.233954 -0.451579
16.617 16.8199 16.8823 0.266488 -1.4474 -1.5184
16.2268 19.7068 15.8177 -0.0281832 -0.160878 -2.11389
18.9026 16.3577 18.7401 0.605177 -1.96704 0.437836
20.4516 18.6456 19.6199 0.590292 -1.05474 0.443052
18.3291 19.1237 17.5799 -0.20958 -2.03138 -1.94608
20.6717 17.4522 16.8878 1.38671 -4.07305 1.19834
20.5195 20.2388 15.9065 0.28668 2.46403 -0.143709
23.0587 16.9229 18.5705 -0.696953 -1.5602 -0.952745
24.6934 19.1783 19.4494 1.50691 0.321778 -0.0325421
22.5161 19.6092 17.6578 0.640376 -0.937468 -2.3704
22.8884 16.1602 15.8883 -0.493037 0.48525 1.33652
24.8847 18.2139 16.7188 0.330802 -0.98488 1.01429
26.7184 17.7804 18.6885 2.27725 -1.56982 1.21987
28.5591 19.8042 19.5127 -0.0837433 0.414026 -0.84079
26.4603 20.3614 17.6326 1.16409 -1.27484 1.84022
14.0297 22.0673 19.5241 0.901054 -1.38315 0.471676
14.2893 21.0714 17.0112 -2.78829 -0.00744798 0.381284
15.7366 24.297 20.1995 -1.0242 0.717879 -0.203756
16.232 20.6553 18.6563 -2.94344 -0.864128 2.36731
17.8521 22.6939 19.3251 1.27741 -0.655116 -0.100057
15.7515 23.2924 17.647 -1.79943 0.221045 -0.436321
17.9473 21.7876 16.5993 -0.617543 0.624514 -1.96106
22.3703 20.5732 20.4135 1.07764 -0.283213 -0.0221103
19.4096 24.9113 20.2964 0.185243 1.12103 1.4474
20.2191 21.1766 18.5917 -0.80957 3.40798 -0.820958
21.8235 23.3226 19.4236 2.72956 0.557614 1.48895
19.723 23.9069 17.6067 -0.457527 -0.383638 -2.87998
22.0826 22.346 16.749 -0.338997 2.03187 -1.05384
26.3341 21.4118 20.2957 -3.81888 -1.07713 -0.713759
24.2742 21.8028 18.3396 2.43226 1.1561 -0.364273
25.8783 24.0041 19.3008 -0.350547 -0.515086 -0.714363
23.776 24.4677 17.4717 0.897758 -1.00968 0.643722
25.797 23.0603 16.7591 0.4426 -0.80536 -2.57134
29.7918 21.7451 20.1374 3.86643 2.1254 0.20942
28.0374 22.3157 18.2013 0.146901 1.07111 -2.59463
17.609 25.6032 18.3658 -0.0458078 0.746144 -0.657981
19.3595 27.3571 19.4069 1.70359 1.63773 -0.154853
21.4625 25.9933 18.384 0.52771 -0.320337 -0.35945
19.2948 26.2867 16.5997 -1.2305 1.72291 -0.241162
23.6773 25.6991 20.0305 1.03579 0.729165 1.21163
17.2234 15.3809 20.7367 -0.233947 -0.760981 -2.59308
19.387 14.6817 22.4935 0.470635 -1.60358 0.263251
21.6498 13.4595 21.5052 1.23768 -0.252086 0.0402024
21.3929 14.4825 24.317 -1.39432 -1.43966 1.69141
23.3764 15.3614 22.0907 -1.55493 -0.28417 2.06173
11.0235 18.8715 20.808 -0.746069 -0.586048 -0.748953
12.798 18.3725 22.5795 -0.291514 -0.276918 0.241161
14.6016 19.5548 20.7388 -0.254787 -0.526546 1.77735
14.9602 16.8971 21.554 -1.21874 2.42551 0.631746
16.67 18.9927 22.4342 -3.94519 -0.98589 1.18648
14.9772 18.2133 24.0532 -0.512324 0.742737 0.590698
16.9389 16.1402 23.373 -2.00697 -0.139842 -0.262322
18.402 20.1141 20.4952 -1.11038 -0.475778 0.282589
18.8428 17.3044 21.4659 -3.05421 -1.73904 -0.902587
20.5421 19.5378 22.2629 3.30331 0.736918 1.00306
21.1571 15.8325 20.6068 0.579906 -3.04788 -0.66525
18.8103 18.3463 24.2218 1.63139 -0.747874 1.0957
21.0949 16.8218 23.1534 1.06603 -0.343492 2.53109
22.7647 18.0184 21.2073 1.26676 -0.524669 0.430198
24.6563 20.1762 22.116 3.3689 0.512321 -0.240107
25.1613 16.4106 20.2695 -1.85948 -0.2713 1.00957
22.8617 18.9827 24.0723 1.16981 -0.464896 1.90376
25.1118 17.5356 23.0342 -0.13045 -2.38523 0.29639
26.9233 18.7244 21.1913 -0.843153 -0.252226 -2.02391
26.5911 19.7103 23.9271 2.42778 -0.39676 0.176442
12.2396 21.1951 21.4989 -0.148381 0.176544 -0.75316
14.0707 23.1302 22.0242 -3.97042 0.959336 -0.762104
14.3071 20.6709 23.3916 -1.69239 -1.07853 -0.244223
16.0739 21.574 21.3357 0.956799 0.0700355 1.35526
17.8072 23.709 22.1422 -0.0476907 1.17788 2.21744
15.992 22.6264 24.1105 -0.119749 -0.86542 -0.153098
17.8007 24.7986 24.8095 0.941626 0.431242 -0.37353
18.2738 21.0729 23.3901 -1.84415 0.113171 1.84839
20.0911 22.1022 21.2453 -0.676766 0.45735 2.12738
21.7553 24.4049 21.9694 -3.07338 2.18302 2.42999
20.0572 23.3247 24.009 -0.72319 1.95774 -0.315975
22.2584 21.706 23.032 2.49014 1.10143 -0.546954
20.6083 20.5982 24.9565 1.8526 0.386169 -0.880554
24.0854 22.8606 20.958 1.93132 -0.00184707 -0.450484
24.0354 23.8719 23.6773 2.27344 1.40512 2.16932
26.3533 22.2404 22.9462 0.27317 0.541964 -0.823056
24.4831 21.1055 24.7886 2.6819 1.19544 2.17511
28.0575 23.5837 20.9724 -0.150528 3.13951 1.58522
28.4687 20.7285 22.1738 1.06479 -0.0311076 2.2111
15.8803 25.104 22.8964 -0.951682 1.65881 0.698129
17.2359 27.4314 23.8864 1.34109 -0.204807 -0.977498
17.5262 26.5127 21.2477 -0.511897 0.19676 -0.103491
19.0051 29.1599 24.5302 0.0487506 1.69924 0.905375
19.6113 25.7625 22.859 1.9656 -1.11126 -0.861176
21.2207 27.8963 23.6714 -1.71439 0.616538 1.20671
19.1443 28.6611 22.0441 -0.832302 1.81633 -2.85202
21.3857 27.0662 21.1851 0.319958 -1.08718 0.651734
21.8359 25.6382 24.6354 -0.410403 0.457175 -2.82703
23.4388 26.3727 22.6123 0.418004 1.45081 0.180525
25.7039 24.7501 21.7324 -0.41187 0.632398 0.258572
19.1899 15.8366 25.3306 0.580722 1.80408 -0.422958
21.3618 15.1906 26.8806 0.492552 -0.707862 -1.27753
16.591 19.8741 25.2638 -1.72665 -1.00328 1.2046
17.0352 17.2278 25.7821 -0.287177 0.970055 1.8568
18.685 19.2946 26.9054 1.2624 -1.36492 -2.07378
21.0139 17.9992 25.8573 0.0414509 1.47547 -3.54014
19.0997 16.8993 28.0065 -0.808356 1.16774 0.119886
21.0881 18.8092 28.5651 -0.264165 -0.105402 -0.276787
21.2037 16.2477 29.102 -1.44368 -3.28901 1.35607
22.7007 20.0474 26.7837 -1.66525 -2.25774 0.888118
23.0226 16.405 24.9606 -0.935529 1.89231 1.95264
24.7455 18.5123 25.67 1.3075 0.285605 0.340809
23.1593 17.3025 27.6502 0.303852 1.04107 -0.91886
18.4114 22.0448 25.8703 -0.850052 -0.484674 0.955129
19.9173 24.2522 26.3929 -1.86641 0.618427 1.5439
22.127 22.8792 25.6456 1.18429 0.54882 -0.102407
20.4901 21.368 27.3329 1.0476 1.47697 1.78708
19.4972 26.7894 25.6185 1.28427 -0.479929 2.81434
ITEM: TIMESTEP
2000
ITEM: NUMBER OF ATOMS
146
ITEM: BOX BOUNDS ss ss ss
1.1219999459910071e+01 2.9710008569366458e+01
1.1828826143202479e+01 2.8948691494680727e+01
1.1989605914406260e+01 2.9158164216540683e+01
ITEM: ATOMS x y z vx vy vz
21.0835 14.0077 15.2759 0.0384498 -1.49251 -2.0235
18.5845 18.1278 15.224 0.945888 0.400372 0.408822
20.7092 16.6425 14.3672 1.60878 0.117011 1.22268
20.4992 19.2672 13.5534 1.8751 0.215781 0.301097
22.7061 18.732 15.1861 -2.0255 2.28659 -0.0925825
15.9885 22.2804 15.1986 -1.19399 0.144995 1.28297
17.5786 24.3034 15.8902 -0.354756 1.64535 0.31018
18.1144 20.6921 14.2714 0.38386 -1.67844 1.13386
17.7796 23.2067 13.4385 -1.35514 0.123426 -1.03093
19.9224 22.8487 15.0952 -1.4952 1.31258 0.873139
22.2018 21.3224 14.0042 -1.42601 0.158837 0.777929
19.9007 21.7029 12.5846 0.542661 -0.858385 -1.3505
21.542 23.8784 13.0549 1.37106 -0.862174 1.89476
19.3723 24.1385 11.5363 -0.959927 0.840277 -2.6866
24.214 20.8988 15.6939 -0.028883 1.0751 0.610041
23.5221 23.5888 14.965 0.92574 -2.42003 -0.956519
21.5872 24.9825 15.5254 0.586846 1.2564 0.648718
19.4187 25.281 13.9974 -0.238461 0.281789 -0.0445508
15.1823 16.0829 18.8295 0.977611 1.22407 0.581396
17.2922 14.4175 18.0742 0.480395 -0.973545 -1.06679
19.448 12.9636 17.3947 -2.34127 0.541568 -0.093079
21.3856 14.9828 18.009 1.95741 0.406564 -0.188553
21.6882 11.5777 16.4223 0.315039 -1.87271 -1.06724
19.0187 15.3168 16.0728 -1.05367 1.45328 1.28011
19.4314 13.7759 19.8504 0.343957 0.207936 1.50465
21.7033 12.4593 18.98 1.31008 -0.201488 0.576819
23.3695 13.3512 16.8913 1.35827 -1.18826 -1.16068
24.9291 15.6099 17.7747 -1.3675 -1.41933 -1.00357
23.5154 14.4108 19.6154 0.437573 1.61135 0.62294
12.7422 17.3274 19.8419 1.30439 0.426586 0.692337
12.2288 19.9758 18.905 -1.08067 2.4415 1.44109
16.6172 18.1356 19.7969 -1.11355 -1.99542 1.24137
14.2116 18.5716 18.0523 -0.179598 0.639927 -0.0955471
16.8788 16.894 16.9222 2.47938 -1.91942 1.19096
16.3456 19.6256 16.0501 -0.648645 -0.849257 -1.36882
18.7767 16.4474 18.8188 -1.09195 1.81759 0.0990941
20.645 18.7255 19.6464 -1.49899 0.423657 -0.0762574
18.4513 19.0879 17.9081 -0.414318 -2.56606 -0.689787
20.6651 17.4071 17.0953 -0.157513 -0.305472 -1.54358
20.3585 20.1326 15.9314 -0.218682 -1.55143 -2.19282
23.0258 17.1882 18.5954 1.21934 2.48199 -0.637954
24.6586 19.2068 19.5494 -1.87002 -1.779 -0.16193
22.6623 19.6279 17.6445 1.13904 -1.15391 -0.617148
22.7977 16.0381 15.976 -0.197781 0.925384 -0.0276599
24.8154 18.3679 16.6481 -0.375322 -0.673807 0.687042
26.6886 17.6587 18.5181 -0.355394 1.52183 1.18685
28.2899 19.8267 19.2797 0.79543 -1.22709 1.32113
26.5591 20.3838 17.4099 -0.676719 -2.04743 -1.68656
13.7997 22.2234 19.7504 1.7385 1.22426 -0.0442072
14.0496 21.1999 17.1567 -1.78658 -1.05907 1.8956
15.6994 24.3988 20.3818 1.14207 -0.247481 2.09483
16.1128 20.5506 18.6442 0.160404 1.83567 -1.36819
18.0654 22.7375 19.5408 -0.399693 1.94758 0.453877
15.7822 23.249 17.9155 1.04666 0.947932 -0.3208
18.2126 21.7725 16.8442 -1.70518 0.247758 -3.85815
22.4128 20.6823 20.4011 -0.521404 0.381474 0.329967
19.8879 24.7591 20.2039 2.02212 1.12515 -3.09054
20.2326 21.0286 18.6424 0.182102 1.82286 -0.273284
22.0063 23.2717 19.1845 -0.470437 1.9044 0.731622
19.7808 23.879 17.5795 -0.616906 1.31794 1.349
21.9976 22.318 16.7792 0.865039 -1.49585 -1.12258
26.3152 21.3805 20.3097 -0.827928 0.212577 -0.415225
24.1578 21.7533 18.3781 0.344669 1.12159 0.323577
25.9635 24.1159 19.2917 -0.921273 1.4707 1.16545
23.8551 24.4257 17.65 0.400898 -0.182529 -0.04479
25.8709 22.8833 16.7598 0.845419 1.86804 2.2404
29.9617 21.6599 19.8928 4.87039 -0.519712 -1.67044
27.8214 22.4287 18.5844 2.03112 0.419365 -1.56177
17.5749 25.2845 18.5632 1.57823 -0.328146 -1.51897
19.2316 27.2118 19.4378 0.088868 -1.60012 -0.0121717
21.519 25.9581 18.3602 1.00157 -1.50811 -0.851591
19.4275 26.4219 16.7502 -1.57189 -0.14999 1.17074
23.7076 25.2538 20.0839 -1.65466 -1.20017 -0.897094
17.1654 15.285 20.7452 -0.684432 1.21969 -0.125503
19.32 14.9027 22.2216 1.61673 0.333987 1.14923
21.7928 13.5808 21.5092 -0.623663 0.626292 -0.776169
21.3873 14.5844 24.1092 -0.771821 1.79308 2.44448
23.3436 15.7224 22.0945 0.633675 -0.556947 0.514731
10.6972 18.7791 20.7241 -1.69857 -1.05275 -1.92523
12.7197 18.1754 22.5352 2.02892 -1.20004 1.12983
14.4004 19.6503 20.6356 0.664769 -0.584906 -2.03655
14.8163 16.8021 21.4217 0.495697 -0.809616 0.189891
16.533 18.8135 22.3059 -0.437143 -0.980947 1.11767
14.8538 17.5962 24.0503 -1.21245 -1.37476 -0.36279
17.1719 16.2957 23.1401 0.23146 -0.555378 1.07517
18.3818 20.1731 20.5097 -2.20745 -1.08613 0.418891
18.9875 17.4818 21.3705 -0.538754 0.404853 -1.58425
20.462 19.7438 22.2974 1.12123 -0.662838 1.03677
21.2271 16.0531 20.4771 1.71333 0.225608 0.403441
18.6991 18.4298 24.0672 -0.351482 0.63984 -0.264368
20.9104 17.0277 23.2806 -1.22214 -2.75339 -2.07493
22.8057 18.089 21.3943 0.940739 -3.15528 -0.921185
24.5025 20.2275 22.0936 -2.10017 0.101693 -1.681
25.1538 16.5276 20.3715 -0.362151 0.0203124 2.19793
22.7215 19.0592 24.0243 2.79829 -0.699507 -2.2534
25.0846 17.569 23.0166 0.225467 -0.806555 0.0182354
26.8139 18.7526 21.0843 0.633808 -2.26571 2.11771
26.4858 19.7725 23.5506 0.408545 0.53828 -2.20228
11.8959 20.8703 21.463 1.66909 1.46164 -1.63064
14.3029 22.8602 22.3196 -0.00971789 -1.72019 -0.0690138
14.2496 20.3057 23.2531 -0.310316 1.83006 1.82773
16.2207 21.5596 21.1426 2.88991 1.63504 -1.89053
17.9743 23.7171 22.0839 -4.77674 0.380604 -0.738047
16.0321 22.2945 24.0428 -0.281323 -0.30672 -0.0421816
17.7031 24.8304 24.9367 -0.917686 -1.48086 0.252437
18.2536 21.1658 23.1878 0.278685 -0.472386 0.776766
20.3284 22.1229 21.1633 -2.0342 0.758002 1.89225
21.7819 24.3903 22.0227 -0.382486 0.0527288 0.478374
20.1757 23.1946 23.839 0.511488 0.690917 4.16501
22.1542 21.6816 23.1578 1.55911 0.9723 -1.35826
20.3793 20.5269 24.8464 -3.71 2.03222 -0.526544
24.0835 22.7703 21.2221 2.12022 2.13858 1.54437
24.0628 23.8006 23.7862 0.975351 -0.312448 0.205544
26.3683 22.524 22.9423 0.243518 -0.980715 0.519124
24.3812 21.2457 24.6754 3.02531 -0.17931 -2.22928
28.0309 23.4264 21.1723 -3.94459 1.66915 0.649215
28.5134 20.7177 21.9091 0.292645 -1.93473 0.0672743
15.8707 24.9114 23.092 -2.31479 1.27177 0.907615
17.2282 27.2788 23.7763 0.624495 0.855297 -2.2711
17.4371 26.2915 21.2432 -1.61115 0.669159 -1.76488
19.4722 29.1169 24.3927 1.15013 0.678258 0.294007
19.5574 25.7778 22.9309 -3.11656 0.818816 -0.0636736
21.597 27.7697 23.5371 -1.10073 -0.350266 1.596
19.1673 28.3017 22.0096 0.981077 0.906509 -1.27996
21.398 27.0438 21.0082 0.214779 -1.83245 -1.19024
21.872 25.3118 24.6929 3.44288 -0.866846 -0.533975
23.6099 26.1096 22.7582 -2.68943 -0.15785 1.4842
25.9359 24.8552 21.8013 0.0518552 1.40011 -0.637054
19.241 15.6085 25.1261 0.642321 -1.80502 -0.853147
21.4725 15.5455 26.5106 -0.583768 -1.07094 -0.980551
16.2847 19.7351 25.0337 -0.148031 1.69285 0.795026
16.8724 17.3878 25.7863 0.250071 2.25782 0.275054
18.4683 19.5089 26.5929 -1.08745 -2.40318 -1.38235
20.8715 18.1323 25.8583 -0.00202651 -0.0515275 1.2634
18.9283 17.0823 27.2953 -1.14377 -0.0424977 1.18592
20.8521 19.3111 28.1992 -0.268452 -0.250857 -0.671254
21.2086 16.7299 28.8511 0.254605 -2.16014 3.64662
22.8397 20.1959 26.7499 -0.543245 2.51949 -0.145893
23.2609 16.466 24.7459 -0.400705 -0.679572 1.34632
24.839 18.6659 25.5373 -1.61217 0.128662 -0.877983
23.1257 17.6139 27.2867 2.65731 0.86531 0.93757
18.058 22.2523 25.6622 0.400973 -0.793795 0.949209
20.0017 24.1374 26.3176 0.860998 -0.577069 0.244774
22.3617 22.8391 25.5749 -1.18753 0.759589 1.42682
20.4092 21.5897 27.0402 0.7471 -1.76008 -2.21255
19.5477 26.6747 25.6116 0.51157 -0.117009 2.28007
ITEM: TIMESTEP
3000
ITEM: NUMBER OF ATOMS
146
ITEM: BOX BOUNDS ss ss ss
1.1219999459910071e+01 2.9710008569366458e+01
1.1828826143202479e+01 2.8948691494680727e+01
1.1989605914406260e+01 2.9158164216540683e+01
ITEM: ATOMS x y z vx vy vz
21.2012 13.9623 15.4887 -0.257884 2.94987 -0.185427
18.2673 17.9612 15.0037 -1.08936 -0.941114 1.43306
20.6021 16.7273 14.4676 1.09383 0.268667 0.621709
20.2038 19.4735 13.0819 -0.158034 -1.11998 -0.679222
22.5562 18.813 15.0153 -0.175062 2.06213 0.136935
16.1888 22.3621 15.0013 -1.46531 2.47699 -1.30228
17.7095 24.1926 15.8455 -1.88292 -0.619789 -1.35728
18.1569 20.6613 13.9065 -0.556623 -0.202323 -1.29053
17.8691 23.396 13.14 -0.998805 0.107618 1.87561
19.9185 22.7632 14.9236 -0.263566 0.0462811 1.71167
22.1263 21.3944 13.9133 1.40361 1.74488 0.139749
20.1332 22.1973 12.2209 1.88389 0.130284 0.191714
21.5684 24.1363 13.3723 2.30864 -0.598633 -2.96208
19.7276 24.5569 11.5251 -1.18774 -0.928196 0.384283
24.309 20.8395 15.6506 -1.29574 -1.73476 0.995241
23.8736 23.2381 14.6616 -1.52796 0.471595 0.914145
21.696 25.1955 15.7127 -0.474745 -1.37648 -1.23349
19.4699 25.4575 14.027 0.0632736 -0.619741 2.98157
14.9796 15.7322 18.7652 -0.516851 -0.95002 0.283333
17.122 14.4243 17.9367 1.19994 1.32897 2.05567
19.3847 12.7364 17.3248 1.65279 -2.14756 0.512634
21.1673 14.7788 18.0194 -0.171979 2.08375 1.50692
21.6987 11.6002 16.3716 -0.811648 -1.87652 -0.35868
18.9715 15.5304 16.2264 -0.743036 2.21968 1.56565
19.3366 13.5938 19.7435 0.510424 1.91099 -0.35431
21.8143 12.2365 18.9441 -0.933054 -1.36413 0.745883
23.3019 13.527 16.8876 -1.55468 0.265393 -0.638073
25.0249 15.7951 17.7964 0.0530995 -0.619758 0.772039
23.3558 14.444 19.7128 0.243868 0.984815 1.48444
13.4937 17.1525 20.0001 1.41131 -0.949648 -1.32367
12.4159 19.8207 18.6489 -0.25127 1.71393 0.503854
16.4842 17.9094 19.6032 2.29321 0.98793 1.38189
14.4586 18.6188 17.7242 -1.00147 0.0927937 -0.637961
16.6456 16.8182 16.8206 0.0143889 2.13963 -2.29775
16.3761 19.5854 15.542 1.04198 -0.0443545 0.719374
18.6163 16.5616 18.7716 2.04451 0.431106 -0.0723276
20.421 18.6145 19.4911 0.431819 -1.0171 2.0131
18.2455 19.0039 17.5625 -0.388478 -1.29029 -1.56557
20.6771 17.6269 17.0472 1.48121 -0.575294 2.45388
20.1904 20.0995 15.7915 -0.931631 2.89471 2.17076
22.9577 17.1684 18.6265 -1.36467 1.21073 -1.93191
24.5848 19.1322 19.3834 -0.765454 1.65143 1.14771
22.574 19.746 17.5576 -1.8663 1.66025 -1.47441
22.85 16.2016 15.8862 -0.684892 0.166164 -0.700204
24.6539 18.2698 16.7053 -0.0995381 -1.46002 -0.472795
26.6446 17.7412 18.6373 0.280623 0.816051 0.154769
28.597 19.8036 19.4358 0.663407 -1.60254 -0.537566
26.5582 20.273 17.6677 -0.154249 0.756313 2.94573
14.0902 22.1911 19.5749 2.12903 -1.27378 1.92753
14.1366 21.2059 16.951 -1.15979 -0.268583 1.31673
15.9157 24.2152 20.3549 0.995355 -0.0719632 -1.62238
16.0761 20.7478 18.4747 0.543849 0.674043 0.227377
17.857 22.7347 19.2179 0.942664 -0.392994 0.728974
15.6542 23.3368 17.5482 1.23358 0.583975 1.75525
17.8491 21.5306 16.677 1.36467 -4.04229 0.527494
22.5311 20.55 20.3269 0.266893 1.84112 0.65121
19.6915 24.843 20.1581 0.348216 -1.97467 1.64808
20.2064 21.0354 18.3416 -1.02844 2.71262 -0.687025
21.953 23.3606 19.2582 3.32831 -0.979403 0.00588919
19.7164 23.8092 17.6671 -0.26122 -2.62019 0.159289
22.0756 22.2907 16.4307 -1.82442 0.468306 -1.15536
26.2608 21.3133 20.2288 -2.37853 1.31704 -0.072112
24.2211 21.8098 18.2552 -0.223368 -0.634857 1.77671
25.6959 24.2159 19.2899 -2.05484 0.718792 0.0360096
23.6661 24.5501 17.4188 1.99247 0.721109 0.682397
26.0185 23.088 16.679 -1.50819 -1.04693 -0.11975
29.5758 21.9519 20.0343 0.678761 -0.990258 0.829322
27.8062 22.632 18.4306 0.882483 -1.05043 -0.460139
17.5471 25.4012 18.412 0.327933 -2.05998 -2.55672
19.299 27.5647 19.2238 -0.213769 -0.254111 -1.33438
21.2502 26.007 18.3384 0.596415 0.928873 1.27861
19.4446 26.3305 16.5324 1.26726 0.80229 0.577615
23.4994 25.5965 19.9328 -2.92295 1.18343 -0.312414
17.1902 15.1795 20.7143 0.560047 -1.03118 0.8896
19.072 14.9197 22.4298 0.446062 0.429308 1.14569
21.3568 13.4666 21.358 -0.220165 0.988631 -1.03626
21.3464 14.4554 24.0025 -1.60873 -0.597906 0.410847
23.1378 15.5346 22.2912 0.26749 1.77207 0.683441
11.1199 18.4265 20.641 -2.96068 -0.890286 -0.106738
12.8106 18.4675 22.5195 1.43602 0.656236 -1.10865
14.4094 19.4964 20.6032 3.03835 1.34498 -0.364729
15.4533 16.6267 21.7804 -0.327717 -0.879435 -1.04295
16.65 18.9407 22.66 -0.0914938 0.750823 -0.736047
14.8871 18.1048 24.3025 0.0135985 2.29509 0.284325
16.9365 16.3772 23.7948 -0.907429 0.377044 -0.591563
18.28 20.0232 20.1818 0.180487 -0.476633 2.47771
18.6879 17.3479 21.5102 -0.401904 -1.03283 0.928221
20.3991 19.5829 22.31 0.880822 -0.4089 -1.07326
21.0635 15.9795 20.5396 -0.274767 0.589942 -2.37579
18.7241 18.5177 24.2988 2.4481 -1.51592 1.44303
21.1133 17.0572 23.2936 -1.80451 1.96916 -0.396191
22.6545 17.9539 21.2257 1.34744 -0.588925 1.1963
24.2805 20.0756 22.0977 -0.782006 0.441949 0.311589
25.0586 16.6252 20.4961 -1.41392 -0.527995 -1.30931
22.8221 19.0789 24.0653 -4.22424 -1.43903 0.376376
24.9234 17.5381 23.1355 -0.554698 -0.125191 0.0646912
26.8174 18.5687 21.2302 1.1186 0.174044 -0.0300425
26.6683 19.6009 23.7302 -0.515109 -1.25349 -1.28023
12.291 21.0178 21.349 0.393122 -1.29729 -0.115998
14.226 22.8669 22.2479 1.59902 -0.935235 -0.374117
14.4607 20.4589 23.3802 -0.438192 0.201935 0.253558
16.2013 21.4466 21.3609 2.57033 1.81284 0.526152
17.9602 23.5876 22.1228 4.35423 -2.34668 1.64706
16.1962 22.5591 24.0295 0.621393 -1.80853 1.70254
17.8816 24.7962 24.7173 -0.262974 -2.66703 0.614173
18.4567 21.0673 23.1427 1.22085 1.28005 -1.78339
20.1334 22.022 21.0786 -0.555981 0.953827 0.259639
21.7683 24.4298 21.8517 -2.61895 -0.25701 -0.0520219
20.2314 23.2486 24.0035 -0.51137 1.21846 -1.90075
22.2736 21.6732 23.0302 0.127117 0.264095 1.08875
20.5853 20.4087 25.0157 -1.24931 -2.44148 -2.08385
24.0474 22.9108 21.2322 -0.280802 -1.97199 -0.698951
23.8933 23.8757 23.8277 0.693685 -0.690179 -0.433729
26.0982 22.4042 22.8761 1.29273 0.792206 -2.2628
24.6364 21.2015 24.7474 -0.150209 0.873444 -0.528815
27.768 23.3364 21.1273 0.00346862 0.469644 -1.8279
28.1966 20.912 21.8818 -1.29261 0.882193 0.807719
15.8779 25.1196 22.9307 0.353572 -1.13114 -1.18013
17.5378 27.3553 23.873 2.49122 -0.670381 1.01487
17.2818 26.3759 21.0743 0.283256 -0.249493 -0.424867
19.3756 28.9078 24.5652 -0.91666 0.765624 0.866231
19.5826 26.0695 22.8402 0.35071 -0.519242 -1.39112
21.5367 27.7474 23.9203 -0.36082 -0.685542 -0.255928
19.1326 28.5033 21.853 0.742048 -0.797601 -0.236706
21.3631 26.9786 20.8822 -0.271732 -2.38784 -1.12577
21.9447 25.294 24.699 0.714623 1.16969 0.35561
23.3803 26.5245 22.5895 -0.97189 0.295264 1.2132
25.4185 25.0151 21.9886 -1.33399 -1.63572 0.566328
19.3052 15.8161 25.1123 -0.44451 -0.30588 -2.50395
21.3573 15.1189 26.7167 -0.0104842 -0.213709 0.630849
16.4987 20.019 25.2339 1.46067 1.1208 -2.34635
17.3154 17.5107 26.3678 2.5625 1.88726 -1.11332
18.8172 19.7171 26.8237 -2.44183 1.03816 -3.06376
21.0207 17.7855 26.2442 1.99111 1.52495 -1.04585