ITEM: TIMESTEP
0
ITEM: NUMBER OF ATOMS
147
ITEM: BOX BOUNDS ss ss ss
1.2331781486013584e+01 2.8458218513986413e+01
1.2497771555689940e+01 2.8292228444310059e+01
1.2465657771807546e+01 2.8324342228192453e+01
ITEM: ATOMS x y z vx vy vz
18.6586 14.9977 15.4595 -0.184926 2.49 0.0229871
21.6042 14.4588 15.9448 -0.411085 -1.5936 0.122599
23.6905 16.4157 14.9352 -0.149831 -1.7062 -0.565714
15.4055 19.089 14.9265 -1.29631 -0.595063 0.302294
16.2647 16.5932 16.4214 -0.506427 -0.162143 2.97851
18.0919 20.1245 15.1115 2.10795 -0.298536 0.429683
16.9404 19.9893 12.4697 0.074434 1.35677 0.460412
17.7995 17.4935 13.9646 -1.26906 -1.27881 0.992662
19.8859 19.4504 12.955 1.45693 2.36042 0.486016
23.9829 19.0468 16.082 -0.931395 2.31691 -2.84574
21.0374 19.5856 15.5968 -0.0176727 -0.214378 -0.598032
22.8314 18.9115 13.4403 -0.267348 -0.973096 -2.39621
20.745 16.9546 14.4499 -1.57674 -0.803079 -0.967029
25.7769 18.3726 13.9255 1.75709 -0.427802 -0.705612
26.6693 20.0823 16.267 -0.445246 -0.630186 -1.8498
16.0124 22.032 14.5113 -1.14998 -1.36987 1.61229
19.9329 22.3906 15.9346 -1.41011 0.621283 0.406985
18.7814 22.2554 13.2929 1.47211 -1.68937 0.870963
17.8534 24.2981 15.3344 1.03553 0.446561 -1.22098
22.8784 21.8517 16.4199 1.12243 -0.373249 0.121511
23.5679 23.9826 14.6013 -0.557343 0.0456275 0.696673
21.7269 21.7165 13.7781 -0.425528 -0.683349 2.6152
24.6724 21.1776 14.2634 -1.38345 -0.37281 -1.83616
19.6944 26.5641 16.1576 -0.891863 0.0529805 0.374664
22.4634 26.7875 14.9391 -2.10899 2.18729 0.21194
20.6224 24.5214 14.116 2.17718 -1.27965 2.25876
14.7298 15.6929 18.8781 1.14074 0.405725 0.863092
19.8102 15.1329 18.1013 -1.12708 1.10687 -1.22785
19.5178 12.5019 16.9544 -0.198207 -0.58375 -0.912287
17.1238 14.0974 17.9163 -0.374905 -0.372391 0.113588
19.1207 13.0021 19.9199 -0.333004 2.18326 -0.0671994
22.1822 15.8565 19.8483 -2.12993 -0.293945 -2.3642
21.8897 13.2254 18.7015 -0.0027553 0.834853 1.20053
23.9761 15.1824 17.6918 0.867548 -0.105876 -0.0946579
26.3481 15.9059 19.4389 3.79805 -0.677659 0.100352
15.0222 18.3239 20.025 1.12387 -0.194375 0.783381
12.3359 17.2884 19.84 -1.75478 0.0514737 -1.1188
13.8707 18.1887 17.3832 0.495268 -0.736645 0.798432
12.9427 20.2314 19.4248 -0.0730343 -1.36646 -0.807527
20.1026 17.764 19.2481 -0.202877 1.78474 -1.84331
17.7086 19.3595 20.21 -1.79358 1.43753 0.318775
19.2435 20.2598 17.7532 1.46575 0.57605 0.37959
17.4162 16.7284 19.0631 1.14988 1.69952 -2.11067
18.951 17.6287 16.6064 -0.598358 0.356896 2.03772
16.5571 19.2242 17.5682 -0.385956 -0.877505 -0.374487
22.189 19.7209 18.2385 -0.079859 0.681591 -0.0298132
24.2685 17.8134 18.8387 1.18282 -0.522335 -1.49303
21.8966 17.0898 17.0917 1.6166 0.127848 -1.18653
26.0625 17.1393 16.6822 0.910547 0.198357 0.689051
26.9549 18.8489 19.0237 0.382697 0.830229 0.125628
16.2359 24.2099 19.1946 1.02295 0.565614 1.15047
15.6291 21.2669 19.6098 -1.54817 -0.558415 -0.759796
13.5495 23.1744 19.0096 0.587374 0.641374 -1.65654
15.0843 24.0747 16.5529 -0.727162 1.64726 -0.783673
14.4775 21.1317 16.9681 -0.935554 -0.480278 -0.688702
18.3154 22.3025 19.7948 0.855639 -0.235753 -0.25304
17.1639 22.1672 17.1531 0.941081 -1.57204 -1.9477
21.0845 22.5258 18.5764 0.427875 0.573407 -1.29504
23.7708 23.5614 18.7614 -0.551488 -1.25616 -0.278817
24.8753 20.7564 18.4235 -1.91129 -1.19304 0.993981
27.5617 21.792 18.6085 0.637763 0.304364 -1.71879
25.5648 22.8873 16.6049 0.620847 -0.61865 2.22238
14.1563 26.1174 18.5945 -0.0345833 -0.21103 -0.394928
19.0049 24.4333 17.9762 0.712742 -0.967184 1.73334
16.5283 26.841 20.3415 -1.0685 -0.519176 2.0531
16.9253 26.3408 17.376 -1.13993 0.210156 0.473899
19.2973 27.0644 19.1231 -0.972652 -2.26406 -0.430409
21.7739 24.6567 16.7578 0.851768 -0.718031 1.01728
21.3769 25.1569 19.7232 -3.04515 -1.89691 -0.496809
22.0663 27.2877 17.9046 1.23259 0.62402 1.1659
24.0632 26.1924 19.9082 -0.406706 -0.521985 -1.82722
26.4572 24.5969 18.9464 0.222541 -0.133331 0.640247
24.4603 25.6922 16.9428 0.949339 -0.0843409 -0.0258109
14.3328 16.1931 21.8436 -1.04221 -0.948616 1.48044
16.3297 15.0978 23.8472 -0.707014 -0.698573 0.158412
19.0161 16.1333 24.0322 1.0524 0.515599 -1.17089
19.4131 15.6331 21.0668 0.026124 0.949808 -1.12228
18.7237 13.5023 22.8854 -0.0545051 -0.976415 -0.00917398
16.7268 14.5976 20.8818 -1.03238 -0.376241 0.758692
21.7851 16.3567 22.8138 -0.496329 0.473378 -2.32579
24.2617 13.949 20.4485 0.0492846 -0.276563 1.87802
23.8647 14.4492 23.414 -1.13819 -0.109019 0.347547
21.4927 13.7256 21.6669 -2.18424 1.52976 -0.503303
26.6337 14.6726 22.1955 0.312978 -1.36245 0.431065
15.9147 20.0336 22.3665 -1.34188 -0.616438 -2.15496
13.2283 18.998 22.1815 -1.54356 -1.45997 0.1802
15.2252 17.9027 24.1851 1.50833 2.06714 -0.564439
19.7055 18.2642 22.2136 -1.3701 1.28883 0.800736
17.0192 17.2286 22.0286 -0.72913 -0.0902906 -2.06652
22.4746 18.4875 20.9952 -1.4917 -0.344294 0.29475
23.6261 18.6228 23.6369 -0.100699 0.257818 1.48626
24.5541 16.5801 21.5954 -0.611498 0.0479961 -0.502178
25.1609 19.5231 21.1802 -1.25615 0.430036 0.242298
27.2405 17.6156 21.7804 -0.314671 -1.08488 0.510542
25.7057 16.7153 24.2371 -0.138644 1.52291 0.82903
26.3125 19.6583 23.8219 0.784651 -0.497345 1.54986
14.7275 23.6507 24.1078 -0.987196 -0.0223445 1.40408
13.8351 21.9411 21.7663 -0.0434516 -1.82638 -0.323962
18.601 21.0691 22.5515 0.864761 -0.00897153 0.490853
18.8934 23.7002 23.6983 1.85906 -0.726198 -0.103982
16.5215 22.9766 21.9513 0.350486 -2.0462 0.130293
20.395 20.395 20.395 1.16935 0.508397 0.873672
23.0814 21.4305 20.58 0.96726 0.264151 -0.282456
20.6874 23.026 21.5419 1.98168 -0.782316 -0.519012
21.5465 20.5302 23.0368 1.20379 1.12377 0.168706
23.3738 24.0616 21.7269 0.0587985 0.360596 1.08818
24.2329 21.5658 23.2218 -2.28945 -0.383196 -0.631937
21.839 23.1613 24.1836 -1.91629 0.412843 -0.450735
25.7678 22.4661 20.765 0.0882807 -0.147343 0.965195
28.4541 23.5016 20.95 0.602165 0.263165 1.56805
26.9193 22.6013 23.4068 0.951274 1.61313 -0.376355
27.8473 20.5586 21.3652 0.0910945 -0.369158 -0.877892
14.4419 24.8841 21.3511 1.44705 -1.34535 -2.31959
18.6078 24.9335 20.9417 0.856075 2.1429 -0.429852
18.9003 27.5646 22.0885 1.59456 1.04337 0.365712
16.8139 25.6076 23.0982 -0.252946 -1.28506 0.820371
20.9798 25.6571 22.6887 0.466095 0.0196398 -0.541851
21.2722 28.2881 23.8356 0.502387 0.613831 1.52312
23.6662 26.6926 22.8737 0.269098 0.95737 1.17829
21.6693 27.7879 20.8701 0.240347 1.34108 0.604024
26.0602 25.0971 21.9119 0.27626 -0.587383 -0.460104
18.3266 14.0025 25.8509 -0.880064 -0.0825168 0.877515
20.1676 16.2686 26.674 0.99382 -0.313999 0.17324
21.0956 14.2259 24.6324 1.02777 0.512138 0.726605
16.1176 19.6124 26.5266 -0.675325 0.373365 -0.0308582
17.9116 18.9383 24.3701 0.32329 0.796307 -1.29174
17.2221 16.8074 26.1887 -0.381241 0.495599 0.867132
19.0631 19.0735 27.0119 0.928969 2.17117 -0.757037
20.8571 18.3994 24.8554 -1.1754 -0.64545 -1.50926
22.0086 18.5346 27.4971 0.241318 1.80253 1.94758
22.9366 16.4919 25.4556 0.969966 -1.3058 0.127674
24.7776 18.758 26.2787 -1.153 -0.274992 1.97155
15.0131 22.4174 26.8645 -0.786619 -0.246906 1.84072
14.1207 20.7077 24.523 0.170866 -1.95546 -0.671272
16.8071 21.7432 24.708 -1.46718 -0.73033 -2.39423
19.7526 21.2044 25.1932 2.69568 -1.20201 -0.74341
17.9586 21.8785 27.3497 1.33899 -0.170885 -0.180926
20.045 23.8354 26.3401 -0.349649 0.162992 -0.224529
22.6981 20.6655 25.6785 0.0926742 -0.532893 0.290006
23.8496 20.8007 28.3203 0.805705 2.48684 -3.34989
22.9905 23.2965 26.8254 -1.55561 0.97123 1.30969
20.9041 21.3396 27.835 0.936534 0.707625 1.03136
25.3845 21.701 25.8635 -0.159476 -0.454486 -0.249806
24.5253 24.1968 24.3686 -0.541791 1.56203 -0.829682
19.1858 26.3312 24.8452 1.13835 1.02679 -0.257569
17.0995 24.3743 25.8548 0.160922 -0.873586 1.39715
22.1314 25.7923 25.3305 0.747941 -0.962295 0.886898
ITEM: TIMESTEP
1000
ITEM: NUMBER OF ATOMS
147
ITEM: BOX BOUNDS ss ss ss
1.3192498002907532e+01 2.7864989570269589e+01
1.3171857441725153e+01 2.7554122041629078e+01
1.2995064135025007e+01 2.7463442908945304e+01
ITEM: ATOMS x y z vx vy vz
18.7424 15.3556 15.7958 1.66374 -2.28846 -0.413015
21.5892 15.0749 15.9937 -0.991143 -3.11253 -0.915843
23.2881 16.7134 14.6635 0.977274 0.429216 -1.15605
15.7925 19.2209 15.0439 1.62146 0.931925 -2.89646
16.252 16.784 16.5419 0.303458 0.691588 2.37338
18.4398 20.3854 15.3555 -2.02114 0.126676 -0.417487
17.4094 20.0309 13.1166 -2.17233 -0.823822 -0.566666
17.856 17.5279 14.5136 -1.50196 -0.866152 -0.167361
20.0676 19.3941 13.3399 -0.488173 1.435 -2.1108
23.722 19.0663 16.248 -0.563522 -3.25526 -1.14306
21.1994 19.6081 15.7152 2.38169 -0.441672 -3.62586
22.8364 19.0299 13.7171 0.891052 -1.3558 -0.195685
20.4325 16.8558 14.435 2.69508 -0.912382 0.863499
25.3706 18.6251 14.3534 -1.3045 0.442873 -2.8212
26.2505 20.1775 16.5624 1.93408 -2.0355 -4.69267
16.0297 22.1289 14.7442 -2.06533 -1.92692 -3.65477
20.0032 22.3343 16.0611 -0.472226 1.96163 -2.57855
18.8306 22.3645 13.4455 -2.72428 -0.873047 -0.92866
17.7244 24.0926 15.1686 0.611353 -2.76344 -0.621792
22.8896 21.6522 16.4252 2.30985 1.12228 -2.77347
23.5137 23.6922 14.9781 2.4104 2.05431 1.35045
21.8395 21.6724 13.798 2.01935 -1.36748 -0.852076
24.5615 21.135 14.2665 0.626577 -3.13062 -3.33717
19.553 26.3195 16.4799 -1.48214 -0.159594 -3.97559
22.3163 26.2498 15.037 0.607647 2.93621 -0.0344441
20.7566 24.4914 14.2988 2.52951 3.78379 0.558248
15.0195 15.694 18.9303 -4.27927 0.00630504 1.25071
19.8185 15.3195 18.4642 0.764046 -3.00876 -0.558432
19.5764 12.9506 17.2604 -0.181697 1.18305 -0.34048
17.3112 14.5293 17.9693 1.61757 -2.67771 -1.907
19.2615 13.171 20.0526 0.773349 -1.73485 -3.98585
22.2148 15.975 19.925 2.28609 -3.21691 -1.50164
21.7691 13.4417 18.8868 -2.08299 -0.308522 0.000594175
23.9586 15.2204 17.794 -0.122801 0.366175 -0.513641
25.9368 16.1648 19.4274 1.40454 -2.45711 0.892122
15.3335 18.5639 19.9055 -2.25646 -0.607481 1.68846
12.8569 17.3673 19.7237 -1.84609 -2.11949 0.404802
14.0162 18.2946 17.6142 -2.79921 -1.58364 2.09684
13.3641 20.3439 19.6815 -3.52303 -2.43373 -1.38899
20.2476 17.8512 19.3216 1.33766 4.59453 0.556208
17.9069 19.5336 20.1392 5.10816 1.59802 1.26269
19.4747 20.4359 17.8473 2.74996 -0.0331557 1.34441
17.3497 16.8061 19.0905 -2.20621 -3.51571 -0.800358
19.1495 17.7433 16.6607 0.507576 0.34436 -5.71905
16.7819 19.2678 17.4326 -2.29358 -1.98028 -4.42741
22.1108 20.0138 18.3484 -0.031097 2.13561 2.14042
24.1916 17.8767 18.9222 3.31328 -1.28119 2.8414
21.8819 17.138 17.1772 0.371444 -1.34962 -2.96771
25.7498 17.1333 16.9526 2.57711 -0.483249 -0.871606
26.9634 18.824 18.9625 -0.208119 -1.51806 -2.07332
16.4685 24.1183 19.4322 -2.06403 3.32864 -3.06039
15.7882 21.4134 19.5264 -3.25229 0.538852 -1.30724
13.8962 23.0363 19.3292 -2.44871 3.81162 -2.21738
15.3932 23.9034 16.4721 0.0542382 4.6772 1.6311
14.5245 21.0984 17.1234 0.119881 -0.311136 1.47884
18.5935 22.1972 19.6994 0.814754 -4.71428 2.04655
17.203 22.2434 17.172 -2.4305 1.64716 -1.07438
20.937 22.4582 18.5999 0.365667 -1.71928 3.68021
23.6213 23.4211 18.9349 0.0354857 2.04681 -1.43155
24.7007 20.6555 18.3813 2.72853 0.5286 -0.636016
27.3056 21.7326 18.6558 1.00209 1.3778 2.03022
25.3824 22.9029 16.6583 1.79546 0.531404 -1.59908
14.3702 25.6863 18.9701 0.461725 0.626876 -1.32495
18.9941 24.494 18.0482 -0.594986 2.03881 -3.77277
16.7874 26.7446 20.2807 -0.184001 2.16209 -1.3643
16.9514 26.0936 17.2883 -1.47324 1.8345 0.932922
19.0931 27.1306 18.9385 -2.80182 0.71863 0.987658
21.6544 24.2248 16.8247 -1.63396 1.08782 -1.5291
21.1228 25.2167 19.7117 -0.40329 4.98113 2.46909
22.272 26.6736 18.0925 -0.00383674 0.327529 -3.35267
24.0042 26.0351 19.8916 -0.539825 0.083856 -0.330132
26.3164 24.5282 19.1166 0.517112 -0.93624 2.82066
24.2714 25.172 17.0315 -1.07055 2.92047 -3.74727
14.6361 16.3235 21.6305 -0.644515 2.12518 -2.10603
16.5571 15.1884 23.4978 0.534109 0.235452 1.87078
19.1068 16.4921 23.8118 -0.608181 -0.922934 3.88872
19.4635 15.5563 21.2329 -1.57002 -3.85984 0.793276
18.7775 13.7809 22.9518 -2.521 -1.78645 3.72566
16.8162 14.4473 20.903 -1.48149 0.948866 0.574952
21.7026 16.4637 22.7458 -1.15168 -1.74764 2.48788
24.1763 14.337 20.5372 4.01479 -1.09371 2.29619
23.5315 14.6492 23.3683 2.21322 0.147117 -1.13573
21.5553 13.7894 21.8173 1.11609 0.598238 -2.65959
26.1667 15.0438 22.0141 0.640817 0.94236 0.613661
15.8371 19.9509 22.272 -3.34538 1.29916 1.76601
13.4513 18.8103 21.9536 -1.6694 -4.40418 -2.03738
15.3719 17.8148 23.9895 0.0156231 -1.7382 1.74411
19.8359 18.287 22.0599 1.95481 3.42131 -4.65096
16.9677 17.2749 21.9446 -2.80212 -3.21024 1.27642
22.319 18.6109 20.8591 -2.59582 1.33189 -3.48662
23.6448 18.4943 23.6146 0.161531 -1.23812 0.854829
24.3461 16.8866 21.5779 4.14957 -0.65585 1.5117
25.0357 19.5317 21.291 4.49155 -0.872403 2.43729
27.1671 17.5658 21.6595 -2.1864 -2.91417 2.3559
25.7386 16.9362 23.9947 1.19002 -1.38698 -2.4598
26.0148 19.6549 23.8138 -0.562816 -1.01126 -0.256843
14.9815 23.6529 24.0521 -0.889715 1.21959 1.58278
13.8856 21.7948 22.0119 -0.419562 0.625698 -0.0807266
18.538 21.1719 22.2959 4.00354 -0.65349 -1.87384
18.9915 23.6361 23.9065 1.09631 1.56648 3.87542
16.3823 22.8121 21.9094 -3.02674 3.14049 0.216186
20.4175 20.4299 20.5452 0.613389 -1.39321 0.19814
23.0086 21.2496 20.7415 -5.488 -2.88264 1.42188
20.3442 23.0006 21.5637 -0.551453 -4.80887 -0.900508
21.4123 20.3585 22.954 -1.9889 -2.36445 -3.41109
23.1672 24.0082 21.6212 1.7746 1.38869 1.74969
23.9524 21.6194 23.15 3.42252 1.43675 0.676656
21.6962 23.1308 24.2223 -2.30263 0.195412 2.78847
25.4819 22.3177 20.6623 2.20812 0.943947 -0.199726
27.9863 23.0818 20.8584 -0.204478 1.54077 -0.304215
26.5442 22.4306 23.3066 0.408543 0.756474 -0.0191371
27.3773 20.5403 21.3757 0.34126 3.46686 0.748756
14.5409 24.7651 21.3811 -2.8743 2.4462 -1.85193
18.5663 24.987 21.159 -0.614749 3.19511 2.20723
19.136 27.4864 21.5448 1.38117 3.88263 1.14996
17.0415 25.6106 22.9412 -1.86167 0.296708 -1.8613
20.8669 25.3811 22.6849 2.95193 0.0802912 1.62206
21.024 27.8277 23.6388 3.38646 3.299 0.159372
23.5507 26.4973 22.881 -0.944925 1.34264 2.82008
21.7888 27.5599 21.0135 1.39261 1.27285 0.961129
25.5572 24.7642 21.9351 0.267255 -0.519363 -0.10543
18.5759 14.4869 25.5184 -1.15309 -0.0487061 0.299197
20.3211 16.4723 26.5244 0.189365 -2.06499 -0.499352
20.9602 14.6129 24.5745 -3.08833 -0.344018 1.605
16.3791 19.5584 26.1557 -1.46583 2.04003 -0.260806
17.8719 18.9722 24.0252 -0.571704 -0.589772 1.70935
17.2628 17.0238 25.9396 0.00823175 -3.04569 -0.00819608
19.2373 18.9434 26.9293 0.128927 -1.22333 -0.378432
20.9028 18.4041 24.8419 1.47075 -1.56471 3.58372
22.0373 18.8292 27.3189 1.01365 1.53653 1.25705
23.0167 16.5914 25.5053 0.276449 -0.0276847 1.74669
24.6697 18.4212 26.051 1.10844 0.0197699 3.28592
15.4978 22.4441 26.4828 -0.650257 -2.20967 1.45424
14.5105 20.4743 24.3267 -0.306024 0.470882 5.08435
17.0958 21.8395 24.2767 2.38658 1.60582 1.78074
19.6929 20.9274 25.2029 -2.70609 -0.446968 3.44002
18.2381 21.7976 27.0387 -0.459831 -0.86426 0.760976
19.9568 23.8913 26.3962 -1.81579 0.851295 -0.34661
22.6194 20.4567 25.3136 0.811401 0.0296748 1.41477
23.8819 20.8879 27.4461 -1.34608 -1.28987 2.36408
22.7135 23.0874 26.5777 3.43759 -1.58418 2.15187
20.8448 21.189 27.5437 3.84526 0.0638917 1.42306
25.3974 21.6323 25.4591 0.494249 0.42002 1.48822
24.2901 24.1586 24.3916 -1.5049 -1.04012 -1.19167
19.0431 26.0693 24.5509 1.3306 3.18907 0.818336
17.2186 24.3336 25.8323 -1.1318 -1.85628 3.21164
22.2076 25.7336 25.1773 0.504435 6.18086 -1.18856
ITEM: TIMESTEP
2000
ITEM: NUMBER OF ATOMS
147
ITEM: BOX BOUNDS ss ss ss
1.2605667441697957e+01 2.8452872569243311e+01
1.2954252253701192e+01 2.8099681984588347e+01
1.2536366383024918e+01 2.7901171169503929e+01
ITEM: ATOMS x y z vx vy vz
16.2055 16.6212 16.7713 0.628091 0.758207 -0.469234
18.7146 15.1406 15.9029 1.03305 1.31898 -1.80712
18.0751 17.8071 14.0139 1.79023 -0.213927 -0.0497721
19.2653 13.2575 17.1561 -0.715826 3.73923 3.5674
16.9972 14.4447 18.3537 1.98691 1.40274 1.97631
18.6777 17.6614 16.8051 0.573186 2.38583 -0.474225
21.426 14.6809 16.144 -0.575901 2.83837 1.42258
23.6262 16.8206 14.9664 -3.74753 -1.54683 3.0812
20.7215 16.8006 14.6969 -4.00623 1.24402 1.96562
23.5555 15.6515 17.706 1.39247 -1.47334 -0.8774
21.4916 17.1174 17.1199 0.972509 0.0264763 0.357268
25.8206 17.5931 16.8652 -1.53001 0.919466 -1.97018
15.8771 18.9107 15.2459 0.849307 0.134829 -1.87237
16.2328 21.635 14.6667 1.02891 -1.00721 0.881586
14.0239 18.2594 17.3859 -1.43074 1.84517 0.936255
14.4729 21.1747 17.0924 -1.04493 -2.41061 -0.644118
18.3273 20.2484 15.3168 1.06868 -1.12409 3.12103
17.4479 19.9354 12.9679 3.55655 -0.974697 7.16599
20.2137 19.9174 13.1694 -1.61335 0.481942 -0.112254
20.0747 22.1948 15.9504 1.14038 1.97907 -0.984906
18.7865 22.0844 13.4713 -2.88391 0.634098 1.18622
19.4713 20.1325 17.925 0.638707 -0.51258 -1.1632
16.4936 19.2256 17.5766 0.845596 0.910543 0.959653
17.2101 21.9172 17.277 1.54743 -3.4088 -0.57782
23.4277 19.1327 16.328 -0.879135 -1.07527 0.511052
20.8119 19.3505 15.6745 2.25096 -0.0722898 1.83917
23.0835 19.4576 13.8068 1.27998 0.530464 0.133193
22.8748 22.0155 16.6315 -0.214441 -2.81344 -0.804341
21.8624 21.6766 14.1785 -0.819255 2.17352 -2.81425
25.5434 18.7052 14.6441 -2.78545 1.32005 0.300879
26.2998 20.3359 16.5634 -1.67134 -1.64688 0.279059
24.5801 21.319 14.6427 0.89446 1.58659 0.445442
25.7433 22.7698 16.9174 1.67376 0.543516 0.74893
15.0372 23.8253 16.9469 4.09156 0.907085 1.66397
17.7727 23.7331 15.4103 2.00503 -1.39435 3.73023
20.0479 26.2882 16.2263 1.93189 1.2423 -0.595663
19.3149 24.1001 17.6918 -1.13811 0.423987 -0.623671
16.9632 25.4749 17.7335 1.55485 0.613255 0.838845
23.283 24.099 14.4418 0.745187 -1.53621 3.18276
22.7992 26.5957 15.4496 -0.970746 -4.2063 2.32039
20.4922 24.3168 14.2626 0.298258 -2.05941 1.96914
21.7689 24.4665 16.6711 -0.550353 0.649716 0.941839
22.1805 27.2978 17.739 -3.13422 -0.69609 1.45094
24.4755 25.4549 16.9011 -1.09989 -1.85773 0.603083
14.8503 15.9342 19.052 -0.0146013 0.62396 -1.80418
12.9038 17.7553 19.6878 4.24525 3.06887 0.647288
14.5979 16.3612 21.7746 1.13294 2.47382 -1.64696
19.8593 15.2602 18.4879 -1.81222 3.38576 3.32723
18.894 13.1047 20.2671 1.11634 4.04157 2.64341
17.3056 16.8789 19.3589 1.40111 -2.00102 0.922695
19.2171 15.7503 21.1799 0.134208 -1.34441 0.774007
16.6456 14.5862 21.0434 0.138165 -3.72446 -0.309737
17.0104 17.4436 21.9064 1.76458 -0.558428 -1.99885
22.0177 16.2675 19.7005 -1.57566 2.07336 -0.0711777
21.8275 13.5704 18.772 -0.641108 1.9969 -1.94609
21.5179 13.9948 21.5557 0.320193 0.63895 1.35333
25.9181 16.032 19.0958 -3.01672 -0.348682 0.158422
24.2239 17.9339 18.8754 -0.263012 1.75363 -2.50485
23.9919 14.4487 20.1851 -1.572 5.46736 -0.670502
26.0766 15.1148 21.9584 -1.8934 2.36294 -0.602384
24.3483 16.7724 21.603 0.0257534 2.72038 0.376854
26.8261 17.7279 21.7038 -1.95511 -0.350412 -2.88986
15.2272 18.4959 19.9371 2.24285 -1.35773 -1.66495
13.0781 20.0249 19.1235 0.744242 1.68854 1.81644
15.5902 21.1462 19.6651 -0.865997 -0.246286 0.919317
15.8626 19.9508 22.0826 3.14591 3.79935 1.6344
13.5395 19.1018 22.1447 1.91106 -0.626275 -0.361803
14.0251 21.9252 22.0071 0.401576 -2.38826 2.0153
20.0244 17.9215 19.3457 0.0463465 5.18161 -0.300884
17.907 19.5876 20.1615 1.12262 -0.150633 1.382
18.5664 22.1901 19.772 -1.66055 -1.40685 -0.215068
19.814 18.3678 22.0082 -2.54729 0.843341 0.165511
18.6123 21.1191 22.4163 2.51197 -1.09356 0.268375
22.1291 19.8168 18.2859 0.496974 0.0873438 1.74772
21.1142 22.4122 18.5887 0.673774 0.46538 1.70325
22.461 18.6776 21.1679 -4.76302 -0.687052 1.94024
20.5528 20.2773 20.4348 0.929069 -0.388994 -0.568611
23.078 21.475 20.7428 -3.673 3.29234 -0.04992
20.6693 22.968 21.3472 0.351653 1.14662 -1.07035
26.823 18.9131 19.0085 -0.368591 -0.820524 -0.572846
24.6302 20.8362 18.6234 1.08174 -2.19833 0.0824116
27.5108 21.7522 18.4671 -1.60633 -1.74093 -0.0737435
25.1033 19.5053 21.2217 -0.525842 -0.293368 -0.603894
25.731 22.3197 20.5625 0.833173 1.39218 0.14055
27.6542 20.3278 20.8401 -1.58039 0.600183 0.559034
16.2886 23.8012 19.3235 -2.15054 0.284764 -0.568695
13.7817 22.9768 19.8002 0.776923 -0.142596 -1.43768
14.4702 25.3462 18.8976 1.20606 -4.60913 2.10732
16.6643 22.8576 21.7355 -2.96695 0.0874259 -1.58685
14.5661 24.7824 21.3672 0.703345 -1.51631 -0.935091
16.7919 26.6427 20.0214 -0.194266 -0.873155 0.0688243
19.5057 26.9137 19.5149 0.956162 -0.243689 1.29201
18.8348 24.7184 20.6166 -0.115943 -2.28888 -2.20833
18.6578 26.9254 22.4068 -0.00405611 -4.51268 -1.0863
23.5996 23.5625 18.9789 3.81658 -2.10465 1.91022
21.5992 25.2718 19.7389 1.3103 -1.09275 1.79261
23.9784 26.1947 19.8587 0.729639 0.818362 0.533083
23.9126 24.1969 21.629 -0.618751 -2.96125 0.409626
21.0161 25.3036 22.6659 0.269269 -1.64879 -0.388374
21.3002 27.6529 21.2421 -1.80604 -1.593 -0.831983
25.9649 24.6044 19.1151 -3.42924 -1.05493 0.048616
28.2087 23.3044 20.2583 -4.6527 0.503486 1.77792
26.4337 24.5184 21.6905 -0.52484 -2.66973 0.367792
15.5228 18.0637 24.0042 -1.92196 0.323895 -1.49578
16.5605 15.1963 23.4869 1.34315 1.91033 1.43501
19.2281 16.3896 24.0099 1.34057 -0.47062 -1.62753
18.8406 13.8783 22.8466 0.536703 1.53717 0.225738
18.7439 14.5349 25.423 2.69513 3.38551 -2.13165
20.3544 16.2467 26.6701 -0.732924 2.08525 -0.364319
17.3959 16.9217 25.7908 1.35306 0.623147 -0.355362
22.1473 16.4122 22.9365 3.71835 -0.512595 0.484395
23.9559 14.5324 23.154 -1.83578 0.216075 -0.227358
21.3813 14.3527 24.4291 -0.525162 1.69767 -0.671401
22.7065 16.76 25.5826 1.54828 -1.11228 0.977182
25.5588 16.7418 23.9723 -2.79532 1.5658 0.925572
16.2077 20.0225 26.1963 2.60403 -1.31157 0.372725
15.1782 22.4654 26.0357 3.44786 0.438542 0.135483
14.1276 20.5267 24.3263 1.72507 -1.90096 -4.29307
18.1913 18.9797 23.971 -1.64557 0.449196 -1.37642
18.8884 18.9374 26.9631 -1.58074 -1.19906 -1.09797
16.9744 21.5484 24.4372 0.412802 -1.59683 -0.871634
19.4222 20.9751 25.2581 -0.623657 -0.37777 -2.09683
17.7595 22.3365 27.0103 2.63346 -2.05807 -2.13963
23.671 18.7547 23.4982 -1.85983 -0.175132 -0.987333
21.1963 20.4349 23.0185 1.8536 -2.46337 1.70783
20.6941 18.5191 24.9381 0.611685 0.159863 -2.75244
21.6854 18.4004 27.4026 0.556216 -0.246012 -1.97383
22.6171 20.7401 25.3381 -1.44013 -1.04891 -0.0412752
23.5818 20.9244 27.7489 -3.41108 -0.282473 -1.70199
22.911 23.1769 26.7505 0.913068 -0.537658 -0.995197
20.7566 20.743 27.4529 0.113098 1.52926 -1.80684
26.3534 19.6594 23.9043 -0.739565 -0.855351 0.763672
24.2413 21.5237 23.2807 -2.67617 0.11155 2.26493
26.9706 21.8549 22.7496 -1.02599 -1.59629 -0.404604
24.6232 19.0536 26.1366 0.295451 1.17826 -1.66757
25.0237 21.8765 25.9945 0.216609 1.03979 -2.87474
14.9903 23.425 23.8229 2.22788 3.00909 -2.51215
18.8723 23.5647 23.6941 3.12489 -0.0912563 -0.220008
16.8346 25.2735 22.6202 -1.73205 -2.27884 -1.19376
20.0861 23.5875 26.1378 0.784752 0.247965 0.691851
19.5754 26.2521 25.0672 -1.56575 0.108079 -2.29084
17.126 24.2382 25.3661 -0.834489 0.881609 -2.21486
21.8451 22.9746 24.1878 -0.564301 1.00954 -2.95376
20.6005 28.0391 23.5782 -1.9836 -1.72365 -1.85419
23.1971 26.4696 22.7165 -0.0725712 -0.31641 -1.34949
24.5104 23.9103 24.3425 -0.128652 -1.3164 0.0425297
22.0754 25.5767 25.3831 0.931338 -2.37617 0.861506
ITEM: TIMESTEP
3000
ITEM: NUMBER OF ATOMS
147
ITEM: BOX BOUNDS ss ss ss
1.3035413297520213e+01 2.8103245276936164e+01
1.2700774569296236e+01 2.7850837906219628e+01
1.2802039462595648e+01 2.7645697660640160e+01
ITEM: ATOMS x y z vx vy vz
16.2889 16.6842 16.6613 1.01546 0.421578 0.124058
18.8282 15.4338 15.7825 -0.0827702 -1.54361 2.06462
17.6396 17.9373 14.0725 1.05764 0.928653 -2.25652
19.711 12.8293 17.2523 -0.8279 2.58525 1.13485
18.8816 17.8346 16.7849 0.249993 0.589095 -0.750492
21.3325 14.3324 15.8506 3.70298 1.24645 3.58874
20.5676 17.1013 14.5958 3.62749 0.965563 1.28895
21.8235 17.3126 16.984 -1.12051 0.133868 -0.368381
23.3169 16.6977 15.0281 0.923384 1.42203 -1.16644
23.408 14.8732 17.6048 -1.74971 0.248119 -0.996473
25.3756 16.8876 16.8877 0.606417 2.21514 0.813243
15.6722 18.9977 14.979 0.288036 -0.950475 -1.16839
16.3786 21.8359 14.7612 0.959195 -3.00847 -0.228236
13.9636 18.2274 17.2265 1.04825 -1.32076 -1.27887
14.4591 20.7807 16.9449 2.3548 1.89127 1.38619
17.4883 20.2676 12.9159 -1.72475 -0.209453 1.35711
16.6219 19.2402 17.5123 -2.02234 0.653889 -0.00138665
16.9963 22.0479 17.3322 2.5721 3.33765 -1.67892
18.4246 20.0913 15.2628 0.312893 -0.288758 0.957157
19.9294 19.3942 12.895 1.15073 -3.25154 -3.63956
19.8795 22.34 15.9934 0.0276423 -1.16062 0.705468
19.0152 22.4693 13.3262 -0.0722965 1.56972 0.545328
19.2394 20.6642 18.0052 1.93601 0.73608 -0.0993826
21.0561 19.805 15.6678 0.210307 0.260629 0.848439
22.6458 18.8933 13.8647 0.705443 -0.913123 -1.23557
21.9593 21.5541 13.8079 1.421 0.384841 1.1738
23.8342 19.4557 16.5558 0.329727 0.149664 3.52458
22.9032 21.9419 16.5481 0.760715 0.327643 0.0836733
25.4052 18.6628 14.2177 -0.567258 -0.530448 -1.20246
26.3279 20.2511 16.6911 -2.07752 0.246204 -0.344181
24.6106 21.0132 14.6387 -0.841476 0.512277 0.9056
15.4648 24.0403 16.6665 -3.11253 1.44748 1.25125
16.607 26.2795 17.2973 -1.53491 0.189144 -1.06735
18.0787 24.3441 15.3354 -2.37015 0.989908 -0.265208
19.3546 26.5088 16.0069 0.970182 -3.68453 -1.8111
18.6008 24.5313 18.0342 -2.08324 -1.34653 1.52398
22.4798 26.4268 15.7382 0.546244 -0.589677 0.555078
20.7134 24.241 14.2154 -0.714601 -0.588019 -1.36729
21.5789 24.5832 17.0305 0.0396131 0.213117 0.286712
25.2111 22.7738 16.5292 1.8886 -2.46416 -1.51075
23.2332 24.091 14.8097 0.669103 0.389933 -1.54315
24.3787 25.2861 17.2616 -0.0562793 -3.59995 -1.12735
17.2105 14.1349 18.0425 -2.55344 0.586445 0.633069
15.1796 15.6114 19.1094 -1.34636 -0.314187 0.731072
13.0661 17.2076 19.9264 -2.921 0.121088 -1.61427
14.6157 16.2664 21.9687 2.83311 -0.786418 -3.70583
17.6205 16.634 19.1929 -1.04317 0.230714 0.0806982
17.1112 14.787 21.0567 -0.433585 -2.33607 0.897758
17.0049 17.3441 22.0409 1.63798 0.809108 0.125265
20.0417 15.3937 17.9781 -1.48362 3.06642 -1.31785
19.4378 13.2712 19.6841 -1.40589 0.00899144 0.945216
19.6102 15.7741 20.8206 1.79487 0.229745 0.943643
22.2922 15.9493 19.634 -0.253117 -0.623377 -1.2921
21.8838 13.3245 18.8831 0.143924 -0.249049 -1.73246
21.3402 13.5331 21.8215 0.313017 -0.849052 -1.09539
21.7735 16.1793 22.6296 -3.64031 0.788489 1.70306
25.8244 15.7299 19.2763 -0.440232 -0.0128947 -2.66089
23.8763 17.8952 19.0007 1.30545 -1.31015 0.918259
23.9971 14.1968 20.7777 -2.11287 0.332812 0.281391
26.2057 14.9972 21.7371 1.86882 -0.417389 -0.138003
24.5904 16.8791 21.3324 -1.77654 0.967127 1.37228
26.9908 17.5119 21.9747 -1.7621 0.673048 -0.482633
15.2259 18.4926 19.7993 1.01522 -0.358883 -0.930529
13.005 19.7739 19.1465 0.0637796 -3.62152 2.54717
15.8443 21.137 19.6287 -0.77594 -1.5457 0.339992
16.0757 19.9606 22.2515 -3.09187 -3.28496 -0.918039
13.6169 18.8444 22.1902 -2.50634 -1.61607 2.59752
13.7233 21.5515 21.2193 0.485976 -1.77204 -1.35782
17.8642 19.2311 19.8546 -2.05781 -1.65714 0.110552
13.8535 22.8662 18.839 1.63548 0.769064 -1.83365
16.5377 22.76 22.1536 -1.90132 -0.277134 -0.833247
20.2889 17.8848 19.2161 0.348543 1.79848 0.507769
18.4377 22.4075 19.8531 -1.8394 -1.48096 1.13718
19.5607 18.3667 21.9862 -0.761803 -0.457313 0.116383
18.8994 21.0004 22.8351 3.13721 -4.43755 0.140577
21.8324 19.9514 18.6151 1.46606 -1.0715 1.32578
21.0078 22.5611 18.6396 -0.861389 1.09424 -2.19815
22.2748 18.8548 21.2236 1.12284 -0.460331 0.28212
20.2853 20.4923 20.6121 1.49447 -1.14148 0.23
21.5356 20.5148 23.1789 1.79919 -0.642094 -0.509139
22.741 21.7188 21.1837 -1.68526 1.47057 0.408085
26.5464 18.5449 19.4161 -0.608652 -0.956021 -1.20328
24.7232 20.8173 18.7563 -0.0738002 1.45931 -0.508396
27.4541 21.7161 18.6719 -3.47151 1.7608 0.485909
25.0792 19.773 21.3692 0.463419 0.671731 -1.54913
25.5573 22.3237 20.668 -2.33209 -0.588345 -1.17573
27.5867 20.3646 21.2659 -0.478519 -2.31932 -1.5718
16.255 24.3504 19.3193 2.24423 -0.8116 2.66425
14.5887 25.7185 18.74 -2.22281 2.44026 2.4408
14.4362 24.2042 21.3396 2.17828 3.30662 1.60585
16.8584 27.0092 19.7444 3.23752 -0.502964 1.08933
16.4349 25.4121 23.0872 -2.45196 1.33754 -1.89819
22.2049 27.2214 17.9859 3.76145 -2.00462 -0.0832549
20.4914 23.2233 21.5046 0.974784 1.03468 0.058441
19.1717 26.8166 18.545 1.07189 1.67121 0.812826
18.3092 25.2483 21.037 0.985685 1.04067 0.248909
19.8196 27.4459 21.6238 0.0412841 -2.98333 1.59852
21.2592 25.5087 19.903 -0.81127 -0.195425 -0.987631
20.9238 25.4402 22.7724 -1.57948 0.923363 -1.92643
22.3405 27.6113 21.431 -3.32946 0.554529 1.65487
23.4863 23.6531 18.9423 -0.998958 4.09648 -0.0260754
24.0376 26.0199 19.9134 1.03795 0.66023 -0.521902
23.3552 24.3015 21.9765 -0.5342 1.24368 2.33604
26.1631 24.0403 19.1202 -0.631325 1.19829 -0.470353
28.1052 23.1286 20.5106 1.38931 -0.843552 -1.61061
26.2219 24.7602 21.459 3.2417 -1.38693 -1.00277
23.8972 26.5747 22.9845 -0.44155 -0.239121 2.35468
15.5742 17.8055 24.2928 -0.759471 0.916604 0.00767866
16.5021 15.2068 24.108 1.38946 0.024741 0.218215
17.5173 17.053 25.8674 -1.35566 -0.203302 -4.91765
19.3242 16.0678 23.7599 -0.814801 -0.115344 0.518704
18.7331 13.7688 22.9512 1.52609 -1.13164 1.28412
18.5719 14.6012 25.6664 2.00966 -3.95268 0.169575
20.4153 16.2682 26.2698 1.34706 -1.31607 1.59507
21.0941 14.2377 24.8365 0.527438 -1.53874 -0.382584
23.6983 14.6051 23.3181 2.11 -2.22563 -0.393066
22.9446 16.5928 25.1013 1.281 0.843404 -1.00024
25.3392 16.6014 23.8445 -2.17266 -1.88405 1.97716
16.7354 19.7754 26.2906 1.18532 -1.30532 -2.93434
14.8843 22.1127 26.4142 1.60023 0.49887 2.56776
14.3202 20.8459 23.9675 0.189095 1.30525 -2.36556
17.9604 18.8761 24.2637 -3.863 1.16099 0.578669
16.8916 21.7472 24.6165 1.76359 1.93077 0.869631
19.4658 18.8805 26.7934 0.437642 -1.17306 -0.410668
19.6891 21.243 25.3807 -0.92766 0.945595 -0.535367
17.6639 22.2169 27.2064 -1.24475 2.43134 -1.16646
20.6201 18.2883 24.53 -2.03394 0.819664 0.735547
22.2525 18.6043 26.8976 0.508395 0.0703508 -1.13316
22.5412 20.6372 25.3993 -1.50002 1.98763 0.0622702
20.931 21.8753 27.3182 0.290909 -0.97211 0.997451
23.5227 18.6689 23.796 0.83918 0.469446 1.1807
23.9074 20.6649 27.6984 -1.84689 3.37402 1.54469
26.6364 19.5333 23.8479 1.01046 -0.603808 1.46713
24.5534 21.3109 23.4499 0.150333 -2.59331 -0.274466