ITEM: TIMESTEP
0
ITEM: NUMBER OF ATOMS
1415
ITEM: BOX BOUNDS ss ss ss
1.5862686105594088e+00 3.9203731389440584e+01
1.9735743293670973e+00 3.8816425670632903e+01
1.8986376938871858e+00 3.8891362306112811e+01
ITEM: ATOMS x y z vx vy vz
16.998 13.9178 5.37778 0.806634 1.4704 -1.24399
19.9435 13.3789 5.86305 1.18447 1.45213 0.163709
14.0525 14.4567 4.89252 -0.92416 -0.353108 -0.15142
13.1933 16.9525 3.39762 -0.347644 0.284485 0.131628
11.6585 16.0522 5.85437 0.890873 0.975855 0.29975
16.1389 16.4136 3.88289 1.03319 1.36537 -0.967212
22.3223 17.9669 6.00027 1.41177 -0.120404 -0.54032
21.1707 17.8317 3.35852 -0.093831 0.723758 -0.420086
19.0844 15.8748 4.36815 -2.31592 1.84409 -0.916674
22.0299 15.3359 4.85342 1.92337 -0.336966 2.14655
24.1163 17.2928 3.84379 0.750293 0.517263 -0.251929
24.9754 14.797 5.33869 2.11689 -0.946055 -1.28957
27.0618 16.7539 4.32906 1.25467 1.78847 1.53908
30.0073 16.215 4.81432 1.12392 -0.166495 -0.320304
27.9209 14.2581 5.82396 0.920014 -0.750386 1.58986
32.9528 15.6762 5.2996 0.920739 -0.0265254 1.66817
13.4858 19.5836 4.54448 -0.744014 -2.50924 2.9283
12.3342 19.4483 1.90272 -1.35796 1.9013 -2.11221
10.7994 18.548 4.35947 0.0862098 0.504068 1.22136
11.4062 21.491 3.94429 1.76556 0.488138 0.0435194
16.4313 19.0447 5.02974 -0.921117 0.166703 -1.11371
15.3268 21.8496 5.36761 -2.08651 0.390534 -2.42671
18.2723 21.3108 5.85288 0.267458 0.336636 1.35517
15.2797 18.9095 2.38798 -0.290873 -1.01214 -1.21114
18.2252 18.3706 2.87326 -1.00353 -0.158046 -1.31389
14.1752 21.7144 2.72585 -0.433653 -0.273405 -0.449119
17.1207 21.1755 3.21112 0.763619 -0.8963 1.40299
19.3768 18.5058 5.51501 -0.566622 1.64688 -1.8178
20.0662 20.6366 3.69639 0.283957 1.33528 -2.61281
24.8527 22.3638 5.00479 0.776545 1.06013 2.70546
23.0117 20.0978 4.18166 0.435506 -1.47811 2.75537
25.9573 19.5589 4.66692 -0.394341 -2.1481 0.392771
30.7438 21.2861 5.97532 1.37879 -0.524021 -0.243144
27.7982 21.825 5.49005 0.759365 0.665951 0.8386
28.9028 19.02 5.15219 0.846482 0.708993 -2.56539
31.8483 18.4811 5.63746 0.512469 1.97933 1.75079
10.4782 23.5337 5.98588 -0.3459 -0.549464 1.37382
13.2472 23.7571 4.76742 -1.07334 -0.712116 0.460566
17.8572 26.2466 4.37212 0.0689498 0.26313 -0.460542
16.0162 23.9805 3.54898 0.181386 -2.19169 -1.62551
15.0882 26.0232 5.59056 0.918748 -0.975804 -1.23801
20.8027 25.7077 4.85738 -1.12015 -0.0791915 0.542903
18.9617 23.4416 4.03425 -1.30233 0.367155 -1.25917
21.9072 22.9027 4.51952 1.8472 0.283409 -1.58458
23.7482 25.1688 5.34265 1.30091 0.762102 0.665076
26.6937 24.6299 5.82792 -0.558609 0.703506 -2.22075
19.6982 28.5126 5.19525 1.72947 -0.458282 1.98889
22.6437 27.9738 5.68051 -0.178134 1.10202 1.27328
16.6299 6.96928 9.37722 -0.306154 -0.0986543 0.94559
15.7707 9.46509 7.88232 -1.97493 -0.763615 0.737968
19.5754 6.4304 9.86248 -1.05272 0.00400471 0.8716
18.7163 8.9262 8.36759 -2.62407 -0.252697 -1.51102
21.6618 8.38732 8.85285 1.15251 -0.992616 0.551606
24.6073 7.84844 9.33812 0.433702 -0.993514 2.40532
26.6936 9.80537 8.32849 0.25777 0.138734 0.0512405
13.6692 13.6916 9.99103 0.120098 -1.33802 -0.375188
13.3768 11.0606 8.84417 -0.0822391 0.28018 0.71791
10.9828 12.6561 9.80602 0.749321 -0.0231516 0.394101
12.5176 13.5564 7.34927 0.302115 0.78265 0.336296
16.0632 12.0961 9.02917 1.02699 2.67018 0.352997
18.1495 14.0531 8.01954 -0.752946 -1.66533 -0.921175
14.9116 11.9609 6.38741 1.70984 -0.765932 2.57792
17.8571 11.422 6.87269 0.18696 2.42997 0.291543
19.0087 11.5573 9.51444 -1.97645 0.10229 0.249596
21.9542 11.0184 9.99971 2.20024 -1.66096 1.03819
21.095 13.5142 8.50481 -0.151648 -0.852465 -1.34784
20.8026 10.8831 7.35796 -1.24538 -0.0782405 0.581513
24.0406 12.9753 8.99008 0.506525 1.86289 -1.63733
23.7481 10.3443 7.84322 0.493363 0.452069 2.50276
22.889 12.8401 6.34832 0.249423 1.29436 -0.431461
25.8345 12.3012 6.83359 -0.26653 0.0701143 -2.3875
26.9861 12.4364 9.47534 -0.513473 -0.0839122 -1.14577
28.78 11.7623 7.31886 -0.156921 0.352529 -1.53212
29.0656 10.529 10.0755 0.91784 0.89069 0.470549
30.8664 13.7192 6.30923 2.60645 -0.133735 -0.39607
31.152 12.4859 9.06589 -1.4656 -3.10399 -0.064166
7.7297 16.7474 9.27297 -2.02661 -2.15899 0.0490441
9.26455 17.6477 6.81622 -0.299004 1.24565 -0.318557
10.4161 17.783 9.45797 0.0631241 -0.701754 -2.93038
12.8101 16.1875 8.49612 -1.14776 1.00577 2.23861
10.1237 15.1519 8.31112 -1.33825 0.203648 1.46577
15.4964 17.223 8.68112 0.157943 0.909725 -1.60847
15.204 14.5919 7.53427 0.287915 -0.983768 -0.144153
14.3449 17.0878 6.03937 -1.64989 0.498624 -1.06221
17.2904 16.5489 6.52464 0.659089 -2.02184 -0.347518
18.4419 16.6841 9.1664 -0.349866 -2.04735 -2.29732
21.3874 16.1452 9.65166 0.256553 -1.26206 0.208912
20.2359 16.01 7.0099 -2.28588 0.194162 -0.629153
23.4738 18.1022 8.64204 -0.0707365 0.210877 -2.07133
26.4193 17.5633 9.1273 -1.01557 -1.0331 0.517834
25.2678 17.428 6.48554 2.58531 0.413816 0.732862
23.1814 15.4711 7.49518 -0.150302 2.73632 1.04901
26.1269 14.9322 7.98044 0.217611 -1.56608 0.699717
29.3648 17.0244 9.61257 0.0434396 0.725331 -1.43578
29.0724 14.3933 8.46571 -1.99378 -1.71036 0.526253
28.2133 16.8892 6.97082 -0.580177 -0.0351934 -0.682358
31.1588 16.3503 7.45608 -0.429956 0.0518318 0.933847
32.0512 18.0599 9.79757 -0.711593 1.03584 0.158006
33.8452 17.3858 7.64108 0.27471 -0.0783157 -0.0989633
33.2384 14.4428 8.05626 -0.436452 0.19659 0.394525
8.33652 19.6904 8.8578 0.937541 0.898288 2.25703
9.87137 20.5907 6.40105 -0.902459 -0.548134 -1.85691
13.1025 18.8185 9.64298 -0.620038 1.23214 1.56012
13.7093 21.7615 9.2278 1.26345 1.21913 0.449925
11.9509 18.6833 7.00122 0.827642 -1.42366 -0.324625
12.5578 21.6263 6.58605 -0.601603 0.251962 -1.15809
11.0229 20.726 9.0428 -0.543436 1.08295 1.55434
15.7888 19.854 9.82798 1.18354 -0.429786 0.785185
14.6373 19.7188 7.18623 -0.23971 0.620066 0.0799699
17.5828 19.1799 7.67149 0.581863 -1.29653 -1.15034
16.4783 21.9849 8.00936 -0.14193 -1.2741 -0.515792
20.5283 18.641 8.15676 -0.955811 3.1306 -2.44825
19.4238 21.446 8.49463 0.179754 0.0497349 -0.860062
22.3693 20.9071 8.97989 -0.94885 -0.499568 -1.76204
21.2178 20.7719 6.33814 -2.35622 -0.195124 0.792089
25.3148 20.3682 9.46517 -0.26794 -1.87846 -0.0816534
24.1633 20.233 6.82341 -0.402712 0.319194 1.13086
28.2603 19.8293 9.95043 0.160498 -0.383178 -0.422809
28.9498 21.9602 8.1318 1.84911 -1.95944 0.0421595
30.0543 19.1552 7.79395 1.09921 -1.13333 -1.83237
27.1088 19.6941 7.30867 -0.350957 1.29229 1.52117
34.7376 19.0955 9.98257 0.575922 -0.863653 -0.953245
32.7407 20.1908 7.97895 1.80026 -1.1594 -0.296612
9.55018 25.5765 8.02745 -2.70471 -1.0369 0.978972
8.94335 22.6334 8.44262 1.02721 -0.586775 1.03519
11.6297 23.669 8.62763 -0.641019 1.29304 0.495108
13.4707 25.9351 9.45076 -1.09691 -0.278298 1.08675
12.3192 25.7998 6.80901 -1.62156 0.63727 -1.63928
15.5503 24.0276 10.0509 1.80078 -0.557851 0.479279
17.1678 24.1157 6.19074 -0.23214 -0.514784 -0.493591
16.2397 26.1584 8.23232 0.10474 0.943317 0.248186
14.3987 23.8923 7.40918 -1.23901 -0.521513 -1.46196
20.1603 26.517 9.65563 1.29069 0.519893 -0.193811
18.3193 24.251 8.83249 -0.463449 2.63225 0.369033
21.2648 23.7121 9.31776 -2.61944 0.109517 -0.268215
19.0087 26.3818 7.01387 0.161788 2.09638 -0.0314674
21.9542 25.8429 7.49914 -1.106 0.705863 -0.00979658
20.1133 23.5768 6.67601 0.75994 -0.344771 0.621078
24.2103 23.1732 9.80302 -0.876325 1.81277 -1.18447
24.8998 25.304 7.98441 0.412904 -1.47629 -1.28916
23.0588 23.038 7.16127 0.87312 -2.65715 1.28018
26.0043 22.4991 7.64654 1.20997 -1.58605 -1.20362
27.8453 24.7652 8.46968 0.906195 0.328893 -0.2391
29.6392 24.091 6.31319 -0.817648 -0.136302 -0.97083
30.5316 25.8007 8.65468 1.26663 1.592 0.842228
31.6362 22.9957 8.31681 0.490569 -2.6462 0.179743
8.62216 27.6192 10.069 0.242297 1.26922 -0.926995
13.2322 30.1086 9.67372 -1.06297 -0.175231 -1.52309
11.3912 27.8425 8.85058 0.344204 -0.206699 -1.97644
18.0807 28.4245 9.05545 0.474466 -0.0775197 -0.618137
16.9292 28.2893 6.41369 1.38979 -0.338573 -1.6952
16.0012 30.332 8.45527 -1.0855 0.462734 0.573512
14.1602 28.0659 7.63214 -2.04547 1.60706 0.378063
20.8497 28.6479 7.83701 0.893964 -0.861609 -2.55246
18.7702 30.5553 7.23682 0.814672 -0.807031 0.567175
25.6362 30.3751 9.14541 -0.228444 -2.30124 0.168073
23.7952 28.109 8.32228 -1.70652 1.07932 1.45122
24.4847 30.2398 6.50365 0.135519 -0.50723 -0.548769
25.5892 27.4349 6.16579 -0.215865 -0.19846 0.533393
26.7408 27.5701 8.80754 1.50948 -0.481311 -1.2738
27.4302 29.7009 6.98892 -0.953232 -0.235674 -0.765378
28.5347 26.896 6.65106 -0.300526 -0.63328 0.374784
29.4271 28.6056 8.99254 2.41424 -2.01852 -2.10447
17.8422 32.5981 9.27841 0.143331 -0.852315 1.71541
19.9217 30.6906 9.87858 -0.24669 -0.82202 -0.601773
21.5392 30.7787 6.01838 -1.03991 0.25471 0.94747
20.6112 32.8214 8.05996 -0.629662 0.687885 -0.354947
24.5317 33.18 9.48327 2.06875 -0.950189 0.232562
22.6907 30.914 8.66014 -0.539116 0.434486 -0.5515
26.3257 32.5059 7.32678 -0.0292664 1.02493 1.15637
23.3802 33.0448 6.84151 1.40619 0.0436802 1.10845
27.2181 34.2156 9.66828 -0.11226 0.0116029 1.59439
28.3226 31.4106 9.33041 1.70307 -2.94814 1.49453
22.4522 35.0875 8.88309 -3.09215 -0.787057 -0.183025
19.6832 34.8641 10.1015 -0.912667 -1.449 0.872541
25.2212 35.3109 7.66465 3.18563 -1.17998 -0.226838
15.9542 3.57316 13.3289 0.171048 0.138837 -0.326456
17.489 4.47346 10.8721 -0.424476 1.77858 -0.65856
18.6405 4.60871 13.5139 0.752076 0.693976 1.72585
18.3481 1.97765 12.367 0.919739 0.395249 0.679141
20.4345 3.93458 11.3574 0.264629 1.11255 0.624569
20.7201 2.70123 14.114 -0.583192 0.435101 -0.482906
22.5209 5.89151 10.3478 -1.40047 -1.18594 1.79571
22.8065 4.65816 13.1044 0.170904 0.860142 -2.04774
12.7011 7.66448 12.7958 -0.395487 0.893862 1.92581
10.3071 9.25999 13.7577 0.0772948 -0.072437 -2.53656
11.8419 10.1603 11.3009 0.978175 -0.0234887 -0.71873
18.0738 9.73556 13.1658 0.910867 -0.00408 0.451021
17.7814 7.10451 12.019 1.4937 0.427123 -2.06924
16.9223 9.60032 10.5241 -0.352606 -1.14352 0.875823
15.3874 8.70002 12.9808 -1.04077 0.00618892 0.465461
15.095 6.06897 11.834 -0.766445 -0.957253 0.612701
14.2359 8.56479 10.3391 1.98023 -0.175793 0.984751
21.0193 9.19668 13.6511 -1.70586 0.659699 -0.100666
20.7269 6.56563 12.5042 1.64651 3.02352 -2.07475
19.8678 9.06144 11.0093 0.133474 0.574569 -1.05304
22.8133 8.52255 11.4946 -0.759405 -0.292355 -0.69973
25.1853 9.24614 13.2416 0.700183 -0.657564 0.64805
24.8929 6.61509 12.0948 -0.649511 -1.13616 0.456648
26.9792 8.57202 11.0852 0.362504 0.856026 -2.43495
27.2648 7.33867 13.8418 -0.844549 0.462968 -0.174706
29.3512 9.2956 12.8322 0.320599 1.28564 -0.569079
9.44797 11.7558 12.2628 1.23195 -0.526395 -1.87239
7.05399 13.3513 13.2246 -1.72539 -0.0816403 -2.57451
8.58884 14.2516 10.7679 0.377621 -0.529473 -0.627298
12.9935 10.2955 13.9427 -0.919553 0.0210039 -0.92514
12.1343 12.7913 12.4478 -2.4683 0.319271 -0.693719
17.2147 12.2314 11.6709 -1.11645 -0.470843 -1.2452
15.6798 11.3311 14.1277 -0.383932 -0.411513 0.479691
14.8207 13.8269 12.6328 -0.200539 0.0939941 1.97991
14.5283 11.1958 11.4859 0.868317 -0.871779 1.07856
20.1602 11.6925 12.1562 -0.360956 -0.119034 -0.890316
19.3011 14.1883 10.6613 0.114548 -1.05454 1.54692
22.2466 13.6494 11.1466 -1.0849 0.234607 1.44373
23.3981 13.7847 13.7883 -1.67023 -0.515838 0.242842
23.1057 11.1536 12.6415 -0.083589 1.27006 -0.153887
25.1921 13.1105 11.6318 -2.16613 -0.389975 1.25115
24.8997 10.4795 10.485 1.78556 -0.327394 -2.66851
27.5641 13.8341 13.3789 0.289464 -2.65692 -0.034921
27.2716 11.2031 12.232 -0.161026 -0.258755 -0.576514
29.358 13.16 11.2224 1.02481 1.02107 1.52246
29.6436 11.9267 13.979 1.25055 0.672086 0.624681
31.73 13.8836 12.9694 1.02323 0.253309 -0.616371
33.524 13.2095 10.8129 -1.03582 0.730457 1.04556
33.8095 11.9761 13.5696 0.260276 -0.358454 0.343943
31.4376 11.2525 11.8226 0.32962 -2.1474 1.14491
4.66003 14.9468 14.1865 0.992467 1.15807 -1.50683
5.26685 17.8898 13.7713 0.647878 0.392105 2.68153
8.88124 16.8827 11.9147 -0.294344 1.01888 -0.136152
9.74038 14.3869 13.4096 0.133934 -0.114204 -1.72125
6.19486 15.8471 11.7297 -0.947078 0.309838 1.71323
11.5676 17.9182 12.0997 -1.60395 -0.661592 1.09021
12.4268 15.4224 13.5946 -0.600059 0.353802 -2.1549
13.9616 16.3227 11.1379 0.588923 -0.288459 0.696432
11.2752 15.2872 10.9529 -1.04084 -1.12958 -0.175274
17.7995 17.4935 13.9646 -0.980988 -1.21861 1.10151
17.5071 14.8624 12.8178 0.530416 0.453031 -2.49252
16.648 17.3582 11.3229 0.239525 0.19491 1.09399
15.1131 16.4579 13.7796 1.39527 -0.161589 -0.203111
16.3556 14.7272 10.176 0.546874 -0.23467 1.50399
20.4526 14.3235 13.303 1.79782 1.6018 0.159698
19.5935 16.8193 11.8081 -1.46408 0.356593 -1.10893
25.4845 15.7416 12.7787 -1.17015 0.638948 -1.18775
24.6254 18.2374 11.2838 0.20492 0.129128 0.804723
22.539 16.2805 12.2934 1.58245 -1.71457 1.49962
24.333 15.6063 10.1369 0.541078 1.48593 0.0986175
27.5709 17.6985 11.7691 0.632707 0.216902 0.339684
29.6504 15.791 12.3692 0.279055 0.60586 -2.52679
27.2785 15.0675 10.6222 0.389338 0.583819 0.968538
31.4444 15.1169 10.2127 0.0791812 0.791815 -3.15123
32.3368 16.8266 12.5542 0.775598 1.58775 -1.65125
35.0232 17.8621 12.7392 1.66799 0.096368 0.834937
34.1308 16.1525 10.3977 -0.436143 0.395451 -1.37584
34.4164 14.9191 13.1544 0.470249 0.270349 -2.19314
7.95323 18.9254 13.9563 2.23686 0.176911 -0.416685
9.48807 19.8257 11.4996 -0.558135 -1.01596 0.226712
8.56006 21.8684 13.5411 -2.13314 -0.850823 0.793533
6.80169 18.7901 11.3146 0.330765 0.558833 -1.60349
5.87367 20.8328 13.3561 -0.767079 0.299742 0.718378
7.40852 21.7331 10.8994 0.898285 0.485826 0.389765
10.6396 19.9609 14.1413 0.54461 1.1903 -0.287872
12.1744 20.8612 11.6846 0.284702 2.51316 -1.44995
16.9404 19.9893 12.4697 0.326174 1.22758 0.565189
14.254 18.9537 12.2847 -1.7205 0.356782 0.481858
14.8608 21.8967 11.8696 -0.23648 2.39213 0.956439
17.6298 22.1201 10.6511 0.253192 2.14657 -0.840833
19.8859 19.4504 12.955 1.59505 2.14401 0.672408
18.7814 22.2554 13.2929 1.61957 -1.61216 0.980206
21.7269 21.7165 13.7781 -0.162079 -0.693526 2.68575
18.7343 19.3152 10.3133 -0.825978 -1.40765 1.05262
21.6799 18.7763 10.7985 -0.583876 -0.024697 0.394322
20.5753 21.5812 11.1364 -0.460326 0.659164 0.53245
25.7769 18.3726 13.9255 1.84051 -0.482984 -0.268988
22.8314 18.9115 13.4403 -0.0253765 -0.973134 -1.92465
26.4664 20.5035 12.1069 0.227226 0.365281 -0.606292
23.5209 21.0424 11.6217 0.724455 -0.0307251 0.977882
28.4633 19.4082 14.1105 0.410108 -0.540069 -1.08425
30.2573 18.7341 11.9541 -0.368695 -1.38831 0.081309
29.1527 21.539 12.2919 -0.817405 0.220349 -1.68111
32.9436 19.7696 12.1391 -0.0794632 -0.56163 -1.75573
30.9467 20.8649 10.1354 0.640933 2.95082 -0.312049
33.6331 21.9004 10.3204 -0.976139 0.796046 -0.672181
35.63 20.8051 12.3241 0.248787 -0.325486 0.636623
9.16688 24.8114 13.126 1.2449 -0.554741 -0.601157
6.4805 23.7759 12.941 0.693459 -0.321257 0.855618
8.01534 24.6762 10.4842 1.34846 -1.56642 0.425521
13.9328 23.9395 13.9111 0.912783 -1.2386 -0.843338
12.7813 23.8042 11.2694 -0.794645 -0.229858 0.437936
11.8533 25.8469 13.311 0.735913 0.854599 0.261653
11.2464 22.9039 13.7261 -0.0668314 -1.84715 -0.844502
10.7017 25.7117 10.6692 -1.28666 1.95042 0.615208
10.0949 22.7687 11.0844 -1.18367 1.08841 -2.72477
16.7018 24.1628 12.6927 -1.08586 0.976341 1.901
17.3913 26.2937 10.8741 0.619895 -0.0778371 -0.349049
14.6223 26.0703 12.0925 1.23539 -1.39452 -0.0888014
20.6224 24.5214 14.116 2.26884 -1.23794 2.30406
19.4708 24.3862 11.4742 0.622799 -0.461876 1.39886
22.4163 23.8473 11.9595 1.27 0.693193 0.309968
18.5428 26.4289 13.5158 0.812349 -0.760874 -0.955139
24.2573 26.1134 12.7827 1.92755 1.07407 1.72962
25.3618 23.3084 12.4448 1.55607 -0.534449 -1.94527
26.0513 25.4393 10.6262 -0.12421 0.368732 -2.05719
23.1058 25.9782 10.1409 -1.98889 -1.25106 -0.342195
27.1558 22.6343 10.2883 -0.143597 -0.630034 0.55044
28.0482 24.344 12.6298 0.434042 -0.818454 0.0476904
30.7346 25.3795 12.8148 0.858035 -0.404875 1.78163
28.7377 26.4748 10.8112 1.60364 -1.23415 -0.566078
29.8422 23.6699 10.4733 -1.02958 1.83059 -0.339808
31.8391 22.5746 12.4769 -2.30206 -1.94145 -1.63307
33.421 26.4151 12.9998 0.391961 1.77018 0.603669
34.5255 23.6101 12.6619 0.721467 1.67491 0.586258
32.5286 24.7054 10.6583 0.379341 0.28912 -0.193778
9.7737 27.7544 12.7108 1.01735 -1.57028 1.97154
7.69415 29.6619 12.1106 -1.21028 -1.21001 0.390008
7.08732 26.7189 12.5258 0.647957 0.568384 -0.164118
13.6943 28.113 14.1341 0.173297 0.765274 2.0345
12.5427 27.9778 11.4923 -1.16761 -0.885344 -1.32702
11.6147 30.0205 13.5339 -0.863254 2.45919 -0.439871
10.4632 29.8852 10.8922 -0.763506 0.0218085 2.07951
18.3042 30.6025 13.7388 0.31539 1.63171 -0.136867
16.4633 28.3364 12.9156 1.60627 -0.405273 0.539735
17.1527 30.4672 11.097 0.418288 -0.265558 0.208741
15.3117 28.2011 10.2739 0.50242 1.72278 0.421306
14.3837 30.2438 12.3155 0.61651 -1.40566 -0.733489
21.3118 26.6523 12.2974 -0.5067 -1.17108 -0.78537
22.0013 28.7831 10.4788 0.446491 -1.11208 -2.68755
19.2323 28.5597 11.6972 2.03491 -0.370865 -1.54722
23.1528 28.9184 13.1205 1.80816 -0.968892 0.756499
25.8392 29.9539 13.3055 1.35356 0.325061 -0.828484
24.9468 28.2442 10.964 0.519719 -0.811314 -0.41391
26.9437 27.1489 12.9677 0.639562 1.61722 -0.0608059
29.6301 28.1845 13.1527 -0.605534 -0.198816 -0.133129
27.6332 29.2798 11.149 -0.47364 1.39536 2.65683
30.3195 30.3153 11.334 -0.0693757 1.71342 -2.34882
32.3165 29.22 13.3377 -0.498945 0.117755 0.738655
31.4241 27.5104 10.9962 0.426902 -1.43882 1.38523
6.76613 31.7046 14.1522 -0.853998 0.887026 -1.97216
9.53514 31.9279 12.9337 1.03749 -1.43698 -1.18347
11.3761 34.194 13.7569 0.847709 -0.468343 1.08903
12.3041 32.1513 11.7153 -1.43135 0.791801 0.940794
16.2247 32.5099 13.1386 1.34313 0.00959369 0.429926
16.9141 34.6408 11.32 2.68045 -0.178127 0.401132
14.1451 34.4174 12.5384 0.156618 0.0181979 -3.2614
15.0732 32.3747 10.4968 0.0714539 0.550518 -2.56329
21.0733 30.8258 12.5203 -0.543449 -2.51714 -1.60549
21.7627 32.9567 10.7017 0.0110797 1.04477 -0.3445
18.9937 32.7333 11.9202 2.30391 2.06383 1.0588
21.3657 33.4569 13.6672 -0.277017 -1.19671 0.171848
23.8423 31.0492 11.3019 -1.58447 0.254629 -1.46271
26.5286 32.0847 11.4869 -0.567879 -0.744161 -0.782546
24.1347 33.6802 12.4487 -0.0473084 1.01255 0.921629
28.5256 30.9894 13.4905 -0.844085 -0.60185 -0.66801
29.215 33.1203 11.6719 -0.745383 0.143857 -1.05428
26.8211 34.7158 12.6337 -1.60223 0.01083 -0.238567
31.212 32.025 13.6755 -0.721276 -0.523749 1.33295
22.0551 35.5877 11.8486 -0.843925 -2.26764 -0.68193
19.2861 35.3643 13.067 -1.62097 -0.536889 -1.0838
24.4271 36.3113 13.5956 -0.422172 1.71862 0.365757
24.8241 35.8111 10.6301 0.753554 -1.62501 -0.419669
13.5602 5.16867 14.2907 -0.960385 -0.385177 -0.83068
13.1631 5.66889 17.2562 -1.32342 -1.71505 1.27219
18.2435 5.10892 16.4793 -0.577393 -0.258089 -0.920162
17.9511 2.47786 15.3325 -2.7263 -0.537973 0.30987
17.554 2.97808 18.298 1.72662 1.76782 0.817712
15.5571 4.07337 16.2943 -1.17518 1.227 0.790282
21.0125 5.33229 15.2609 -0.952712 0.371411 -0.164412
20.6155 5.83249 18.2264 -0.426915 2.36391 0.354239
20.3231 3.20145 17.0795 0.980038 -1.41214 1.09826
23.3845 6.05586 17.0079 -1.14309 -1.06325 -1.177
23.0921 3.42481 15.8611 -0.533963 1.71811 -0.940604
25.464 4.14839 17.6081 0.610143 -0.460231 1.04966
25.1784 5.38174 14.8514 0.256607 1.33408 0.649316
8.77226 8.35969 16.2144 1.58329 -0.0363957 2.30622
6.37828 9.95521 17.1763 -1.52722 -0.0810044 -0.472166
13.8526 7.79973 15.4376 1.53681 -2.41868 -0.10584
11.4586 9.39524 16.3994 0.162242 -0.69871 -1.09763
11.1662 6.76418 15.2526 -2.31564 -0.168178 -0.932214
10.7692 7.26439 18.218 -0.201848 -0.946831 -0.670923
16.539 8.83526 15.6226 -3.16563 -1.24866 0.233651
16.2466 6.20421 14.4757 2.43107 -1.95094 1.12915
15.8495 6.70443 17.4412 1.87659 1.469 0.161372
19.2254 9.8708 15.8076 -0.0814434 -1.33792 1.40019
18.933 7.23975 14.6607 1.72852 -0.690375 2.3437
18.5359 7.73996 17.6262 2.50276 0.295292 -0.0824152
21.3049 7.96333 16.4078 -1.0954 -0.0691078 -1.57696
23.6769 8.68692 18.1548 -1.11492 1.38504 -0.440338
23.3913 9.92026 15.3981 -0.530046 0.327728 0.779953
23.0989 7.28921 14.2513 0.527705 0.49852 -1.02974
25.4709 8.01279 15.9983 1.60422 1.39932 -1.76178
27.5572 9.96972 14.9887 -0.59126 1.41896 -1.2514
27.8428 8.73637 17.7453 0.777895 -0.46238 0.409348
27.5504 6.10533 16.5985 -0.640873 1.09681 0.469876
29.6368 8.06225 15.5888 0.272101 1.45416 -0.329066
31.7232 10.0192 14.5792 1.95475 -0.434558 -1.13236
32.0088 8.78583 17.3359 -0.395428 -1.12209 0.0149491
3.98431 11.5507 18.1381 0.534299 -1.14129 1.24059
3.12518 14.0465 16.6432 0.0325924 -0.930227 1.25481
5.51915 12.451 15.6814 1.3259 1.01146 -0.716603
9.06467 10.9907 17.3613 -2.55216 -0.562029 0.313504
6.6707 12.5863 18.3231 -0.00342064 0.317746 0.858577
8.20553 13.4866 15.8664 2.68701 0.972106 1.11584
7.91313 10.8555 14.7195 -0.603327 -1.10969 0.316496
11.751 12.0263 17.5463 0.985634 -2.92553 0.548022
13.2859 12.9266 15.0895 -0.134645 0.886581 -0.759113
10.5995 11.891 14.9045 -0.129125 -0.35559 0.851307
17.1238 14.0974 17.9163 -0.279704 -0.342208 0.290434
16.8314 11.4663 16.7694 -1.24439 0.436062 -0.155542
14.4374 13.0618 17.7313 -2.59179 -0.55323 0.417774
15.9723 13.9621 15.2745 0.203219 0.779357 -0.837372
14.145 10.4308 16.5844 -0.799122 -0.831494 0.263426
19.5178 12.5019 16.9544 -0.100523 -0.562427 -0.587421
18.3662 12.3666 14.3127 0.153403 0.903356 0.772115
21.3117 11.8277 14.798 1.25854 0.46253 0.902342
21.5973 10.5944 17.5546 1.92495 -0.156255 -0.422906
23.6837 12.5513 16.545 -0.0740124 2.03526 1.29729
26.0557 13.2749 18.292 -0.354192 -0.180055 -1.76621
25.4777 11.8772 14.3885 -1.81474 -2.33813 1.77836
25.7633 10.6438 17.1452 -0.126222 -0.487613 1.95689
30.2216 13.3244 17.8826 -0.372631 0.971718 -1.36553
27.8496 12.6008 16.1355 -0.11672 -0.786447 0.08806
29.9292 10.6933 16.7357 -0.918399 0.849729 -1.24206
32.0156 12.6502 15.7261 -1.26353 1.46226 -1.58296
34.0951 10.7428 16.3262 0.932234 1.66494 -0.821125
34.702 13.6858 15.9111 -0.139446 0.865756 -0.934002
3.73201 16.9895 16.2281 0.517247 0.773759 0.466496
8.49794 16.1176 17.0132 0.987638 -2.45751 -3.07745
5.81157 15.0821 16.8282 0.426794 -0.45454 0.785223
7.3464 15.9824 14.3715 1.64943 0.807274 -1.3227
6.41839 18.0251 16.4131 -1.26398 0.218181 2.5105
13.8707 18.1887 17.3832 0.572417 -0.662198 0.809799
11.1843 17.1531 17.1982 2.25217 1.24758 0.187324
12.7192 18.0534 14.7415 -1.29088 1.76291 -0.143157
13.5783 15.5576 16.2364 1.05344 1.59969 0.357781
10.0328 17.0179 14.5565 -0.153524 0.0864577 -1.971
10.8919 14.5221 16.0514 -0.357555 -1.96187 -0.0141091
16.2647 16.5932 16.4214 -0.344307 -0.151567 2.91348
19.8102 15.1329 18.1013 -0.977009 1.01615 -0.892134
18.951 17.6287 16.6064 -0.427587 0.313787 2.10351
21.8966 17.0898 17.0917 1.61548 0.0837996 -0.811628
18.6586 14.9977 15.4595 -0.0304582 2.29127 0.24105
21.6042 14.4588 15.9448 -0.257632 -1.52345 0.417097
20.745 16.9546 14.4499 -1.28397 -0.793156 -0.637589
26.0625 17.1393 16.6822 0.970241 0.1174 1.04472
23.6905 16.4157 14.9352 0.0262008 -1.65003 -0.180958
23.9761 15.1824 17.6918 0.889385 -0.143673 0.273799
25.7701 14.5082 15.5354 1.07294 -1.93008 -1.22633
27.8565 16.4652 14.5257 1.07325 -1.1983 -0.0204826
28.1421 15.2318 17.2824 -0.351645 -0.580695 1.90161
28.7489 18.1748 16.8672 0.19156 -0.893119 -0.213462
29.936 14.5577 15.1259 -2.05752 0.26133 2.12121
30.5428 17.5007 14.7107 -0.105929 2.35744 -1.04762
30.8284 16.2674 17.4674 0.897737 0.269625 0.406323
33.5148 17.3029 17.6524 1.33169 1.04294 -0.299171
32.6224 15.5932 15.3109 0.372396 1.56283 1.11805
32.908 14.3599 18.0676 0.22174 -0.42838 -0.998555
36.2012 18.3384 17.8374 1.12574 -0.72598 -0.65342
35.3088 16.6288 15.4959 -0.730683 0.0417523 -0.34991
35.5944 15.3954 18.2526 -1.10364 1.88967 -0.718053
2.80399 19.0322 18.2696 1.18515 -0.404452 0.130973
3.41082 21.9752 17.8545 -0.537131 -0.771689 0.981255
4.33883 19.9325 15.8129 -1.98948 0.44192 -1.51887
9.10477 19.0606 16.5981 -1.01406 -0.311266 -0.245493
9.71159 22.0036 16.1829 0.825696 -0.26863 -0.959754
7.02522 20.9681 15.9979 -0.0639723 0.0185381 -0.242539
11.7911 20.0962 16.7831 1.00068 0.00235594 1.91272
13.326 20.9965 14.3263 1.47911 0.645938 0.0190224
18.0919 20.1245 15.1115 2.14699 -0.300655 0.566704
16.5571 19.2242 17.5682 -0.244906 -0.81055 -0.216047
17.1639 22.1672 17.1531 1.02092 -1.46371 -1.68416
15.4055 19.089 14.9265 -1.02118 -0.559073 0.383265
16.0124 22.032 14.5113 -0.853404 -1.28689 1.59654
14.4775 21.1317 16.9681 -0.726558 -0.431019 -0.578258
19.2435 20.2598 17.7532 1.4794 0.523903 0.55021
22.189 19.7209 18.2385 0.0251323 0.605084 0.252874
21.0374 19.5856 15.5968 0.153317 -0.23936 -0.305662
19.9329 22.3906 15.9346 -1.13124 0.547948 0.5788
23.9829 19.0468 16.082 -0.713291 2.09776 -2.31262
22.8784 21.8517 16.4199 1.20717 -0.393939 0.396717
24.6724 21.1776 14.2634 -1.06979 -0.421697 -1.3706
26.6693 20.0823 16.267 -0.258958 -0.660386 -1.32143
29.3557 21.1178 16.452 0.402611 0.0686355 0.0684709
27.3588 22.2131 14.4484 1.20649 0.819565 -0.244097
32.0421 22.1534 16.637 1.09917 -1.77389 -0.311162
31.1497 20.4437 14.2955 0.959215 -0.923641 2.89006
31.4353 19.2104 17.0522 1.10661 -0.838066 0.155724
33.836 21.4793 14.4805 0.0928211 0.380975 1.19793
34.1216 20.2459 17.2372 0.605609 1.03097 0.365297
33.2292 18.5362 14.8957 -0.919701 -0.188349 -3.0592
36.808 21.2814 17.4222 0.115839 0.77293 0.146412
35.9156 19.5718 15.0807 0.467808 0.120571 1.83666
4.01765 24.9183 17.4393 0.183091 -0.04084 -0.400438
4.94566 22.8756 15.3977 0.818568 -0.334287 1.59582
5.55248 25.8186 14.9825 0.00729493 -0.836661 -0.4334
8.78357 24.0463 18.2245 -0.612317 2.32736 -1.04654
6.0972 23.0108 18.0395 0.64098 -0.00741989 -0.393108
6.70402 25.9538 17.6243 -1.19398 -1.077 -0.357384
7.63203 23.9111 15.5827 1.76365 1.0133 2.00073
13.0048 25.9822 15.9527 -1.10459 -1.84378 -1.25457
12.398 23.0392 16.3679 0.713195 -2.22194 1.46431
10.3184 24.9466 15.7677 -0.908442 1.37828 0.890926
16.9253 26.3408 17.376 -0.891379 0.197014 0.531143
15.0843 24.0747 16.5529 -0.501066 1.54035 -0.671604
17.8534 24.2981 15.3344 1.17267 0.395566 -1.0052
15.7738 26.2055 14.7343 0.447517 -0.0753732 1.2938
21.7739 24.6567 16.7578 0.965859 -0.704441 1.17958
19.0049 24.4333 17.9762 0.802129 -0.908022 1.77241
24.4603 25.6922 16.9428 1.05882 -0.132462 0.274472
23.5679 23.9826 14.6013 -0.291109 -0.0224063 0.93473
25.5648 22.8873 16.6049 0.742913 -0.639514 2.41549
26.2543 25.0181 14.7863 -1.40782 0.241606 -1.10929
28.2512 23.9228 16.7899 1.47073 0.10568 -1.10213
28.9406 26.0536 14.9713 0.5919 1.11359 -0.82882
30.0451 23.2487 14.6334 0.851194 0.472401 0.263432
30.9376 24.9583 16.9749 -0.213278 -0.124215 -0.293678
34.7285 23.1889 16.822 -0.148143 -0.0482578 -0.59227
33.6239 25.9939 17.1599 -2.37543 1.05701 -1.79003
32.7315 24.2842 14.8184 -0.742999 1.56726 1.22044
37.4148 24.2245 17.007 0.462526 0.203382 -0.288559
36.5224 22.5148 14.6655 0.0938371 -0.555082 0.159451
35.4179 25.3198 15.0034 0.495195 -0.663767 0.511027
4.62447 27.8613 17.0241 -0.319563 -0.760722 -0.348362
9.3904 26.9893 17.8093 1.16994 1.25552 1.48644
7.31085 28.8968 17.2091 -1.02462 0.253202 -0.599776
8.84569 29.7971 14.7524 -1.01955 0.233167 0.490901
8.23886 26.8541 15.1675 -0.0108728 1.39738 1.18129
6.15931 28.7616 14.5674 -0.699925 0.134182 -0.621344
12.0768 28.0249 17.9943 0.14626 0.192468 -1.56879
9.99723 29.9323 17.3941 -0.279288 2.57723 -0.328754
12.7662 30.1557 16.1757 1.03627 -1.21019 -0.470423
10.9252 27.8896 15.3525 -2.57441 -0.512344 1.29062
17.6148 28.4716 15.5574 1.49022 -0.283547 0.430068
14.8458 28.2482 16.7758 0.754172 -0.143885 0.972898
15.5352 30.3791 14.9572 -1.2547 0.933509 0.810748
22.4634 26.7875 14.9391 -1.72374 1.97948 0.433726
22.0663 27.2877 17.9046 1.30738 0.549968 1.30655
19.6944 26.5641 16.1576 -0.626243 0.0227082 0.511956
20.3838 28.695 14.339 -0.643849 -2.21684 -0.24094
19.9868 29.1952 17.3044 -1.25674 -1.29892 -0.46
25.1497 27.8231 15.1241 1.26345 2.40143 -0.550134
22.7558 29.4186 16.086 0.267781 0.521447 -0.875463
24.7527 28.3233 18.0896 3.08903 -0.710356 0.430152
25.4421 30.4541 16.271 1.08452 0.918376 -0.774825
27.1467 26.7278 17.1278 -1.53203 0.0868001 -0.901097
29.833 27.7633 17.3128 0.267869 0.582271 -0.063792
27.8361 28.8586 15.3091 0.952231 0.884313 -0.183951
27.4391 29.3588 18.2746 -1.20709 0.235198 0.429868
30.5225 29.8941 15.4941 1.67552 -1.64159 -0.934825
32.5194 28.7988 17.4978 0.454643 1.61912 -0.473417
31.627 27.0892 15.1563 -0.527007 -1.43886 1.92365
34.3134 28.1247 15.3413 1.3143 0.198348 0.00363653
35.2058 29.8344 17.6828 -1.57179 0.0259457 -0.260538
36.3103 27.0294 17.3449 0.867152 -2.51344 -0.274071
5.23129 30.8043 16.6089 0.560501 0.582067 -0.190137
7.91767 31.8398 16.7939 -0.911949 0.290619 -0.443046
5.83811 33.7473 16.1938 -0.204511 -0.946104 -0.11802
8.21007 34.4709 17.9408 -2.0207 -0.58895 -1.12235
8.60712 33.9707 14.9753 -1.63984 0.495236 0.77918
13.4557 32.2866 14.357 1.03924 -0.438428 -0.267163
10.6867 32.0632 15.5755 0.143764 -1.12237 1.71762
13.0586 32.7868 17.3225 -0.754778 -1.64148 0.53308
10.9791 34.6942 16.7223 1.14469 -0.0373941 1.13354
17.9072 31.1027 16.7043 -0.822037 -0.0238599 -0.0066868
15.1382 30.8793 17.9227 -0.465859 1.57061 -0.732517
18.1996 33.7337 17.8511 -2.26582 -0.24539 0.0684943
15.8277 33.0101 16.1041 1.30323 -0.228515 -0.834056
20.6762 31.326 15.4858 0.833149 -0.0694585 0.132101
20.9686 33.9571 16.6327 -0.985751 -0.633347 -1.7754
18.5967 33.2335 14.8856 -0.55159 1.66178 -0.766836
23.0482 32.0496 17.2328 0.315064 2.31419 -1.86225
23.4452 31.5494 14.2674 1.24694 0.0681571 -1.77669
23.7376 34.1805 15.4142 -0.838135 1.18241 -0.75562
25.7346 33.0852 17.4178 0.126837 0.520211 0.195049
26.1316 32.5849 14.4524 -0.237146 1.27225 -0.818114
28.1285 31.4896 16.456 0.49651 -0.827679 -0.35593
30.8149 32.5252 16.641 -0.0902872 -0.904421 1.00406
28.4209 34.1207 17.6029 0.289195 1.14159 0.299844
28.818 33.6205 14.6374 -0.167448 0.232478 0.251937
33.2089 30.9297 15.6791 2.17729 0.160278 1.24027
13.7481 34.9176 15.5039 -0.556838 0.33091 0.604875
16.1201 35.6412 17.2509 0.0817665 1.453 -0.649308
16.5171 35.141 14.2855 3.31054 -1.45959 -0.556395
21.261 36.5881 17.7795 -1.96921 -0.847775 -0.206645
21.6581 36.0879 14.814 1.3138 0.139545 0.970153
18.8891 35.8645 16.0325 0.596372 -1.52284 -0.133774