ITEM: TIMESTEP
0
ITEM: NUMBER OF ATOMS
147
ITEM: BOX BOUNDS ss ss ss
1.2529367078510196e+01 2.6956258864621386e+01
1.2094962912738579e+01 2.8632193691933022e+01
1.2539310591179277e+01 2.8250689620770451e+01
ITEM: ATOMS x y z vx vy vz
17.7626 14.4409 16.4192 1.37065 2.26906 -0.839987
17.4915 15.6119 13.802 -0.0577242 -1.56827 -0.633955
15.8388 17.7578 14.9334 1.19979 0.624935 -1.42298
14.1861 19.9038 16.0647 0.811595 2.42412 -0.855589
19.156 19.9716 15.5801 0.921409 2.29976 -0.528096
21.2622 18.0728 16.097 -0.258863 -0.352105 -0.197381
20.991 19.2437 13.4798 0.733123 -0.772438 0.863833
18.4593 17.2063 15.9997 -0.35157 -0.569076 -1.80974
18.1882 18.3772 13.3825 -0.356303 0.186163 0.667836
20.2943 16.4784 13.8994 0.0969724 -1.71854 -0.914789
24.065 18.9393 16.1943 1.08955 -0.0814889 0.027594
23.7939 20.1103 13.5771 0.349245 1.46398 0.606596
25.9 18.2115 14.094 -2.22458 1.6191 -0.426536
23.0972 17.3449 13.9967 -0.981375 -1.25994 1.45541
17.2322 23.2885 14.0943 0.926831 0.220257 0.485809
14.8828 22.6691 15.6451 -0.453257 0.531822 2.02791
16.5355 20.5232 14.5138 -1.23421 -0.0624348 2.04718
19.8527 22.7369 15.1606 0.570108 0.694722 -1.24388
19.5816 23.9079 12.5434 1.27619 1.34543 0.273619
21.9589 20.8381 15.6775 -1.92893 0.529682 -0.412025
21.6877 22.0091 13.0603 -1.76843 -1.07289 1.14719
18.8849 21.1425 12.9629 0.883967 -0.769651 1.67707
23.8735 22.7917 14.7686 -0.827624 -0.0659509 1.80414
25.9796 20.8929 15.2855 0.0457203 0.867329 1.36042
16.6643 24.8619 16.4417 0.185132 -0.105926 -0.505067
19.0137 25.4813 14.8908 0.101616 -0.3531 0.453523
21.7673 24.6905 14.2517 -1.43472 -0.537593 -2.36517
23.953 25.4732 15.9601 0.363446 1.38759 0.551832
16.3811 15.4159 20.1678 1.58237 -1.67438 0.654399
18.7304 16.0353 18.6169 0.649113 0.308461 -1.69798
20.8366 14.1365 19.1338 -0.924625 -0.439512 -0.980678
20.5654 15.3075 16.5166 -1.62203 -1.30325 -0.0961037
18.0337 13.27 19.0364 -0.899411 0.514986 -0.325155
26.4423 15.8696 19.3284 0.842305 0.486162 0.738999
23.6394 15.003 19.2311 -0.11188 -1.33743 -1.07605
23.3683 16.174 16.6139 0.622169 0.735088 -1.90791
17.0778 18.1813 19.7482 0.0479948 -0.353801 -0.803741
16.8066 19.3522 17.131 -0.344972 -0.993601 0.621473
16.1099 16.5869 17.5506 -0.289201 -0.614438 2.49752
14.4573 18.7328 18.6819 0.826538 -1.16524 0.109752
19.4271 18.8006 18.1973 1.20318 -0.493357 -1.43905
21.5333 16.9018 18.7142 0.871548 1.61955 -0.323044
22.23 19.6672 18.2947 -2.33514 -0.360676 -0.554477
24.3361 17.7684 18.8115 0.266254 -0.198921 0.720816
26.2507 19.722 17.9027 -1.45206 -0.866001 -0.890042
26.1711 17.0405 16.7112 -1.25443 -0.0946276 0.44651
15.154 21.4982 18.2623 1.19277 1.83567 -2.17998
16.9354 23.691 19.0589 1.72753 0.172445 -1.08299
12.8046 20.8788 19.8132 0.984845 0.246898 0.773727
12.5334 22.0498 17.196 3.84865 -0.542075 0.226555
14.3149 24.2425 17.9925 -0.678766 0.167444 0.346232
20.395 20.395 20.395 -0.195697 1.78042 -1.83248
20.1239 21.566 17.7778 -1.75581 1.5261 0.293325
17.7745 20.9466 19.3287 -1.50174 -0.293034 0.342354
17.5033 22.1175 16.7115 0.94501 -0.0949442 -0.301275
19.5559 23.1394 20.1252 1.15846 -0.142122 0.739677
19.2848 24.3103 17.508 1.04633 -0.668287 1.1045
22.0384 23.5196 16.8689 1.1562 0.653192 1.12607
22.3096 22.3486 19.4861 -0.630181 0.0255994 -0.311703
24.2242 24.3023 18.5773 0.702842 2.52016 -3.14102
24.4157 20.4498 20.003 0.238094 -1.43755 0.65793
24.1446 21.6208 17.3858 0.0934077 -0.155447 -0.507825
26.3303 22.4035 19.0941 -0.312723 -1.68335 0.307233
26.0592 23.5744 16.4769 0.0281501 -1.74864 -0.323172
16.0963 26.4353 18.789 0.163457 -0.713414 1.40213
18.7169 25.8837 19.8554 1.10581 -1.53994 -1.91528
18.4457 27.0547 17.2382 -1.26865 -0.465961 -2.1082
21.4705 25.093 19.2163 0.686835 0.227049 1.85704
21.1994 26.264 16.5991 0.598555 0.719135 1.64186
17.8778 28.6281 19.5855 1.57645 -1.24471 -2.30871
20.6314 27.8374 18.9465 1.25756 0.467573 0.962209
23.3851 27.0467 18.3074 -1.07412 -0.589201 0.399488
26.4099 25.085 20.2856 -0.0948642 -1.02451 0.186223
26.1388 26.2559 17.6684 -0.998687 -0.904468 1.58575
16.6522 14.245 22.785 2.24255 -1.34027 2.04162
22.0756 14.5599 23.9486 1.22301 0.482764 1.024
21.8044 15.7309 21.3314 -0.427804 -0.594058 -1.89326
19.2727 13.6934 23.8513 -1.80689 0.9304 1.16728
19.0016 14.8644 21.2341 -0.687406 1.56239 -0.92046
21.1077 12.9656 21.751 -0.729279 1.61386 -1.11081
18.3049 12.099 21.6536 -0.659934 0.557673 0.593073
24.8784 15.4265 24.0459 0.170909 -0.76759 -0.446817
26.7134 14.6986 21.9456 -0.0885826 -0.42632 1.93827
23.9106 13.8321 21.8483 0.790591 -0.234388 -0.103779
15.6962 19.1563 23.4968 2.54804 -1.17885 -0.845377
15.4251 20.3272 20.8795 0.327974 -1.9564 -0.0296497
13.0757 19.7079 22.4304 0.673161 -0.467491 1.59574
14.9995 16.3909 23.9163 -0.0207207 1.82969 1.84257
14.7284 17.5619 21.2991 0.778492 -0.213348 0.0683325
20.6661 19.224 23.0122 1.93366 -0.846242 -0.559421
18.0456 19.7756 21.9459 -0.0608216 0.645995 -0.024877
19.9694 16.4587 23.4318 -1.36557 0.332526 0.252393
19.6983 17.6297 20.8145 -0.226953 0.258635 1.49686
17.3489 17.0103 22.3654 0.658252 -0.692857 2.20517
22.7723 17.3253 23.5291 -0.567262 -1.40389 -0.279471
22.5011 18.4962 20.9119 -3.03146 -1.95211 -0.536712
24.6869 19.2789 22.6202 1.85207 -0.62715 -0.553689
24.6073 16.5974 21.4287 0.196319 0.872418 1.15465
26.793 17.3801 23.1371 1.55013 2.15724 0.473619
26.5219 18.551 20.5199 -0.147865 -1.12778 -2.3155
17.2065 22.52 21.6761 -0.773912 -0.0446408 -2.10111
14.8572 21.9006 23.2269 1.59862 1.06996 0.258716
14.586 23.0716 20.6097 -0.990566 -0.421626 1.92707
16.6386 24.0934 24.0234 -0.888041 -2.31025 -0.451819
19.8271 21.9684 22.7424 -1.1174 1.0436 -1.16948
17.4777 21.3491 24.2933 -0.0502953 0.903431 -1.11672
21.7417 23.9221 21.8335 -1.25901 -0.670199 -1.3829
22.5807 21.1777 22.1033 -0.852793 2.19057 -2.71609
24.7665 21.9604 23.8117 -1.78124 -0.0406993 -1.19227
24.4953 23.1313 21.1945 -1.91696 2.06025 0.322748
26.681 23.914 22.9028 -0.353762 2.04467 0.114137
26.6015 21.2325 21.7113 -1.08757 -0.463145 0.807099
16.3675 25.2644 21.4062 1.13528 1.09779 -0.249144
18.988 24.7128 22.4726 -1.49095 -0.5655 -0.780195
18.1489 27.4572 22.2028 -0.38469 0.194416 -0.104193
21.1737 25.4955 24.1809 -0.249715 -1.34722 0.838716
20.9026 26.6664 21.5637 -0.292557 -0.40484 0.250745
23.9274 24.7047 23.5419 -1.12248 -1.43662 1.10306
23.6562 25.8757 20.9246 0.615295 -0.771413 0.841938
20.2406 15.2878 26.049 1.09582 -0.561015 0.036227
17.6201 15.8394 24.9826 -1.35099 -0.527525 -1.89229
23.0434 16.1543 26.1463 -0.0622837 0.170338 1.04996
15.9674 17.9853 26.114 1.71817 -0.777154 -0.269717
13.3469 18.5369 25.0476 -0.324103 1.49311 0.855788
21.2084 16.8821 28.2466 1.04163 0.300541 0.794866
20.9373 18.0531 25.6294 0.885393 0.108207 -0.283593
18.5879 17.4337 27.1803 1.41522 0.418161 0.261703
18.3168 18.6047 24.5631 -1.49498 1.23149 0.735298
20.3693 19.6265 27.9768 0.00458282 -0.372642 1.05174
17.7488 20.1781 26.9105 -0.402565 -1.00199 -0.485517
23.123 18.8358 27.3377 2.13347 -0.533469 0.370026
22.8519 20.0067 24.7205 0.891938 0.411499 -1.15534
24.958 18.1079 25.2374 -1.12917 -0.20995 0.870445
26.8726 20.0616 24.3285 -0.867874 -0.830433 0.166793
15.1283 20.7297 25.8441 0.350343 0.708171 0.237488
16.9098 22.9225 26.6406 -1.06444 0.100966 0.379221
20.0982 20.7975 25.3596 0.40497 -0.0882967 -0.561771
19.5303 22.3709 27.707 -2.20249 -0.483438 -2.25247
19.2591 23.5418 25.0898 -0.586795 0.379286 -2.20002
22.0128 22.7511 24.4507 -1.30934 0.4683 0.458531
21.4449 24.3245 26.7981 -1.06417 -0.13038 1.36438
22.2839 21.5802 27.0679 0.170047 0.651198 -1.28843
25.0376 20.7894 26.4289 -0.234345 -0.817699 -0.815309
24.1985 23.5338 26.1591 -0.130911 2.27261 0.143478
26.9522 22.7431 25.52 -0.467077 -0.379493 3.04612
18.6912 25.1153 27.4372 0.766122 0.60595 1.13794
18.4201 26.2862 24.82 1.22677 -0.187326 -0.119303
ITEM: TIMESTEP
1000
ITEM: NUMBER OF ATOMS
147
ITEM: BOX BOUNDS ss ss ss
1.2529367078510196e+01 2.6956258864621386e+01
1.2094962912738579e+01 2.8632193691933022e+01
1.2539310591179277e+01 2.8250689620770451e+01
ITEM: ATOMS x y z vx vy vz
17.7278 14.8411 16.7128 -1.36381 -0.397892 -1.35415
17.4589 16.0538 14.1471 0.271688 -1.31518 1.16991
15.8211 18.0209 15.1819 0.457586 -0.0475078 1.9739
14.3492 20.0128 16.1966 0.159751 -0.920249 -1.4241
19.1251 19.95 15.5047 -1.83801 -0.605361 -1.17749
21.1528 18.0376 16.0041 -2.4722 -2.62386 -1.84387
20.8597 19.2646 13.4735 -1.2054 1.59677 1.01869
18.5317 17.4499 16.177 -1.44517 -3.89835 -2.44643
18.141 18.3583 13.6038 1.18021 -1.68399 1.24945
20.349 16.6447 13.9322 -0.0585747 -0.376083 1.38769
23.9012 18.9939 16.4941 2.09266 -0.934886 0.259191
23.5533 20.2149 13.6969 -0.329161 -2.73372 2.48303
25.5293 18.639 14.0986 -1.63177 0.267053 -0.364059
22.9857 17.4878 14.2726 1.09567 -0.0891198 0.314185
17.29 23.1917 14.2594 0.158808 0.677204 -1.88633
14.988 22.693 15.8583 -0.742014 0.855734 1.34422
16.3754 20.6594 14.3594 1.04726 0.948417 -0.582371
19.7758 22.7668 15.1241 -1.00662 1.23097 -3.12379
19.6759 23.807 12.6425 -0.54358 0.824115 -0.804835
21.9932 20.8149 15.7505 1.18869 0.361218 -2.51032
21.6825 21.9444 13.0604 0.846626 0.324932 -0.899346
18.743 21.1577 13.1045 -1.06547 -0.158835 0.183717
23.9896 22.8496 14.7376 0.692926 0.519018 1.80581
25.8496 20.8538 15.4699 -1.91041 -2.36273 0.263141
16.7104 24.8615 16.5335 1.3187 -1.29253 1.47582
19.0546 25.4264 15.0082 -0.617968 -0.543477 -2.13738
21.762 24.3635 14.3125 -0.260961 0.540839 -1.47249
24.0132 25.3594 15.9677 2.53761 -0.844839 2.3771
16.405 15.4598 20.1414 0.590563 -0.883145 0.389425
19.0892 16.287 18.7034 1.02018 -1.46218 -1.82232
21.1225 14.2574 19.0281 -0.606519 0.0584214 -0.322168
20.2269 15.2553 16.4575 -0.17049 -1.29889 1.28599
18.2605 13.6633 19.1284 1.78729 -0.34891 2.03538
26.2244 16.3133 19.2921 1.53828 1.17768 1.47015
23.8179 14.9945 19.2752 1.68902 -0.16162 0.965991
23.2749 16.0351 16.6186 1.58837 0.769923 -1.78129
17.0267 17.9659 19.6863 -2.13242 -0.476085 -0.370538
16.7714 19.3788 17.1767 -2.18184 -1.03343 -0.246752
15.9122 16.5788 17.447 0.25551 -0.223667 0.0315502
14.4371 18.611 18.6978 -2.25404 -0.134391 -1.06396
19.3441 18.7925 18.1483 1.54741 1.51292 -0.398286
21.7745 16.9437 18.5149 -0.15355 -2.70337 -0.0730496
22.2804 19.6582 18.4054 0.566337 1.16977 1.46533
24.3316 17.8961 18.9882 0.937904 -0.121282 -1.98217
26.3067 19.5541 17.8746 0.468779 0.267278 0.00543818
25.7946 17.1447 16.6158 0.0503851 0.546309 -0.866511
15.3457 21.596 18.4551 -2.12016 1.97264 0.454718
17.0216 23.6257 19.0937 0.0348666 1.76314 -0.867671
13.3204 20.7391 19.8006 -0.845618 1.27059 0.436662
12.9678 21.9569 17.4144 0.61495 -0.327827 -0.172995
14.5992 24.3156 18.164 -1.05092 -1.12375 -0.365387
20.2594 20.431 20.3221 0.142837 -0.0285163 -0.787574
20.0837 21.7578 17.5081 1.11797 0.518173 -1.36588
17.8487 20.9382 19.2838 0.75105 -0.166108 0.544034
17.4594 22.0481 16.7077 -3.36208 -0.389 -1.61214
19.6327 23.1742 20.182 0.631321 1.26127 -0.245305
19.3593 24.4405 17.6003 -0.013244 3.64986 -0.835603
22.2083 23.4716 16.893 1.544 2.49317 -2.48907
22.4616 22.3014 19.4568 1.1877 1.49069 -1.1671
24.2512 23.9368 18.8749 0.464911 1.28306 -1.32089
24.6418 20.5035 19.9572 2.4422 1.49096 1.63272
24.203 21.5865 17.4469 0.377812 0.168211 1.34826
26.6192 22.1323 19.1432 1.08928 1.62919 -0.449742
25.787 23.441 16.5661 -0.0796521 2.55221 1.68837
16.1374 26.185 18.8404 0.282766 -0.78331 1.51585
18.7627 25.5669 19.9931 -1.68296 -0.726532 0.0180199
18.3916 26.7405 17.187 -1.36695 -0.48283 1.51219
21.669 24.8604 19.2845 0.252739 2.21461 -2.05814
21.391 26.0194 16.4316 0.161313 -0.798713 -3.17342
18.2556 28.1376 19.4296 0.0580243 0.469309 0.235504
20.6935 27.2602 18.9799 -1.14354 0.144315 1.70465
23.4544 26.5587 18.3092 2.30608 -2.06199 -1.20613
26.2563 24.7516 20.1537 1.8173 2.16038 -0.944614
26.0439 25.9479 17.8583 -0.744782 -1.71629 0.523612
16.8111 14.315 22.7141 2.44919 -1.20753 -0.206907
21.9018 14.4599 24.0244 -1.58813 2.20837 -0.799069
21.826 15.8738 21.2882 2.07314 0.593 -0.15945
19.2689 13.8911 23.7633 0.559439 -0.0718441 -1.40064
19.0333 15.2952 21.1991 -0.706469 0.423513 -0.0422194
21.0482 13.1783 21.6787 -1.64942 0.938559 -0.186891
18.7386 12.4853 21.8096 1.14768 -0.588718 -0.240407
24.8105 15.6219 23.954 0.28437 -0.102533 -2.35335
26.2475 15.0527 21.8115 0.834823 0.759192 1.32094
23.5594 14.1226 21.9861 -0.846733 1.81132 1.11171
15.8525 19.2722 23.3986 -1.50137 1.36978 -1.23226
15.6667 20.2965 20.8545 -1.46224 -0.831519 2.37627
13.4918 19.5821 22.1949 -1.55638 0.302803 -0.285038
15.0727 16.0079 23.8882 -1.08482 1.22758 -0.303116
14.6843 17.4482 21.4481 -0.605485 0.0312268 -0.336013
20.5865 19.087 23.2741 -0.994175 -1.92708 1.38913
17.9755 19.666 21.9981 0.639835 -1.40972 0.458679
20.0168 16.5347 23.3924 -0.642232 -1.7957 0.368127
19.6722 17.7957 20.9121 -0.663125 -0.67733 1.47072
17.3108 17.0464 22.3357 -1.14899 -0.518353 -1.77381
22.7315 17.3133 23.3845 0.0752977 -2.25056 0.370105
22.4252 18.6315 20.825 0.956965 -1.52294 -0.668472
24.732 19.4055 22.5094 -1.42715 -1.45953 -0.192646
24.343 16.8964 21.3158 -0.603759 -0.402631 0.523804
26.7103 17.3099 23.1208 -1.37903 0.712589 -1.08661
26.7017 18.8215 20.6669 0.360828 1.16635 -0.463849
16.8984 22.7326 21.6445 -2.89453 1.80269 -1.13369
14.7077 21.9092 23.1535 -0.716907 -0.595815 0.265156
14.5162 23.2335 20.6816 -0.379111 -0.516637 1.32773
16.3673 24.0139 23.9005 0.72599 -0.346623 0.957782
19.6853 21.9235 22.6824 -0.0426732 -0.0240171 -0.210556
17.3746 21.2483 24.206 -0.0734876 0.481654 0.157148
21.671 24.0459 21.8732 0.233551 0.651126 2.91865
22.3612 21.2427 22.1094 1.28214 -0.742348 1.73871
24.4337 21.9294 23.6847 -0.434653 -0.536582 -0.114896
24.2949 22.9564 21.3908 1.8997 0.574734 -0.199444
26.1016 23.8748 22.9664 0.0427478 -0.706086 1.47424
26.5528 21.3476 21.9867 -0.957576 -1.07071 0.048331
16.2426 25.2649 21.5131 0.231933 0.110878 0.770677
18.8093 24.4919 22.4105 0.278447 2.55164 2.36086
18.8752 27.2986 22.1217 0.665283 -1.0176 1.8148
20.7357 25.6026 24.1095 -2.15511 0.413998 -0.142317
21.5145 26.7887 21.6664 1.10543 1.03449 -0.0906343
23.6778 24.9542 23.5918 1.00127 0.663168 0.506756
23.786 25.6963 20.9351 2.00416 -0.555732 -0.0472724
20.3357 15.3107 26.0782 -1.2633 1.65889 -0.115737
17.5441 15.6478 25.0763 1.58597 1.51234 0.422104
23.0785 16.3644 26.0508 -0.920165 0.258188 -0.706959
16.1958 17.7528 26.0238 -0.569499 -0.108434 -2.6262
13.7685 18.2114 25.0774 -0.784639 1.32134 -0.21237
21.4905 17.3916 28.1077 1.82778 0.750684 3.2695
20.9824 18.0984 25.5807 1.95406 -0.262058 4.95922
18.597 17.4414 27.0484 -1.2686 -1.21724 0.0529617
18.3432 18.3815 24.5906 -2.14463 -0.00196615 1.77083
20.3063 19.6988 27.8996 1.10933 -0.612307 -0.192812
17.6128 20.2178 26.775 0.486123 0.329511 -1.91385
23.1575 18.9917 27.1764 2.20749 0.268129 0.28017
22.8918 20.1466 24.576 2.15962 -0.51408 1.43864
24.8618 18.0919 24.9824 -0.979044 -0.35448 -1.70572
26.5455 19.967 24.4673 -0.6886 -0.751846 1.37907
15.2604 20.5351 25.7025 -1.05844 -1.93134 -1.58418
17.2715 22.8597 26.4616 2.35348 0.145931 -0.186302
20.0161 20.8869 25.3288 -0.737497 0.381589 3.16744
19.6137 22.4055 27.5316 -0.80178 1.31527 -0.850924
19.2516 23.3867 24.786 -0.28856 -0.470839 -0.97138
21.9281 22.988 24.2443 1.29393 1.60036 0.112025
21.5647 24.2523 26.4725 -2.96552 -0.864003 1.6646
22.0899 21.5918 26.926 -0.408929 -0.460056 -2.62546
24.8053 20.8477 26.3532 0.727234 0.36025 -2.32245
24.0463 23.4389 26.0953 1.19171 -1.60942 -1.70111
26.6152 22.5295 25.3472 -0.0492637 -0.860459 0.11826
18.9906 24.8482 27.1368 0.217087 -1.09081 -0.553959
18.1604 25.8834 24.5713 0.510541 0.356469 3.01979
ITEM: TIMESTEP
2000
ITEM: NUMBER OF ATOMS
147
ITEM: BOX BOUNDS ss ss ss
1.2779671965055323e+01 2.6748194580091944e+01
1.2706905543985430e+01 2.7961778578915911e+01
1.2697124777327343e+01 2.8044560440734294e+01
ITEM: ATOMS x y z vx vy vz
17.0481 15.8991 14.3848 -0.45868 2.54018 1.73756
19.7358 16.6193 14.0664 0.00608096 -2.14855 -1.74494
15.9689 18.0587 14.9961 -0.18585 -0.127378 1.63815
14.436 19.8536 16.2351 -0.0850151 -0.0764228 0.078715
18.9769 19.9001 15.5998 1.01832 0.890597 -0.151752
21.0393 17.7245 16.3305 2.84707 -1.10335 0.611115
20.7833 19.1075 13.642 1.8893 -0.791423 -1.88392
18.2969 17.2892 16.3246 0.419772 0.910167 -3.01029
18.0658 18.4338 13.5156 0.244259 -1.65866 0.956896
23.7975 18.865 16.4852 2.40641 -1.66857 -1.1819
23.2719 20.0124 13.8094 0.961559 -0.527778 2.11848
25.3057 18.2946 14.1386 -2.02227 0.117957 -1.18273
22.6588 17.2247 14.3987 -1.09598 0.826584 0.599015
17.4467 23.3825 14.1204 1.75226 1.02653 0.844255
15.1221 22.7118 15.7738 -0.203905 -0.604008 3.14454
16.4708 20.7382 14.5754 -0.146195 0.214107 -0.354052
19.9175 22.6841 15.0545 0.105442 -0.173887 0.828505
19.5225 23.6544 12.5613 -0.204322 -3.15314 3.26479
21.6968 20.5963 15.8085 0.94668 -0.251224 0.735903
21.2889 21.7389 13.2747 -0.646114 -0.843269 -0.240011
18.7765 21.0729 12.8596 -0.150902 -1.05147 0.757618
23.6857 22.4631 14.649 -0.728741 0.87849 -1.07944
25.7124 20.4987 15.2481 1.59968 1.29761 -1.02479
16.6238 24.5942 16.4247 1.19328 2.66863 -1.5441
19.2486 25.4092 15.0675 -0.902016 -1.15415 1.89378
21.7182 24.5266 14.1575 -0.631986 -1.79687 1.25728
23.9543 25.1058 15.9376 0.895638 1.72349 1.03865
16.7734 15.0665 19.9104 0.00555278 -1.77952 0.293616
17.6746 14.8624 16.8315 -2.12665 -0.498861 1.52214
18.9537 16.1329 18.7395 1.1348 -0.241551 -1.91059
21.8979 14.3756 19.3326 0.731162 2.09479 -2.19074
20.3757 15.0466 16.9119 3.8834 -0.322857 0.442578
19.2789 13.6385 19.0668 0.0338817 0.217215 -1.46876
26.7802 16.5484 19.7553 0.307227 1.80657 0.959817
24.4497 15.2176 19.13 -1.08233 -1.18607 -1.57437
23.5603 16.1763 16.7308 -1.44541 -0.842171 -0.602457
17.2757 18.2922 19.8291 -2.86173 0.0898367 0.52394
16.8118 19.395 17.268 -2.10279 0.0933186 -0.607631
16.1026 16.9995 17.9525 -1.10181 -1.39409 0.289639
14.4726 18.8248 19.1184 -0.507363 -0.765334 -1.75116
19.5404 18.8429 18.2414 1.11446 0.752234 -1.17565
21.7436 16.9188 18.8584 1.14896 -1.46275 -0.663527
22.1934 19.591 18.3052 -2.90991 3.30071 1.1651
24.4826 17.903 18.9554 -0.0649418 -0.514202 -0.498567
26.2539 19.7738 17.9304 -0.657843 -1.09565 -0.196506
26.135 17.1679 17.0223 0.192382 -0.356179 0.129891
15.6107 21.6099 18.1431 -1.65492 0.47403 1.23043
17.0276 23.7534 19.032 0.187847 -0.558078 1.98188
13.6132 21.5458 19.7755 0.474333 -1.35969 0.590704
13.1567 22.141 17.3411 1.79252 -1.6071 1.6062
14.4109 24.1121 18.3102 2.4103 3.0698 0.218244
20.5209 20.4488 20.2588 1.39788 -0.418983 3.82563
20.2453 21.6905 17.6679 -1.6497 -0.137908 2.53409
17.925 20.999 19.2691 1.56893 -0.105931 -0.325583
17.7628 22.1159 16.5446 -0.834922 1.53573 -0.961363
19.6029 23.0534 20.321 -2.04638 1.36648 0.0337667
22.1195 23.4451 16.9511 -1.74864 -0.874987 -1.27308
22.3327 22.257 19.626 -2.96575 1.26786 -1.25026
24.5543 20.6516 20.1501 0.000755755 -1.93936 -0.759805
24.1221 21.4221 17.4274 1.55521 0.604995 -0.362592
26.4488 22.5249 19.032 -0.352327 -1.7223 1.37036
25.6876 23.1652 16.2842 1.72334 -1.21741 2.07339
16.2442 26.1421 18.7141 -0.801867 -0.867286 -1.33753
19.2763 24.1947 17.5976 0.889235 -1.75054 1.47223
19.0486 25.6994 20.2281 -0.496408 -1.06866 -2.81058
18.8091 26.6707 17.751 -0.708157 -0.782353 -0.764995
21.4183 24.8564 19.3759 1.10029 -0.0800827 -0.301224
21.3752 26.1478 16.6392 -0.858121 0.75003 -0.845058
17.6403 27.9194 19.9193 2.91449 -1.44712 -1.18985
21.0216 27.5602 19.0683 -1.22813 0.437474 0.075626
24.2833 24.0108 18.6787 1.09458 2.69864 -1.15096
23.5821 26.6466 18.3074 1.13596 -0.291229 -0.511341
26.1418 25.6719 17.5745 -0.404748 0.291819 0.677583
16.4547 14.8797 22.4874 0.607352 1.63649 1.10278
21.8739 14.5114 24.0076 -0.16755 -0.77824 1.05362
21.5769 15.8527 21.5148 -0.968018 -0.051569 0.341563
19.2933 13.928 23.6975 -0.550742 1.65851 -2.84918
19.0463 15.1287 21.2617 0.707412 -2.37666 -0.922562
20.8955 13.1374 21.465 1.03562 0.911636 -1.5266
18.3443 12.6484 21.2475 -0.459084 1.00377 0.367269
24.5663 15.5865 23.8418 1.95683 -0.965635 -0.123642
26.0607 14.8896 21.4845 -0.384529 0.151639 1.13436
23.446 13.9819 21.7597 0.0986744 -0.173755 -0.119954
15.9231 19.1068 23.1702 0.458998 0.413233 -0.743667
15.7351 20.3056 20.8262 0.85219 1.48641 0.511321
13.5882 19.2549 21.7032 -0.217707 -0.213092 -2.56086
15.2119 16.6145 23.8969 -1.83552 -0.323736 1.19346
15.1732 17.077 21.1823 -0.00420631 1.84343 -1.11329
13.7453 19.0978 24.5919 2.44764 -0.712557 -1.48007
20.7041 19.2421 23.0209 -0.636463 -0.144284 1.51626
18.219 19.919 21.8615 2.0498 1.45873 -0.410521
19.8623 16.4759 23.5156 1.29273 0.224486 0.471608
19.7801 17.5428 20.6783 0.123366 1.37418 0.082492
17.4473 17.0595 22.4242 1.13873 -0.44351 -0.560957
22.5819 17.3246 23.4712 -0.939969 -0.0102965 -0.271173
22.4755 18.7643 20.9116 -3.39635 2.23533 -0.675158
24.6108 19.3873 22.6198 -0.502142 -0.750973 1.19937
24.4378 16.9057 21.3716 -0.581672 -0.921948 -3.67369
26.7029 17.3344 22.8628 0.344531 -0.321976 -0.915984
26.3932 18.8983 20.6039 0.577868 1.05711 1.91678
26.6138 20.0426 24.0536 0.454023 0.829647 2.02578
17.1613 22.6585 21.5816 1.05167 -0.013567 2.28305
14.6093 21.6232 23.0378 0.116661 1.39131 -0.187872
14.7118 23.5925 20.8159 1.03588 -0.847419 0.393202
16.3464 23.9231 23.7113 -0.545908 -1.89766 0.320878
19.8491 21.9745 22.7466 -1.02854 0.870349 -4.21703
21.57 23.9634 22.0156 -1.41163 0.858205 1.57085
22.5212 21.2679 22.1741 -0.664253 -0.58187 -0.447862
24.4315 22.1541 23.7618 -0.294873 0.990838 -2.01281
24.3838 23.2382 21.3671 0.399078 -0.0474638 -1.93963
26.6123 21.7717 21.7127 0.633491 -0.472366 1.16492
16.4934 25.5649 21.3417 0.208167 -0.763889 0.102839
18.8287 24.7849 22.5624 -0.177205 0.0591421 -2.88021
18.3235 27.3033 22.6773 0.261898 -0.417901 1.56519
20.6622 25.6011 24.3575 3.40223 -1.73312 0.435755
21.011 26.4647 21.7745 -2.02667 -1.01596 1.13751
26.1279 25.0098 20.0702 -1.05012 -1.15665 -0.83985
26.1355 24.205 22.8881 0.0529477 0.693905 0.572995
23.4804 24.8433 23.7868 -1.29208 -1.16278 0.0736332
23.588 25.8195 20.9817 -1.59451 1.49246 -1.05694
20.2771 15.3439 26.0508 0.347129 0.809562 -1.81145
17.6513 15.8715 24.9766 -2.91599 0.212223 0.738786
23.0238 16.0168 26.0042 0.237722 0.867565 -0.52892
16.0481 18.0185 25.9893 0.103708 -1.20796 -0.653916
21.4513 16.975 28.146 0.717173 2.35022 -0.154603
20.9824 17.9611 25.5929 -0.432398 -1.8535 1.60477
18.7971 17.2266 26.8304 0.087808 3.20808 0.509616
18.2415 18.4976 24.634 -1.75426 1.08069 -0.838293
20.441 19.5602 27.6864 2.05278 0.249889 -3.22078
17.852 20.0186 26.8065 0.3228 -1.97469 1.31323
23.0523 18.9008 27.2283 1.59812 2.00711 -0.749083
22.7149 19.9157 24.6799 -0.99808 -1.51853 0.00741246
24.8254 17.93 25.0296 -0.59724 -0.456147 1.48214
15.2264 20.8781 25.4706 -0.558011 2.64486 3.33562
16.8824 22.7786 26.5099 -2.08326 -0.471809 -1.0269
17.4805 21.4605 24.0641 0.417995 1.91801 0.719455
20.0171 20.7211 25.1017 -0.961347 -0.551719 0.00604846
19.4743 22.251 27.2171 0.866269 1.88071 0.637058
19.1633 23.5099 24.8695 -0.459085 0.183446 0.71487
21.7507 22.6538 24.4923 0.908265 0.250463 0.386944
21.3102 24.0701 26.7162 2.85565 -0.283623 -0.176279
22.3087 21.4776 26.8386 -0.126969 0.132968 1.21861
24.9657 20.642 26.1112 -0.516811 0.769212 0.748832
23.9058 23.5465 25.9935 0.544785 -2.37988 1.59917
26.8282 22.631 24.853 -2.30039 -0.279394 -1.06823
18.7459 24.842 27.0337 -0.137481 -0.0101331 -1.9959
17.7295 26.0171 24.9237 -2.80735 -2.04706 1.55377
ITEM: TIMESTEP
3000
ITEM: NUMBER OF ATOMS
147
ITEM: BOX BOUNDS ss ss ss
1.2999587238289203e+01 2.6949943072870269e+01
1.2793688360176752e+01 2.8331351072951893e+01
1.2856753194703492e+01 2.7914049849217630e+01
ITEM: ATOMS x y z vx vy vz
17.2481 15.9859 14.1586 0.0767997 -1.52195 1.2002
19.8729 16.7099 14.0206 -1.78303 -0.656837 -0.225124
20.8143 15.3911 16.4114 -0.445386 -0.0365686 -0.00921311
15.823 18.2225 15.0177 -2.18352 -1.22082 -0.787889
14.2217 20.2903 16.2296 -0.629875 2.07848 1.14474
16.4704 20.8029 14.5959 0.618001 1.77387 1.41026
18.8925 20.0744 15.5495 -0.0179294 -0.240085 -0.198592
20.8333 18.0422 16.157 1.30429 -0.111522 -0.391056
20.5962 19.1245 13.5705 0.829314 2.68353 0.521753
18.0818 17.2692 16.455 1.65943 0.586458 -1.5772
17.8249 18.3665 13.5081 0.439799 0.370987 1.9034
21.7278 20.6924 15.6114 0.37292 1.83444 2.66314
23.7123 18.6271 16.4617 1.4091 -1.126 -1.39771
23.5356 19.8433 13.8135 -0.552993 -1.44457 0.704527
25.2756 17.798 14.2893 0.71934 -0.191584 -3.51688
22.7166 17.1081 14.4735 -0.385122 1.49241 0.631756
17.3301 23.4051 14.4071 1.16129 -0.500979 -0.778712
15.0391 22.8284 16.3015 -1.74081 -0.151628 -0.589237
19.7022 22.8898 15.3327 0.517125 0.436811 1.08208
19.6895 24.0165 12.8769 -0.387259 -2.45835 3.97954
21.443 21.9167 13.3044 -2.3692 1.57223 -0.406445
18.688 21.2104 13.1968 -0.564399 -0.677617 -0.799828
23.9652 22.508 14.6873 -1.91144 -3.42174 0.418322
25.7691 20.1069 15.7219 -1.77767 -0.453614 -0.595505
16.8567 24.9382 16.7697 1.05027 0.422547 -0.762885
18.9608 25.3791 15.1611 1.56832 2.01416 1.06413
21.8164 24.5354 14.2969 -0.146803 0.225006 0.670819
21.303 26.0162 16.4567 1.10063 1.99737 -2.17115
24.4567 25.2483 16.0343 1.6152 -1.90577 -0.660453
16.8243 15.042 19.8437 0.194338 0.930954 0.222632
15.6078 16.5734 17.0916 -0.63053 -0.200156 -1.12865
17.4899 14.846 16.8535 2.75867 1.4539 -0.908731
19.5951 16.0988 18.536 2.86042 -1.00764 -1.80422
21.6662 14.5147 18.8305 -0.289738 1.53338 0.627567
19.0168 13.5171 18.9223 -1.80163 0.68101 1.54535
22.1094 17.1617 18.4639 0.938203 -1.02185 -0.551848
24.607 15.2409 19.3751 -1.12832 0.400782 0.014765
23.4436 15.8859 16.6332 0.0352734 1.38331 0.376296
25.7348 17.0066 16.948 0.950538 1.27781 -0.608857
17.3016 17.5239 19.355 0.742073 -3.28642 -1.29909
16.7776 19.434 17.2795 0.656156 -0.529237 1.3113
14.5516 18.2866 18.4955 -1.34123 -1.10985 -1.96039
19.5275 18.9431 18.2381 -1.06381 0.497378 -0.603639
20.492 20.3145 20.4581 1.00139 1.19421 -0.358912
26.6793 17.1814 19.9121 -1.8496 1.35795 0.691319
22.2405 19.96 18.1992 -3.20257 0.643299 -0.171157
24.5582 18.4642 19.3409 0.613514 0.387248 2.91295
26.7848 19.588 18.3542 -1.80372 0.744177 -0.426311
24.8344 20.9991 20.2764 1.36525 1.17041 -0.526922
15.15 21.3878 18.5725 -0.903514 -1.21142 -2.05339
17.1154 23.5657 19.1855 0.562735 2.33951 2.31822
13.1967 20.6165 20.1608 1.23448 -0.91858 1.30424
12.6911 22.2475 18.0349 1.08854 0.762347 1.0452
14.2711 24.2304 18.1681 -1.50042 -1.93212 -1.53899
20.1161 21.4959 17.8792 1.89445 0.253108 -1.17233
17.8753 20.677 19.3734 -1.57436 -0.345184 1.10818
17.5643 22.0802 16.999 -1.26887 0.0606841 0.78465
19.8453 23.0281 20.0978 2.1545 0.46682 -1.01693
22.1624 23.503 16.6068 0.265819 0.156233 1.5773
22.3208 22.443 19.3929 -1.12775 0.880702 -0.180364
24.4185 21.3994 17.459 3.19943 0.595166 -1.23919
26.5483 22.49 18.9971 0.907738 -0.924822 -0.336512
26.0296 23.1346 16.3522 1.62651 -0.882086 -0.216774
24.4055 23.9701 18.596 -1.00469 -1.62793 1.16206
16.5268 26.2604 18.9695 0.810614 1.0115 -1.01994
19.3843 24.4943 17.8032 1.6825 -0.981328 1.52012
18.8462 25.6663 20.2142 -0.22048 -1.3787 -0.906143
18.6922 27.0859 17.7741 2.12882 0.825513 -1.48653
21.7076 25.0284 19.2949 0.595612 -0.336592 -0.993636
18.7706 28.1935 20.2978 -1.71195 -1.93403 1.65268
21.207 27.4728 18.8089 -1.10567 0.923123 0.846322
23.641 26.5982 18.1354 -2.54688 1.37835 1.38956
26.4818 25.2894 18.0814 0.626711 -3.26987 -0.28609
26.6425 24.5788 20.4323 -0.107516 0.723703 0.213518
16.4852 14.6712 22.8617 0.408031 0.957746 -1.40568
15.0743 16.79 23.9309 0.0738093 -1.0411 2.39011
21.7121 14.6119 23.5543 0.62521 -0.11675 0.199597
21.6348 15.8516 21.0378 -1.10194 1.2897 1.69496
18.8459 13.5966 23.647 1.55426 2.34752 1.22599
18.8519 15.1737 21.2515 -2.7834 -0.873564 -0.304122
20.7513 13.3062 21.3442 -0.306007 -0.303797 -0.117885
18.0499 12.7116 21.5606 -0.386432 0.728618 -0.573911
19.6087 16.4006 23.4907 0.484292 -2.22806 -1.34897
24.7803 15.299 23.9847 -0.0716448 -0.699792 -0.382799
26.2438 15.0453 21.6968 0.433481 0.227079 1.14731
23.7143 14.128 21.8313 0.195503 -0.751135 0.416687
24.2506 16.6173 21.7197 -0.73477 -0.497194 0.671342
15.9483 19.3611 23.7217 -1.14699 -1.45577 0.223603
15.641 19.3353 20.9373 0.852887 0.342621 1.76484
13.4026 18.7648 22.4275 -0.783705 -2.26749 -0.583664
14.9695 16.7048 20.8545 1.32209 1.96733 0.219427
17.3077 17.3804 22.2243 -1.34949 0.667199 -1.75304
20.5394 19.0896 23.008 1.09973 -0.98137 -0.847683
18.1458 19.9027 21.9654 0.760061 -0.248629 2.89073
19.6484 17.7617 20.6396 2.61092 0.0934865 -0.605082
22.6 17.3037 23.7702 0.20824 1.07758 -0.0212626
22.4513 18.5221 20.9835 -0.869606 -1.58762 -0.0702842
24.745 19.2015 22.4988 -0.440188 -1.74235 -1.01893
26.802 17.3197 22.8268 0.609214 0.660389 -0.0817985
27.0929 19.7329 21.0904 1.69473 -1.88237 0.65867
26.765 20.1801 23.806 -0.147676 0.024989 -1.70289
16.4686 22.1857 21.3601 -1.30087 0.0850059 -1.92528
14.2087 21.4023 22.6789 0.416348 0.20268 0.787862
14.1105 23.1025 20.3389 0.403936 0.777051 -0.302516
15.7495 23.4614 23.7071 -0.8709 0.49925 -0.978121
19.9482 21.985 22.668 -0.706553 -2.29361 -3.39985
21.6075 24.0796 21.9459 -0.919007 1.08292 0.954071
22.5486 21.1525 22.0334 -2.89685 -1.92077 -0.256117
24.7426 21.7897 23.5734 1.38656 -0.173059 -0.293489
24.1508 23.4252 21.4336 0.692064 1.76236 1.78984
26.801 22.2423 21.8343 -2.03678 0.273497 -0.737131
25.7625 24.3911 23.3023 0.302194 -1.12478 0.276173
15.998 25.1197 21.5017 -1.04271 -2.35183 -0.191767
18.3589 24.2244 22.386 -1.42278 -1.00089 0.449707
18.292 26.9109 22.6085 -1.36838 -3.83322 1.81959
20.6851 25.912 23.7317 -1.7755 0.573441 -1.88371
21.1497 26.8094 21.2615 1.27014 2.09352 -0.200485
23.3286 24.9614 23.7896 -1.02526 2.33111 -0.856664
24.0956 25.7844 20.5262 0.135584 0.490568 -0.825945
20.0389 15.3403 26.0458 0.72137 0.275844 -0.637106
17.1989 15.8228 25.3391 2.01409 0.0568508 0.299787
22.9566 16.0848 25.9703 -1.05465 -0.368811 2.12634
13.5997 19.4382 24.7251 1.09814 2.28904 -3.1578
16.0582 18.3138 26.387 0.59893 -0.229874 -1.24832
15.2899 21.0875 25.6341 1.43423 1.0596 0.816725
21.5348 16.9833 27.9964 0.647175 -0.725843 -1.02554
20.8294 17.9543 25.5334 1.26162 -1.50787 0.640921
18.5179 17.3194 27.1008 -0.714195 1.49689 -0.705139
18.3211 18.4685 24.5122 -0.515367 0.872459 2.00223
20.3954 19.542 27.541 -0.95983 0.43073 0.933361
17.8073 20.4011 26.7083 -0.0943979 0.71411 0.267503