ITEM: TIMESTEP
0
ITEM: NUMBER OF ATOMS
146
ITEM: BOX BOUNDS ss ss ss
1.1968229604093080e+01 2.8655695124028160e+01
1.1952595345238286e+01 2.8829402578916277e+01
1.3847912353767544e+01 2.6942087878426854e+01
ITEM: ATOMS x y z vx vy vz
15.2777 14.407 16.6615 -0.19652 -0.580384 2.31136
17.8982 13.8555 17.7278 -1.11847 -1.20421 0.689994
17.627 15.0264 15.1106 0.679806 -0.528202 0.425407
19.7332 13.1276 15.6275 2.45753 -1.17962 2.01354
23.5039 15.5885 17.9225 1.50954 -1.24654 -2.54536
20.701 14.722 17.8252 -0.326792 -0.284541 -0.0695484
20.4299 15.8929 15.208 1.28283 0.59978 0.643658
22.536 13.9942 15.7248 1.51549 2.27553 -0.785154
25.3389 14.8607 15.8221 -0.434976 0.667551 0.824151
15.9744 17.1724 16.242 -0.265101 2.37548 -0.280541
14.3217 19.3183 17.3733 -0.733223 -0.494282 -0.124054
13.625 16.553 17.7928 0.125527 2.00521 1.67766
19.2916 19.3861 16.8887 -1.88555 0.5591 -0.511685
18.5949 16.6208 17.3083 0.117627 -0.0631896 -0.752327
18.3237 17.7917 14.6911 -0.757132 0.0340244 1.56994
16.6711 19.9377 15.8224 1.21904 0.0391263 -0.112558
22.0944 20.2526 16.9861 -1.45079 -0.579714 -2.45575
24.2006 18.3538 17.5029 -0.0963964 -0.542514 -0.819796
23.9294 19.5248 14.8857 -1.60037 0.245882 -1.20084
21.3977 17.4873 17.4056 0.32702 1.42228 0.332535
21.1266 18.6583 14.7884 -0.882716 0.141552 0.85338
23.2327 16.7595 15.3053 -0.917055 0.181054 1.24334
26.1152 20.3075 16.5941 1.21401 1.14963 -0.154787
26.3067 16.455 18.0198 0.82915 0.796451 1.11508
26.0356 17.626 15.4026 1.34346 0.00616879 -0.150955
28.2213 18.4087 17.1109 -1.50997 -1.36508 0.220356
15.0184 22.0837 16.9537 1.33855 -0.404086 -1.52647
19.9883 22.1514 16.4692 -1.66144 1.59544 0.299827
19.7172 23.3224 13.852 0.728128 0.766846 -1.24767
17.6389 21.5321 18.0201 0.0552252 0.764539 -0.0461588
17.3678 22.703 15.4029 -1.3422 -0.172277 0.320972
19.0204 20.5571 14.2715 -1.67299 -1.04481 1.05381
16.7998 24.2764 17.7503 2.73528 -1.04717 -0.77919
22.174 22.9341 18.1775 2.33792 -0.260943 0.507107
21.9029 24.1051 15.5603 1.14095 0.696321 -1.02848
21.8233 21.4236 14.3689 0.263151 0.527238 1.20496
24.009 22.2063 16.0772 -1.13747 -0.512163 -1.33103
26.1948 22.989 17.7855 -0.647204 0.0657649 0.570479
19.1492 24.8958 16.1994 -0.939939 1.24706 -1.1265
21.335 25.6785 17.9077 0.216137 -0.178143 -0.405599
24.0886 24.8878 17.2687 1.17788 -1.51173 -1.8048
15.5488 13.2361 19.2787 1.63387 -1.65324 0.460444
13.8961 15.382 20.41 1.14489 0.50072 -1.67355
19.1371 14.2789 22.5427 1.7833 -0.551895 -0.794305
18.866 15.4498 19.9255 0.211886 -1.3594 0.421732
18.1693 12.6845 20.345 -0.172796 2.51763 -0.27266
16.5166 14.8305 21.4764 -1.26869 -0.587024 -0.087548
16.2455 16.0014 18.8592 -0.430223 -0.0688919 2.6692
20.0043 11.9567 18.2447 -0.062727 -1.70213 -0.74453
23.775 14.4176 20.5397 -0.513305 0.193048 -0.326985
20.9722 13.551 20.4424 -0.334921 -1.23921 0.523635
22.8072 12.8232 18.342 -0.817927 0.504837 -0.265502
26.5778 15.2841 20.637 0.0197507 -0.860634 1.34999
25.61 13.6897 18.4393 0.0910748 -1.86768 -0.848369
15.5607 19.7417 22.1882 -1.34636 0.411739 0.178154
12.9402 20.2933 21.1218 1.32603 0.65725 0.911049
14.5928 18.1474 19.9905 -1.11231 -0.824207 1.12875
12.2434 17.528 21.5414 0.773475 -0.213662 -0.1495
11.9723 18.6989 18.9242 0.872979 -1.16341 -0.109925
17.91 20.3611 20.6373 -1.43781 1.34593 0.72015
19.8339 17.0442 22.1232 -3.09638 -1.95045 -0.632908
19.5627 18.2152 19.5059 -2.34513 -0.343262 -0.652834
17.2133 17.5958 21.0568 0.21863 0.98366 1.02466
16.9422 18.7667 18.4396 0.34014 -0.0861731 0.58644
20.5306 19.8095 21.7036 1.94537 -0.804081 -0.553351
22.6367 17.9107 22.2205 -0.744344 -0.0279854 -0.387161
22.3656 19.0817 19.6033 1.1028 0.610204 1.05624
24.4717 17.1829 20.1201 0.4695 0.625373 1.5278
21.6689 16.3164 20.0228 0.617031 2.55367 -3.37802
24.5513 19.8644 21.3116 0.196831 0.801827 -1.23193
26.6574 17.9656 21.8285 -1.09988 0.13299 0.481071
26.3863 19.1365 19.2113 -0.871332 -2.28389 -0.356482
28.572 19.9192 20.9196 -1.02924 -1.46336 1.75628
28.4924 17.2377 19.7281 -0.860032 -0.503965 -0.666887
15.2895 20.9127 19.5709 -0.150446 0.344691 1.42722
12.669 21.4643 18.5046 -0.282412 -0.418096 -2.02389
14.7216 22.4861 21.9183 -0.300208 -0.429951 -0.27719
14.4505 23.6571 19.3011 0.748288 -0.845295 0.787636
12.1011 23.0377 20.852 -0.341353 -1.57152 -0.00171087
20.2594 20.9805 19.0864 -0.144178 1.84387 -1.83529
19.6915 22.5539 21.4338 0.0856454 -0.191231 1.11074
19.4204 23.7248 18.8166 0.539377 0.101875 -0.513477
17.071 23.1055 20.3675 1.84978 -0.650564 -0.198384
22.4452 21.7632 20.7947 -0.0195579 -0.52665 0.441551
21.6061 24.5075 20.5249 1.71559 0.0944791 -0.984554
24.3597 23.7168 19.8859 -1.48398 -0.53932 -0.661581
24.2802 21.0353 18.6944 -1.23928 0.625189 0.522318
24.6309 22.5458 22.5031 -0.62619 0.403282 -2.08694
26.5455 24.4995 21.5942 3.81577 -0.803326 0.578932
26.4659 21.818 20.4027 -1.01187 -0.533696 2.16185
28.6516 22.6007 22.1111 -0.0835442 -1.43624 -0.656026
28.3805 23.7716 19.4939 0.705634 0.6546 -1.4944
28.3009 21.0902 18.3024 -0.54089 1.67266 -0.667087
13.8825 25.2305 21.6485 1.63469 2.35988 0.407839
15.664 27.4233 22.445 -1.47671 -0.857536 -0.896664
18.8524 25.2983 21.164 -0.513003 0.347685 2.12444
18.5813 26.4692 18.5468 -0.21524 -0.793808 -0.344955
16.2319 25.8499 20.0976 0.754385 0.302987 -1.56277
18.0134 28.0426 20.8941 -1.1931 -0.429418 -1.62142
20.767 27.2519 20.2551 -0.297871 -1.11332 0.891576
23.7918 25.2902 22.2332 -0.263137 1.45808 1.22575
23.5207 26.4612 19.616 0.790665 -0.505776 1.96759
22.9527 28.0346 21.9634 -1.23398 -0.162953 0.767985
26.2743 25.6704 18.977 0.502253 0.784272 0.620626
25.7064 27.2439 21.3244 0.932806 -0.209327 0.385967
20.105 15.8733 24.7404 -0.670199 -1.40654 -0.372225
21.94 15.1454 22.64 -2.06799 2.08406 0.106356
24.7428 16.0119 22.7373 0.507051 0.123414 1.7462
15.8318 18.5708 24.8054 1.077 -0.493823 -0.0371027
13.2113 19.1224 23.739 0.169397 1.32701 0.308044
14.864 16.9764 22.6077 -0.254852 -0.952132 -0.276206
18.4523 18.0192 25.8717 0.961384 1.01889 0.0589759
18.1812 19.1902 23.2545 1.43677 0.521007 0.246086
20.2338 20.212 26.6682 0.689814 -0.389685 -0.331708
17.4845 16.4248 23.674 0.141882 -0.672364 -0.583312
21.0728 17.4676 26.938 0.946169 0.33436 0.812314
20.8017 18.6386 24.3208 0.840296 0.148236 -0.273982
22.9874 19.4213 26.0291 0.940538 -0.329021 0.733367
22.9078 16.7398 24.8377 -1.01935 2.14133 -2.80235
24.8224 18.6934 23.9288 -1.52103 -0.698482 -2.17881
14.9927 21.3152 24.5355 0.785052 1.54502 -0.401461
12.3722 21.8668 23.4692 -1.17155 -0.352029 0.502896
14.1537 24.0595 24.2657 -0.143005 -1.8224 -0.566968
19.9626 21.3829 24.051 0.722739 -0.0655582 0.457523
17.6133 20.7636 25.6019 0.721928 2.06453 -0.59154
17.3421 21.9345 22.9847 0.735488 -1.01407 1.62336
19.3947 22.9564 26.3984 0.170006 -2.16833 0.0600051
19.1236 24.1273 23.7812 1.09063 1.65127 -2.10389
16.7742 23.508 25.332 -1.81716 0.913776 1.32195
22.7163 20.5922 23.4119 0.879008 -0.850762 1.09807
22.1484 22.1656 25.7593 -0.174154 0.814898 -1.01433
21.8772 23.3366 23.1421 -0.850441 -0.131008 -2.00605
24.063 24.1193 24.8505 -1.41044 -0.406972 2.31483
24.902 21.3749 25.1203 -2.30173 -0.471298 -2.13761
26.8166 23.3285 24.2114 0.885441 -0.0173698 1.1311
26.737 20.6471 23.0199 1.53997 0.958637 0.486627
15.9351 26.2523 25.0622 -0.216738 -1.12795 -2.32769
16.5031 24.6789 22.7148 -0.640488 1.55639 -0.779028
18.5556 25.7007 26.1286 -0.490495 -0.841588 -1.63132
18.2845 26.8717 23.5114 -0.444053 -0.0750679 0.857448
20.1991 28.8253 22.6025 0.0109873 -0.350963 2.25517
21.3093 24.91 25.4895 0.608319 -0.82544 2.48788
21.0382 26.081 22.8723 0.045997 -0.47733 -0.539199
20.4702 27.6544 25.2197 -0.101565 0.694116 1.50048
23.2239 26.8636 24.5806 0.822773 0.413705 1.0641
25.9775 26.0729 23.9416 -2.33341 1.40725 -0.0951065
ITEM: TIMESTEP
1000
ITEM: NUMBER OF ATOMS
146
ITEM: BOX BOUNDS ss ss ss
1.1968229604093080e+01 2.8655695124028160e+01
1.1952595345238286e+01 2.8829402578916277e+01
1.3847912353767544e+01 2.6942087878426854e+01
ITEM: ATOMS x y z vx vy vz
15.6139 14.8346 16.9019 -0.510724 -2.63841 -0.299433
17.938 14.0279 17.7179 2.35583 -0.276279 -0.88211
17.649 15.418 15.1396 -0.269915 -1.97357 -1.45246
19.7375 13.8165 15.8648 0.980539 -1.88814 -1.06676
23.3643 15.8992 18.1571 0.00658477 -0.485709 0.717611
20.7994 15.0524 18.1387 0.766242 0.905045 0.945104
20.4058 16.2521 14.9219 0.646412 0.688005 -1.53784
22.4431 14.3342 15.9013 -1.10421 -2.0768 -2.53884
25.0566 15.2827 15.8685 1.45451 -0.847758 0.23597
16.0974 17.5103 16.0844 -1.27382 1.14065 0.0368478
14.6216 19.6041 17.2502 -0.341892 0.821126 0.691108
14.0804 16.6933 17.9561 -0.191552 1.835 1.33827
19.4377 19.4415 16.5498 -0.195228 1.0237 0.542503
18.5609 16.7145 17.2013 -0.013519 -1.23577 0.739305
18.3069 18.0656 14.512 -0.884891 -2.09218 -1.1861
16.8532 20.1946 15.5143 0.904462 0.567044 -0.0739492
21.9807 20.4032 16.6016 0.255545 2.44426 -0.564531
24.1804 18.3767 17.4536 0.459785 -1.05421 1.78256
23.657 19.6669 14.6517 1.20059 -0.338817 -0.654596
21.3721 17.6139 17.3473 0.930954 0.00753973 -0.888456
21.0663 18.9025 14.4837 0.681989 -0.176407 -0.318672
23.0544 17.0399 15.1839 -0.622617 -0.053002 -0.143712
25.6158 20.3941 16.4025 0.665332 -0.773229 -2.28269
26.3389 16.462 17.994 1.43297 1.63804 2.32748
25.7189 17.8681 15.2049 0.753034 0.183171 -2.5424
27.5048 18.6007 17.1017 0.448098 -1.35084 -2.25372
15.3301 22.1731 16.795 -1.01338 0.87935 0.424185
19.9293 22.2747 16.3333 1.65917 -1.47103 1.52118
19.6828 23.485 13.7482 -0.0874134 0.43573 -0.399393
17.8177 21.5228 17.5588 -0.160371 0.535261 -2.01033
17.456 22.9011 15.0778 0.47594 1.06489 0.505127
19.1207 20.7318 13.9416 -0.671741 0.346215 -1.63001
16.9938 24.3408 17.2536 -0.659333 -0.465247 -1.58444
21.8753 23.0684 17.6719 -2.24873 -0.148108 -2.88874
21.7697 24.2891 15.4235 -0.00467968 0.419591 -0.900714
21.6995 21.4953 14.2961 -1.37286 -0.287072 0.0506741
23.8073 22.4702 15.8429 -1.40398 -1.72995 0.181566
25.8855 23.125 17.5952 -1.41807 0.523863 -0.181033
19.0677 25.0344 15.8109 1.25454 0.0364795 0.517843
21.0414 25.7071 17.5437 0.304901 -1.46777 0.711534
23.8652 25.1383 17.0177 0.122278 1.39758 0.728639
15.7171 13.694 19.3001 -1.48489 -2.05556 -0.861683
14.2143 15.4292 20.6036 -2.12668 -0.227918 1.23084
19.2635 14.2185 22.8392 -1.70172 0.0498236 0.737385
19.0445 15.378 20.0364 0.549274 0.264402 -3.14246
18.1322 12.833 20.4067 -0.2378 -2.7092 0.660869
16.6843 14.692 21.8233 -1.84914 -0.871635 -0.471662
16.6872 16.1211 19.0815 -0.129145 1.57963 0.940711
19.9189 12.4813 18.531 0.26222 -2.43738 -0.664363
23.9159 14.626 20.799 -0.351699 -1.29704 -0.288055
21.0871 13.5806 20.8949 -1.56567 -0.537969 -0.321451
22.6466 12.9926 18.6216 -0.0514212 -0.805682 1.79095
26.3865 15.7386 20.3357 1.65243 -1.85126 -0.705838
25.0639 13.9827 18.3619 1.71347 -2.33631 0.911083
15.8565 19.5704 22.2316 -0.514759 0.939286 0.361776
13.088 20.2305 21.0514 -0.481302 0.661941 0.864374
15.0697 18.3003 19.9623 1.03111 -0.772952 0.0403504
12.9028 17.7034 21.7388 -2.11722 -1.71802 2.62016
12.511 18.7896 18.8267 -1.60924 0.268344 -0.42389
18.1082 20.2654 20.6964 -2.84109 -1.21501 -2.08648
19.9254 16.9673 22.5396 -0.867599 0.432883 1.38055
19.481 18.1568 19.5859 0.622075 0.00931949 -1.23437
17.3023 17.4739 21.5192 -1.26426 -1.65514 0.372336
16.9992 18.8945 18.2511 -1.79059 -0.728704 -0.333846
20.4736 19.9616 21.9185 0.0967914 0.579828 2.6328
22.5607 17.9256 22.5962 -0.986446 0.0758646 -0.13976
22.1605 19.1539 19.6256 2.03756 0.0172352 -2.38527
24.276 17.3229 20.4101 -1.30317 -0.178223 -0.0173616
21.6685 16.3476 20.3988 1.62921 -0.769894 2.33353
24.3836 19.7104 21.5856 -0.120199 -0.630096 0.34292
26.7103 17.8953 22.0507 2.11567 0.0100524 0.395702
26.0153 19.1863 19.2611 0.579192 0.485925 -0.992535
28.3672 19.9274 21.0011 2.51089 0.326466 0.537162
28.3848 17.4967 19.575 3.47794 -0.080803 1.50002
15.4779 20.9602 19.4263 -0.0567451 -0.592021 -0.0616871
13.1177 21.4097 18.3921 -2.74125 0.638223 -1.02888
15.0204 22.348 21.7135 0.433147 0.309228 -0.836784
14.5387 23.6868 18.9939 -0.809654 0.383844 -0.0255868
12.5789 22.8832 20.5893 -1.30993 -0.365339 -1.3657
20.2771 21.0424 19.0074 0.274476 -0.066171 -0.0516986
19.5907 22.517 21.5103 0.582356 0.662697 0.119792
19.3643 23.8354 18.3315 0.113845 1.56056 0.0788831
17.199 23.2916 20.0422 -0.612796 -0.598947 -0.272879
22.4725 21.7356 20.7415 0.651702 0.925576 -1.28978
21.5083 24.5618 20.1564 0.4113 1.3329 1.89018
24.1408 23.6558 19.6789 -0.215624 -1.63414 1.90034
24.071 21.1484 18.4453 1.31266 0.567292 -0.367849
24.5383 22.464 22.7517 1.50254 0.286627 1.20886
26.4548 24.3233 21.69 0.92579 0.25622 0.646903
26.0531 21.6729 20.4493 -0.656648 -0.72771 0.451876
28.1348 22.2873 22.1228 3.00007 1.25497 0.154919
27.8469 23.4585 19.5731 0.552462 2.21829 0.378114
28.0455 20.8278 18.551 1.41546 -0.922391 0.772338
14.1518 25.0748 21.553 -1.38884 2.09275 0.75164
16.0333 26.8707 22.1404 0.374486 1.0896 0.857884
18.8029 25.2866 20.7849 -0.947629 -2.23647 0.470068
18.4878 26.4643 18.2755 -1.84558 1.1182 -0.249019
16.2289 25.6513 19.6575 -0.313865 0.9337 0.469569
18.1236 27.7483 20.8392 -1.31295 0.472748 -0.970716
20.6452 27.1788 19.7421 -1.36632 1.18133 -2.46489
23.5401 24.9445 22.0445 -1.53824 0.589324 -1.08911
23.3764 26.584 19.3011 1.04067 -1.02834 -1.1766
22.8464 27.7307 22.0207 0.417828 2.12584 0.326266
25.9471 25.4345 18.9981 3.70782 0.591878 -0.102575
25.1346 26.7693 21.2368 0.852197 -0.920334 0.563449
20.1376 15.9559 25.0078 -0.423764 1.66341 0.00163232
22.1288 15.1822 23.0535 -0.109412 0.14915 -1.19557
24.6368 16.1333 22.9416 2.35636 -1.74861 1.20839
15.9873 18.6511 24.9345 -0.218277 -0.747568 1.34288
13.4365 19.3087 23.6068 -3.25557 -0.919212 -0.826299
15.1845 16.8164 22.8866 -0.748861 1.19831 -1.0226
18.6024 18.0643 26.0279 0.364253 1.06236 -1.49818
18.4849 19.029 23.6581 0.872812 -1.9068 1.77218
20.1356 20.0902 27.0483 -0.411653 -1.39625 -1.22653
17.6217 16.3738 24.1827 1.97055 0.515249 -2.71969
20.9536 17.5035 27.1732 0.274631 -1.98277 -0.611269
20.8936 18.7583 24.382 0.498494 1.84463 -3.15545
22.9673 19.009 26.3552 -0.933179 -2.26861 -1.93545
22.7822 16.6574 25.1526 -1.16016 0.680267 0.0456379
24.6658 18.4956 24.3948 -0.771382 0.78149 -0.263381
15.0957 21.2715 24.6159 -0.499587 0.107084 -0.414398
12.8465 22.0499 23.169 -1.33987 0.454166 2.1105
14.5924 23.9603 24.2058 3.14762 2.36669 2.00076
20.0833 21.2256 24.4802 0.0324377 -1.2115 1.82384
17.5557 20.6755 25.987 0.227886 0.681621 -1.05903
17.3499 21.6693 23.2523 -0.587769 0.181657 0.54532
19.4666 22.745 26.5476 0.301682 1.02864 2.18238
19.039 23.9899 23.9242 -1.06449 -0.978339 -0.0274774
16.9377 23.3203 25.5654 0.600521 1.19931 1.09306
22.654 20.5311 23.5457 -0.932955 0.0595916 -0.409272
22.1286 21.7266 26.2742 -0.850385 0.286979 -1.70509
21.9555 23.1567 23.2398 0.75766 1.40169 2.23507
24.106 23.7323 25.1705 0.531392 2.10022 -0.298951
24.6808 21.1556 25.3082 2.42681 0.346884 2.25338
26.5666 22.8489 24.2619 0.555128 2.1626 0.112198
26.4549 20.3018 23.3236 0.936056 -0.441321 -0.601184
16.2416 25.885 24.9065 0.0630655 2.90942 0.476296
16.7583 24.1987 22.5181 -1.2589 -2.30633 1.61685
18.7715 25.6094 25.848 -1.64512 2.36488 1.67469
18.3583 26.7976 23.4629 -3.151 -0.226101 1.93577
20.3319 28.3051 22.4334 -1.59852 3.39565 0.859344
21.3121 24.6438 25.7174 0.636444 0.333642 -1.19254
20.7672 25.6737 22.7018 -0.27212 -3.41131 0.823662
20.7668 27.1936 24.896 -1.54285 1.0957 -0.542923
23.1758 26.4128 24.3829 2.82353 1.12732 2.83078
25.5025 25.4394 23.8905 2.75116 -0.338269 0.772227
ITEM: TIMESTEP
2000
ITEM: NUMBER OF ATOMS
146
ITEM: BOX BOUNDS ss ss ss
1.1968229604093080e+01 2.8655695124028160e+01
1.1952595345238286e+01 2.8829402578916277e+01
1.3847912353767544e+01 2.6942087878426854e+01
ITEM: ATOMS x y z vx vy vz
15.4072 15.0166 16.6661 -0.0794022 0.344616 0.657325
17.7663 13.8355 17.555 -1.24113 0.492912 -1.4218
17.7487 15.2661 15.1415 -0.0670149 3.22094 1.41416
19.6779 13.5305 15.7793 0.189227 0.454872 2.52899
23.5306 15.6957 18.2374 1.68784 0.564758 0.837606
20.5341 15.0313 17.9907 -0.861734 0.903251 1.47483
20.3259 16.2964 15.2481 0.843029 2.05411 -1.13786
22.1653 14.391 16.0498 -0.562962 1.90099 -0.977271
24.9538 15.3356 16.3146 1.44093 1.05317 -1.1061
15.9525 17.4902 16.1827 0.217226 0.667597 -2.35748
14.5761 19.572 17.3356 0.90229 0.361688 -1.11222
14.0453 16.9007 18.0762 0.701642 -1.47704 -0.961728
19.2739 19.4296 16.9107 -0.450809 1.22642 0.61855
18.4844 16.6913 17.1005 0.400869 1.58352 -1.10124
18.3231 18.0046 14.71 -0.362713 0.318268 -0.293841
16.7468 20.1076 15.8902 -0.856462 1.69751 -2.40491
22.0297 20.2136 17.0012 0.429744 -0.499007 -0.344911
24.1041 18.2859 17.5266 -1.85711 1.94766 -1.32205
23.8716 19.3511 15.1225 0.629184 -0.494787 -1.59625
21.3338 17.6816 17.2355 -0.349904 1.16346 -0.128436
21.0343 18.9153 14.7897 -0.421602 0.39443 -1.755
23.2635 16.8007 15.3408 -0.120486 1.17164 -0.317637
26.0707 20.095 16.7197 -0.492744 1.49882 -1.43792
26.5788 16.3087 18.1812 -0.234837 -1.05022 1.31651
25.8485 17.7098 15.7375 0.162235 0.928862 0.294928
28.2074 18.4835 17.6725 0.068802 -1.29777 -1.97789
15.1421 22.0124 16.9917 -0.394792 0.202023 -0.0839774
19.983 22.0367 16.4582 -2.44509 -0.581494 0.262725
19.7511 23.2441 14.1367 2.79108 0.523778 -2.18151
17.8214 21.5827 18.0678 0.784929 0.671244 1.01201
17.3944 22.7503 15.656 -2.50897 1.25239 -1.53921
18.9005 20.5548 14.2355 -1.74674 -0.588304 0.431277
16.8658 24.2504 17.955 0.238214 1.51137 -1.83545
22.2725 23.0211 18.0116 -0.0246262 -1.13123 -1.05567
21.6574 23.9267 15.553 1.57145 1.4823 -1.04979
21.9637 21.4703 14.464 -0.363232 0.267777 -1.02758
23.9602 22.3024 16.1958 -0.0870802 2.77138 0.256144
26.0232 22.8455 17.6313 0.993977 -2.5795 -0.410766
19.153 24.6455 16.2149 1.61718 1.22857 -2.02717
21.3247 25.6895 17.8878 -2.248 0.5389 -3.0704
23.9147 24.8503 17.4222 0.2177 1.79002 -0.90246
15.8073 13.6854 19.2646 -1.3354 -1.77288 0.50843
14.1598 15.5384 20.3653 -3.35016 -2.26648 0.925871
19.3035 14.5712 22.3131 -0.748008 0.351917 0.135165
18.8699 15.508 20.0252 1.05058 0.215316 -0.61434
18.2752 13.1537 20.4704 1.28347 -0.638133 0.183671
16.4309 14.7935 21.6154 0.0087506 -0.706153 2.37374
16.3861 16.03 18.8449 2.82736 -0.726632 -1.05227
19.9195 12.3687 18.2895 -1.46873 -1.31514 -1.8604
23.7085 14.3942 20.8129 2.2568 -1.51946 3.43934
21.0284 13.7249 20.476 -0.842372 -0.430375 2.08584
22.7174 13.0676 18.4715 0.622303 -0.355282 1.78008
26.3665 15.5149 20.5018 -0.981819 -1.09945 0.475466
25.2057 13.6805 18.5887 1.18815 -0.246881 -0.604123
15.6017 19.7854 22.2357 0.31534 0.467298 -0.177184
12.7235 20.1668 21.179 1.8023 -0.444476 0.49304
14.8855 18.2341 20.2109 0.561515 0.477947 0.861357
12.5674 17.4556 21.2965 -0.369831 -1.17966 -0.355427
12.5009 18.6309 18.9526 0.878371 -0.205205 -1.56553
18.047 20.2802 20.5698 2.95225 0.393506 0.436231
19.9833 17.1022 22.1496 0.542314 -0.763328 0.920985
19.5298 18.1333 19.5304 -0.331142 1.60651 3.20756
17.3508 17.2889 21.2307 -0.565888 -0.673091 -0.0774806
16.9822 18.8921 18.4166 0.297608 0.715967 1.55234
20.5954 20.0441 21.5944 -2.51645 -0.397771 0.290334
22.5822 17.8837 22.354 0.643383 2.1198 -0.820926
22.2191 19.01 19.5731 -0.392839 0.519663 0.294394
24.3212 17.1992 20.4683 -1.77007 -1.47425 2.22919
21.6802 16.324 20.0971 2.29365 -2.21266 -0.583994
24.3702 19.8715 21.5596 2.18043 -1.04814 -0.740254
26.4798 18.0662 21.8395 -2.52195 -0.203794 1.85511
26.1286 19.197 19.3994 -2.00429 -1.4521 0.17275
28.41 20.039 20.9455 -0.381781 -0.399772 -1.05617
28.3818 17.2886 19.8692 -0.816852 2.15714 -0.940587
15.4919 21.0389 19.4572 -0.564575 -0.873756 -0.347759
12.8692 21.2114 18.5773 -1.75371 0.551659 -0.738276
14.8235 22.3607 21.7211 -1.33053 -2.11449 -2.20076
14.5184 23.6289 19.2773 0.535712 1.94411 -2.45015
12.4628 22.8343 20.7233 2.02918 -0.735424 -0.855468
20.2594 21.0015 19.0314 0.802031 1.75915 -2.5547
19.7442 22.6925 21.3172 2.33371 -0.722053 0.0596988
19.6994 23.6754 18.7248 1.79916 -1.13945 -1.66507
17.3292 23.0237 20.2216 0.590204 -1.2996 -1.74245
22.4696 21.7639 20.6847 -0.579527 -0.542423 -0.507142
21.6484 24.506 20.3192 -2.60832 0.187791 -0.367804
24.3769 23.6928 19.6411 -0.58648 -0.0308278 -1.76413
24.0049 21.039 18.6811 -1.62576 0.407905 0.433903
24.6829 22.439 22.5678 -0.318363 -1.27581 2.44462
26.6392 24.521 21.3692 0.823733 -0.383235 -1.46381
26.3481 21.7503 20.458 0.240973 -0.498382 0.997065
28.3173 22.5791 22.0098 0.140958 -0.00719988 -1.50601
27.8672 23.659 19.2631 -0.0544688 0.300678 -1.55735
28.1333 21.0863 18.6211 -0.402208 0.819842 -0.185334
14.019 24.8971 21.7122 -0.129794 1.24112 -0.533533
15.8992 27.2022 22.5606 2.95731 0.0744633 -0.982265
18.7997 25.2407 21.0319 1.52391 1.53617 -0.335524
18.668 26.1976 18.6104 -0.383968 -0.315473 -1.62764
16.2418 25.839 20.2518 -2.76138 -0.706556 -2.62267
18.0716 27.8023 21.1316 0.813254 -0.326173 -1.32782
20.5546 27.2675 20.1639 2.13962 1.17157 0.597363
23.7765 25.2329 21.8608 1.23525 -1.91657 0.797254
23.2522 26.5732 19.3768 -0.779863 0.366461 -2.20458
22.8509 27.7523 21.8186 -0.314869 0.0889169 -0.940171
25.9374 25.6243 18.8852 0.254767 0.77474 -2.65072
25.5984 26.8522 21.202 -1.35317 1.28858 -0.38
20.1111 15.9859 24.501 0.749331 0.916635 1.25012
21.8814 15.0567 22.7426 1.12978 -1.54357 0.868582
24.6848 16.0569 22.809 -1.56768 -3.15087 1.47856
15.842 18.5245 24.8138 1.05015 -0.848696 2.65792
13.4936 19.1198 23.477 1.7157 -0.678559 -0.0316508
14.8826 17.0008 22.793 1.59276 -1.22236 3.01391
18.4376 18.0323 25.6163 0.901018 -2.04171 1.09395
17.932 19.2065 23.1745 -0.163051 -0.0785981 -0.531038
20.1273 19.9967 26.5953 2.02872 0.432715 -0.522042
17.3649 16.3491 23.8171 -2.07734 -0.799579 2.83356
21.0548 17.6582 26.6685 -0.209596 -0.273155 0.586898
20.7532 18.7687 24.1846 -0.354889 0.947191 -2.75252
22.8329 19.4386 25.7343 -3.10868 1.01709 0.544661
22.9286 16.8214 24.6879 -0.222445 1.49189 1.3107
24.8993 18.5552 23.9865 1.31311 -0.982034 0.318307
15.1381 21.1796 24.5092 3.273 0.132073 0.602638
12.7366 21.7668 23.1817 -2.26563 0.707932 1.09229
14.2548 23.9212 24.1492 -0.593368 0.704262 2.0535
20.0432 21.3054 24.1861 0.0631995 1.09977 -0.790179
17.6576 20.6444 25.4562 -1.03586 -0.377676 0.890696
17.5443 21.8144 22.9482 0.739259 -0.0251652 1.96565
19.4339 22.8431 26.2893 -2.37101 0.0415267 0.956243
19.2953 23.8761 23.798 -0.575659 -1.54312 0.886998
16.8433 23.3202 25.3886 1.47026 -2.81505 0.908615
22.6023 20.6228 23.4776 -0.745288 0.442592 0.709666
22.0704 22.0531 25.7541 -0.286967 -2.1036 3.04155
21.9004 23.1961 22.9666 1.79757 -1.03698 -0.094206
24.0427 24.1528 24.5724 -0.456453 -1.06048 2.00891
24.7316 21.273 25.121 1.01 -0.81675 1.4492
26.6433 23.5513 23.9382 -1.62633 -0.709642 -1.07968
26.7073 20.6552 23.1025 -0.652662 -0.95264 3.22098
15.9773 26.0861 24.8777 -1.16939 -0.523399 0.153429
16.5985 24.3784 22.7784 0.485143 0.313675 -0.0710214
18.6805 25.4137 25.9504 1.12601 -1.25971 1.17475
18.3227 26.755 23.5099 0.435101 -0.288122 0.858843
20.5343 28.2804 22.6441 0.337609 2.10885 1.15857
21.4857 24.6321 25.4893 -0.527182 -1.28163 2.92089
20.976 25.9987 22.8775 -1.73514 0.321344 0.935028
20.6116 27.0085 25.1496 -1.23715 1.9348 2.36397
23.1024 26.7832 24.1358 1.62628 1.42973 -0.946727
25.6538 26.0561 23.6366 -1.95215 -1.23855 1.75196
ITEM: TIMESTEP
3000
ITEM: NUMBER OF ATOMS
146
ITEM: BOX BOUNDS ss ss ss
1.2475892033249249e+01 2.7962065395152933e+01
1.2642390469718963e+01 2.8316735636693942e+01
1.3720743109699567e+01 2.7144996458776081e+01
ITEM: ATOMS x y z vx vy vz
15.5391 14.6473 17.0851 -1.10563 -1.22312 -0.350784
18.052 13.8479 17.6984 -0.935087 -2.60227 -1.2953
17.6379 15.0494 15.3497 -0.904284 0.47831 -1.58174
19.6958 13.4219 15.7994 1.36908 1.19323 -1.96195
23.1291 15.7332 17.9549 0.67554 1.50727 -0.165343
20.5974 14.8736 17.82 1.54104 0.142145 -1.95904
20.3749 16.0615 15.0022 1.29424 1.48662 1.59824
22.371 14.2216 16.0497 0.668559 0.977949 2.04311
24.9422 14.8766 16.2013 -0.930951 -0.19173 -1.74376
16.0537 17.3714 16.2596 -1.96412 0.0626278 1.46293
14.529 19.4508 17.2175 -0.507621 1.05981 0.217856
14.0048 16.8818 17.9202 2.34392 -1.32082 0.774727
19.063 19.5371 16.775 -1.54727 0.542443 -0.151798
18.6387 16.7182 17.3251 -0.311876 -0.0865527 0.7781
18.5886 17.9938 14.6155 -1.53228 0.517947 1.19341
16.8013 20.0304 15.622 1.53226 -0.0892826 1.34677
23.8435 19.6852 14.7688 0.545016 0.273431 2.86604
21.1647 17.6077 17.116 -0.677718 0.509831 -2.2065
21.2388 18.7904 14.5218 1.24641 -0.664283 2.28785
23.2081 16.8935 14.9779 -1.54824 -1.69971 1.07521
24.0126 18.4292 17.1577 -1.25768 -2.04497 -0.66124
26.0182 16.7412 17.5275 0.384911 -0.843616 -2.08482
25.6287 18.0725 15.114 -0.359113 -0.731578 -1.12383
27.6693 18.7815 17.2357 0.410077 0.954187 -0.792093
15.1182 22.2106 17.0024 1.08842 -1.11105 0.613428
19.9537 22.2659 16.3163 0.664265 1.31362 -1.14782
19.8256 23.4404 13.883 1.16589 0.71854 3.37041
17.5199 21.6381 18.0749 0.814367 -0.036197 -0.772873
17.6061 22.5957 15.2706 0.0722992 -0.999472 -0.203367
19.0883 20.5239 14.2058 1.43988 -1.11132 2.34906
16.7091 24.4316 17.3466 -0.100015 -0.336893 1.20743
21.8454 20.2961 16.8976 0.150626 1.26129 1.04934
22.1665 23.069 18.2573 -2.15826 -1.02044 -0.239915
21.8031 24.1165 15.4541 2.60684 -1.77446 0.607954
21.7235 21.4803 14.3353 0.725383 0.273575 0.51941
23.7835 22.2075 15.9847 -2.20171 -2.53961 2.0507
25.9602 20.5161 16.5122 -1.17751 0.478545 -1.19219
26.1058 23.0731 17.7769 -0.740661 2.38543 -0.101773
19.1114 24.9185 16.0721 -0.609681 -2.36753 0.698034
18.6876 26.3497 18.3026 0.111629 -0.570927 1.84609
21.3919 25.5912 17.7478 1.79102 -2.30031 -0.635029
24.0186 24.7931 17.2759 2.35735 -2.57734 -1.08698
15.917 13.6993 19.5853 -0.318782 0.785079 -1.89509
14.4162 15.6077 20.5216 0.145079 -0.96418 -1.13158
18.8597 15.596 19.9935 2.17415 -1.97094 2.13319
18.2067 13.0411 20.4555 0.978464 0.913305 -0.310103
16.6905 14.9699 21.7232 -1.76869 1.00754 -0.502705
16.3854 16.2162 18.7805 -1.68056 1.93684 0.716751
20.3519 12.3134 18.3778 0.0391011 -1.5469 -0.499809
23.7694 14.5893 20.8979 -2.53095 0.52361 0.876161
21.1078 13.8387 20.3985 -1.50219 -3.44072 1.70198
23.0242 13.2549 18.6825 2.53403 -2.00959 -1.8351
21.6952 16.5454 20.0633 2.67716 0.145253 1.09695
26.4237 15.3805 21.0948 0.458957 -1.16671 0.420191
25.5359 14.5051 18.8011 1.97144 -1.49494 -2.27871
15.6092 19.7121 22.2838 -1.33327 -0.107951 -0.11771
13.0556 20.0906 21.0793 -0.741516 1.49449 1.7864
14.7215 18.1234 20.0577 -0.438734 -1.16783 0.425212
12.5666 17.4571 21.7284 -1.02349 0.290265 2.36953
12.271 18.5401 19.004 -1.36986 -1.15601 -1.13192
15.0134 16.9405 22.7458 -1.12838 0.330933 0.964337
18.0562 20.483 20.6593 1.58447 0.889679 -0.682334
19.8403 17.1774 22.0622 0.755771 0.796561 0.365142
19.4549 18.2498 19.4346 0.676921 2.47317 0.178341
17.3958 17.7959 21.2153 1.59931 -1.08846 -0.140903
16.9674 18.8406 18.4352 1.24951 0.346231 -0.265802
20.7493 19.6667 21.6845 -0.0624574 -0.550906 0.0480296
22.9292 17.6955 22.3179 -2.153 1.20592 -0.132378
22.3867 19.0776 19.4365 0.10461 2.01168 0.881701
24.5458 17.0761 19.9223 0.686694 1.06778 -0.895561
24.24 19.6539 21.2851 0.818761 2.64136 -0.371878
26.1831 17.9195 22.0102 -0.551206 -1.42796 0.407173
25.9198 19.1793 19.0068 0.364536 -0.966462 2.32668
27.8885 19.6246 20.8401 1.07786 -0.0722952 -1.35971
27.6937 17.2194 19.6707 3.4734 -0.544064 0.487107
15.2175 20.7984 19.5002 -0.700821 -0.334769 -0.928234
12.938 21.4016 18.4245 0.321958 -0.717681 -1.60379
15.097 22.3337 21.9377 -1.54373 1.68501 3.14976
14.4511 23.7406 19.0432 0.581849 -0.254005 0.493073
12.7923 22.6617 20.9172 -1.5821 -0.12435 -0.632047
19.6842 22.53 21.421 -0.285595 -1.19146 -1.67709
19.1996 23.5752 18.9367 -2.5863 -1.20843 -1.82742
16.9715 23.3515 20.3238 1.74474 -2.382 0.358329
16.6997 24.4098 22.7139 0.477332 1.47748 0.403702
20.3704 21.0715 18.9898 -1.8449 -1.97182 2.56165
22.5417 21.8507 20.7732 -1.11369 0.300872 0.406016
21.5411 24.525 20.4715 1.40805 -0.418111 -0.266357
24.1781 21.1313 18.6153 0.621976 -1.71464 0.935522
24.3937 23.6776 19.9521 -2.53539 2.90874 -0.917393
24.5141 22.3687 22.78 0.404075 1.20469 -0.37533
26.4869 24.5114 21.8783 0.595769 -0.866272 -0.706085
25.9678 21.6033 20.5845 -0.341495 1.37242 -1.4508
28.2027 22.4197 21.9817 1.02533 -0.554909 -1.23531
27.9177 23.5765 19.7394 -2.81227 -1.56491 -0.812477
27.8529 21.1828 18.4141 0.43471 -1.00047 2.25285
14.3739 24.9903 21.6377 -1.7903 0.166135 1.09164
16.0131 26.9414 22.1637 -0.255839 -0.205118 0.737267
18.8954 25.3488 20.8604 -0.139801 -0.17856 -1.49286
16.3078 25.8511 19.6198 -0.428127 -0.596969 2.65452
18.3365 27.9095 20.8359 -0.457762 1.54357 1.22547
20.6387 27.2038 19.7652 1.30475 -2.26936 -1.96084
23.8272 24.8797 22.2723 -0.170593 0.323305 -0.73346
23.5222 26.4006 19.5131 0.345223 1.40069 1.04462
22.6796 27.356 21.8632 0.745738 -0.712495 0.163211
20.4081 28.4922 22.4516 -0.579408 0.345864 1.46283
26.2469 25.3818 19.3494 0.423577 -0.223985 0.93335
25.3229 26.9691 21.8936 -2.52276 -1.16724 1.65771
19.2847 14.4061 22.5738 0.236095 -0.930219 -0.884196
20.2496 16.002 24.6937 1.4289 0.750756 1.30262
17.6891 16.5583 23.7045 1.18611 1.26947 -1.85779
21.9179 15.2896 22.6585 -2.0096 0.941774 2.56023
22.8744 16.8818 25.0789 -0.223762 1.41318 -2.11683
24.7123 15.8944 23.17 0.53424 1.63626 -3.37405
15.8847 18.8856 24.8805 -0.241463 0.183668 -0.692185
13.2953 19.1525 23.6934 -1.94966 1.59474 -0.987554
18.2625 18.1357 26.0293 -0.0217082 0.79473 -0.618809
18.5155 19.1775 23.3699 -0.209682 -0.204271 -0.0642425
17.7894 20.709 25.6366 1.54034 0.662835 0.0712894
20.1904 20.018 26.5506 0.73692 0.17783 -1.2331
20.7277 17.2021 26.8366 0.845166 0.248488 -0.519211
20.837 18.4981 24.4622 0.345811 2.56795 -1.16544
22.9296 19.2305 26.1445 -2.20632 0.464802 -2.76639
22.8014 20.2509 23.537 0.0918952 1.08627 -1.62134
25.024 18.6082 24.2934 -1.29898 0.655859 0.326077
15.1426 21.368 24.6459 2.09549 -0.779242 -2.11725
12.8615 21.8418 23.3509 -0.596172 0.36166 -0.742847
14.4843 23.9272 24.2503 -0.187333 0.143501 0.876742
20.1523 21.1782 23.8468 0.0962791 0.58413 -2.55528
17.4259 21.6701 23.2121 1.77394 1.2165 -2.65648
19.5083 22.8387 26.019 -1.5957 -0.415115 -0.661972
19.0897 23.9928 23.6699 -1.25278 3.49916 -1.36896
16.8827 23.3722 25.2708 -1.04417 -0.960164 -1.28479
22.1604 22.055 25.7015 0.922901 -0.845891 0.74767
21.8006 23.0681 23.2242 -1.2133 -0.158969 -1.07753