ITEM: TIMESTEP
0
ITEM: NUMBER OF ATOMS
1415
ITEM: BOX BOUNDS ss ss ss
2.0472948648902554e+00 3.5699172316710033e+01
1.0336903554570833e+00 3.9609678843692244e+01
2.0704967851678200e+00 3.8719503854213876e+01
ITEM: ATOMS x y z vx vy vz
14.3168 11.9998 4.59187 0.625217 -1.49959 -0.155763
13.6201 9.23444 5.01142 0.14076 -0.831103 1.68925
16.4229 10.101 5.10874 0.735587 0.702193 0.756502
22.0286 11.834 5.30337 1.34576 0.102097 -2.71893
19.2258 10.9675 5.20606 -0.206726 1.14467 1.23341
12.6641 14.1457 5.72319 -0.611333 0.762187 1.38087
17.8163 15.6316 4.26964 0.71374 -0.61778 0.596117
15.0135 14.7651 4.17232 0.845872 -0.929736 -0.432295
17.1196 12.8663 4.68919 0.860162 -0.439266 1.12105
22.7253 14.5993 4.88383 -0.704448 0.100664 -0.453346
19.9225 13.7328 4.7865 1.05054 2.72221 0.631909
25.5282 15.4658 4.98114 -0.844634 -0.494109 1.5447
24.8315 12.7005 5.40069 0.846532 0.633962 -1.98835
28.331 16.3324 5.07846 -0.973038 1.04847 -0.757079
30.4372 14.4336 5.59532 -1.14906 0.884885 0.387013
27.6343 13.567 5.49801 0.339282 0.210988 0.0490613
33.24 15.3001 5.69264 -0.67694 -2.60559 1.80139
14.0575 19.6763 4.88409 0.752387 -0.32942 -1.08867
13.3608 16.911 5.30364 2.24283 0.189639 -0.365543
16.6781 19.1248 5.95043 2.18825 1.08413 1.43755
16.4069 20.2957 3.33322 0.826448 -1.78296 0.269215
18.513 18.3969 3.85009 -0.993177 -1.60609 2.16858
15.7102 17.5304 3.75277 -0.844821 -0.56619 -0.732717
19.4809 19.9913 6.04774 0.49096 -0.770053 -0.44244
21.3159 19.2634 3.94741 1.15175 0.580473 0.290389
20.6192 16.4981 4.36696 -0.113526 -0.131189 0.723429
24.1187 20.13 4.04472 -0.551598 -1.11438 -1.34109
26.2249 18.2312 4.56159 -1.99568 0.167547 0.262417
23.422 17.3646 4.46427 -1.11047 -1.00706 -1.2011
29.0277 19.0977 4.65891 -0.768402 -0.216484 -0.702436
31.1339 17.1989 5.17578 0.445103 -1.06358 -1.17146
12.4049 21.8223 6.01541 0.684843 -0.474118 1.80968
17.3747 21.8901 5.53088 -0.585743 -0.211911 0.684019
17.1036 23.061 2.91367 -1.01797 0.757014 -0.871657
14.7542 22.4417 4.46454 -2.05769 0.291772 2.05284
22.9804 23.6231 5.72551 -0.333036 -2.50995 1.30453
20.1776 22.7566 5.6282 -1.41924 0.28548 -1.13768
19.9065 23.9276 3.01099 1.19555 0.870095 -0.277889
22.0126 22.0288 3.52786 -0.795466 -0.274528 0.882069
19.2098 21.1622 3.43054 -0.151542 0.416473 -2.09039
24.8155 22.8953 3.62518 -0.824768 -0.0528152 1.2383
27.0012 23.678 5.33351 -1.85261 -1.54866 -1.16781
26.9216 20.9965 4.14204 -0.984819 -0.428772 -1.75729
29.1073 21.7792 5.85038 -0.0772666 -0.330649 -1.01204
13.7983 27.3529 5.17633 1.06043 1.01156 -0.074622
13.1016 24.5876 5.59587 -0.247354 -1.35063 -0.709359
18.7682 27.4207 4.69178 0.145018 -0.132772 1.2374
16.1477 27.9723 3.62545 -2.12206 -0.331056 -0.277574
18.0715 24.6554 5.11133 0.737889 -0.602039 2.39005
17.8003 25.8263 2.49412 0.133139 -0.345578 -0.426104
15.4509 25.207 4.04499 0.722323 0.897413 -0.553016
20.8743 25.5219 5.20865 0.32671 -0.131106 0.934415
20.6032 26.6929 2.59144 1.05311 -0.0804394 0.268538
22.7889 27.4756 4.29978 -0.194716 -0.532824 0.429923
22.7093 24.7941 3.10831 -0.0979442 -0.456514 1.25071
24.895 25.5768 4.81664 0.864682 -1.47995 -0.795835
18.497 28.5917 2.07458 0.47872 0.0728854 -0.283035
17.9291 30.1651 4.42196 -0.258926 -0.776517 -0.171834
15.5797 29.5457 5.97284 -1.05256 -0.536977 0.427423
20.6828 29.3744 3.78291 0.499093 0.634172 1.63164
20.1148 30.9478 6.13029 -0.718422 0.454291 0.142807
22.8685 30.157 5.49124 -0.103985 -1.28802 1.43551
24.9746 28.2582 6.00811 1.50287 0.047636 3.6003
13.8912 8.06349 7.62862 0.798462 -0.790861 0.532416
14.5879 10.8288 7.20908 1.33292 0.15795 0.928298
12.2385 10.2094 8.75995 -1.4299 0.794144 0.948375
11.9674 11.3804 6.14274 -1.10865 -0.700462 0.462331
10.5859 12.3554 9.89126 0.133739 0.0377066 0.306025
15.5558 12.4232 9.40673 -0.768937 0.475392 -1.08426
17.6619 10.5244 9.92359 2.67333 -0.157856 0.394259
17.3908 11.6953 7.30639 0.159753 0.0427728 -3.24766
14.8591 9.65785 9.82628 0.786757 1.4083 0.604783
16.6941 8.93 7.72594 0.747601 1.08877 2.63858
20.4648 11.3909 10.0209 0.0434442 -1.25349 1.34038
20.1936 12.5618 7.40371 0.948757 0.515779 -1.49477
22.2998 10.663 7.92057 0.142162 -1.4539 1.55512
19.4969 9.79653 7.82326 0.108859 -0.469599 -0.601283
23.2676 12.2574 10.1182 -0.286535 0.489183 -1.00584
25.1026 11.5296 8.01789 -1.33357 -1.28673 1.64959
27.9055 12.3961 8.11521 1.237 -0.390395 0.255659
10.3147 13.5263 7.27406 -1.88592 -0.412956 0.564858
8.66207 15.6723 8.40538 -0.471061 0.839576 -0.502447
13.632 15.7401 7.92085 -1.2433 0.223173 2.56739
12.9353 12.9747 8.3404 -0.482056 -1.7799 0.141409
11.2826 15.1207 9.47172 -0.937672 -1.11294 1.0461
11.0114 16.2916 6.85452 0.311447 2.10341 -0.392334
16.2525 15.1885 8.98718 0.475525 1.64256 -0.568606
15.9813 16.3594 6.36997 1.68505 -1.61142 -1.01467
18.3586 13.2897 9.50405 1.36771 1.43889 -0.669752
18.0875 14.4606 6.88684 0.546624 0.530428 -1.07152
15.2846 13.5941 6.78952 0.467256 1.86767 0.0100142
19.0553 16.055 9.0845 -3.36806 0.173655 -1.12873
21.1615 14.1562 9.60136 0.141469 -1.65786 -0.673497
20.8903 15.3272 6.98416 -0.385637 2.40194 0.335501
22.9965 13.4284 7.50103 1.67402 0.149851 0.730755
26.7672 15.8893 9.796 -0.621989 0.0232753 -0.72937
23.9643 15.0227 9.69868 0.185924 -1.51776 0.655912
23.6932 16.1937 7.08148 -0.932442 0.420391 -0.176992
25.7993 14.2949 7.59834 0.961036 1.72555 -0.912786
31.405 16.0279 7.79298 0.199865 -0.995995 0.100985
28.6022 15.1614 7.69566 -1.74327 -0.525415 -1.59788
30.7083 13.2626 8.21253 -1.57826 -1.86447 -0.735674
33.5111 14.1291 8.30984 0.131535 -1.61425 0.59463
10.3266 20.032 10.1835 -0.795156 -1.08771 -1.50778
9.35878 18.4376 7.98583 -0.990354 1.50313 -0.0592478
7.00939 17.8182 9.5367 0.676117 2.10391 -0.5334
14.5998 17.3344 10.1185 -1.02296 0.0170422 -1.94466
14.3287 18.5054 7.5013 0.504779 -1.99245 -0.657144
11.9793 17.886 9.05217 -0.0233068 -1.68915 -0.594484
11.7082 19.057 6.43497 -0.14675 -1.08553 0.623795
16.9492 17.9538 8.56763 -0.878492 0.374088 -0.0163195
15.2965 20.0997 9.69895 0.35031 0.521468 -0.770487
18.7842 17.226 6.46729 -0.465617 0.0936304 0.853792
22.5549 19.6868 8.76226 -1.47032 0.490211 2.01945
19.752 18.8203 8.66495 -0.388177 -1.35067 0.0142986
21.8582 16.9215 9.18182 -0.859541 0.0891163 -1.11855
21.587 18.0925 6.56461 1.92189 -1.02468 -1.71018
27.1927 19.8255 6.75924 0.138293 0.112879 -0.839817
24.661 17.7881 9.27913 0.905306 0.467725 -0.262604
24.3899 18.959 6.66193 0.556678 0.662576 -0.114903
26.496 17.0602 7.1788 0.1222 0.633486 -1.04849
27.4639 18.6546 9.37645 -0.912192 1.87125 -1.19561
29.57 16.7558 9.89331 0.580341 0.124926 -0.929092
29.2989 17.9267 7.27611 1.64213 3.09089 -2.06738
31.4846 18.7094 8.98444 -1.02001 1.06863 -3.50914
31.2135 19.8804 6.36724 1.17073 0.0607583 0.0640559
33.5907 16.8106 9.50131 -0.687777 0.36591 0.577666
33.3196 17.9816 6.88411 -3.53145 0.225323 2.55289
10.0555 21.2029 7.56629 -0.36401 0.676816 0.217295
8.40281 23.3488 8.69761 -2.41997 -0.413911 0.38144
7.7061 20.5835 9.11716 -0.385396 -2.0362 1.29636
13.3727 23.4166 8.21307 -0.577822 -2.11145 -0.780864
12.676 20.6513 8.63262 -1.65978 -1.28353 -1.87135
11.0233 22.7973 9.76394 0.261665 -0.950084 -0.110148
10.7522 23.9682 7.14674 -1.05254 -0.909844 -0.212484
18.3426 23.4844 7.72853 -1.08975 -0.39014 -1.39255
17.6459 20.7191 8.14808 -0.341791 -0.551793 1.84639
15.9932 22.8651 9.2794 -1.6467 -1.08621 0.785779
15.7221 24.036 6.6622 -0.238144 0.56382 0.406798
15.0254 21.2707 7.08175 0.258695 0.630789 -2.59421
20.4487 21.5856 8.2454 1.46947 0.143804 -1.14573
22.2837 20.8578 6.14506 1.28528 -0.423793 1.35763
23.2516 22.4522 8.34272 -0.465872 -0.788318 -0.424873
25.4373 23.2349 10.051 -0.963151 -1.89305 -0.264832
25.3577 20.5534 8.85958 1.22845 0.119598 -1.77983
25.0866 21.7243 6.24238 1.90342 -1.15428 0.59669
27.2723 22.507 7.95071 -0.718996 -0.77225 0.597037
29.458 23.2897 9.65904 -0.579359 -0.198206 -0.883459
29.3785 20.6082 8.46758 1.89076 1.52981 0.205598
31.2931 22.5619 7.55871 1.65023 -2.86819 1.47904
31.5642 21.3909 10.1759 -1.01918 0.871123 -0.72537
33.4788 23.3445 9.26704 0.508086 0.840715 0.605167
33.3992 20.6631 8.07558 0.672284 -0.24858 0.972005
9.09951 26.1142 8.27808 -0.0668744 0.176968 -1.07944
6.75013 25.4948 9.82895 1.44043 -0.49178 -1.32696
14.0694 26.182 7.79353 -0.780268 -2.09466 -0.240647
11.72 25.5626 9.3444 -0.55262 0.480459 1.69408
11.4489 26.7336 6.7272 0.533004 0.594616 -1.16163
13.5015 27.7554 10.1409 0.172948 0.782952 -0.807489
16.6899 25.6304 8.85986 -0.404293 -1.183 0.0221327
16.4188 26.8013 6.24265 -2.73055 -1.75043 -0.238906
18.4714 27.8232 9.65637 1.11796 1.61195 -1.75591
19.3104 25.0788 9.92619 0.873794 -0.185944 -0.0543535
19.0393 26.2498 7.30898 0.81883 0.0483655 0.654335
21.225 27.0324 9.01732 -1.14962 -0.539166 -1.13271
21.1454 24.351 7.82585 0.299856 0.922082 1.35943
23.06 26.3046 6.91698 -0.379536 1.72552 0.00418012
23.3312 25.1337 9.53418 1.3216 -0.992168 -0.664506
25.2458 27.0873 8.62531 0.26887 -0.207397 1.57274
25.1662 24.4058 7.43384 0.0895918 -2.10657 -0.317014
27.0808 26.3594 6.52498 0.186931 0.450968 -0.39971
27.3519 25.1885 9.14218 -0.550481 0.411237 -0.498843
29.2665 27.1421 8.23331 -0.949502 0.0821675 -0.84444
29.1869 24.4606 7.04184 -1.05613 0.527883 0.473274
31.4522 27.9248 9.94164 0.510213 -0.787169 -0.996655
31.3726 25.2433 8.75017 1.28854 0.275532 -0.0419544
13.2303 28.9264 7.52371 1.02994 1.60768 0.405135
10.881 28.307 9.07459 1.54 -0.177542 -1.54284
12.6624 30.4998 9.8711 -1.61537 1.39085 1.71656
18.2002 28.9941 7.03916 -0.448571 0.342858 2.12923
15.8509 28.3748 8.59004 0.554266 -0.647797 0.860441
17.6323 30.5676 9.38655 0.0225843 0.774562 1.44562
17.3612 31.7385 6.76935 0.0411651 -0.255763 2.1224
15.0118 31.1191 8.32022 -1.71631 -0.4976 0.239074
20.9539 28.2034 6.40011 0.619152 0.235613 1.85363
20.386 29.7768 8.7475 -0.457966 0.552306 1.01762
22.3006 31.7305 7.83863 -0.405497 -2.23751 1.0866
23.1396 28.9861 8.10845 -0.695414 -0.202232 0.911904
25.3254 29.7688 9.81678 0.758671 -0.71413 -0.905144
25.0542 30.9397 7.19957 -1.14101 1.02807 1.96333
27.2399 31.7224 8.90791 -0.151549 -0.726898 0.0855255
27.1604 29.0409 7.71644 0.5053 1.24415 -0.189326
29.3461 29.8236 9.42477 -0.415157 -1.08187 0.938994
16.7932 33.3119 9.11673 0.674915 -0.0219799 1.88618
19.5469 32.5212 8.47768 0.856468 -1.21009 -0.771269
21.7326 33.3039 10.186 -1.15891 0.270563 1.4676
24.4863 32.5131 9.54696 -0.134368 -1.32278 0.632542
14.4335 5.72158 12.863 0.819466 0.718214 -2.67049
14.1624 6.89253 10.2458 -0.643428 0.698131 -0.402607
12.7808 7.86752 13.9944 -2.07073 1.59911 0.367943
15.1302 8.4869 12.4435 0.616961 2.3493 -0.743783
17.2363 6.5881 12.9603 -1.34099 0.381008 -1.29337
16.9652 7.75905 10.3431 1.81279 0.304779 -1.63445
22.842 8.32114 13.155 1.68372 -0.522574 0.386321
20.0392 7.45462 13.0577 0.135881 -2.16922 -1.63267
19.7681 8.62558 10.4405 -0.481002 -0.246005 -0.443452
13.4775 10.6328 13.5748 -0.545916 0.324076 0.608466
13.2064 11.8038 10.9576 1.16463 -0.0397608 1.15652
12.5097 9.03848 11.3771 -1.07507 -0.177634 -1.52372
10.857 11.1844 12.5085 2.04395 -0.129396 -0.986521
18.6298 12.1187 12.1212 0.034724 -0.0820447 0.454806
15.8269 11.2522 12.0239 -0.886132 0.862674 -1.33848
17.9331 9.35342 12.5408 -0.928259 -1.43272 0.845985
20.7359 10.2199 12.6381 -2.50853 -0.34532 -1.11747
22.5709 9.49209 10.5378 -2.01592 -0.325858 -0.582685
26.3416 11.953 12.8328 -1.04545 0.780512 0.95255
23.5387 11.0865 12.7354 1.1593 -0.685615 -0.769387
25.6449 9.18766 13.2523 -2.03172 0.29038 -0.863573
25.3737 10.3586 10.6351 1.22271 -0.467438 2.6148
31.2506 10.9207 13.4469 1.46665 0.882055 0.576717
30.9794 12.0917 10.8297 0.230657 -1.44197 0.326323
28.4477 10.0542 13.3496 1.91728 0.651822 2.32729
28.1766 11.2251 10.7324 0.768913 -0.925323 -0.458151
34.0534 11.7872 13.5443 1.48717 -0.579495 0.0156129
9.90105 16.0957 13.2202 1.95588 -0.339563 0.539423
9.20434 13.3304 13.6398 1.50332 -0.874031 0.0339079
8.9332 14.5013 11.0226 -0.217482 0.882977 0.704221
14.1742 13.3982 13.1553 1.00583 -1.57419 2.00594
13.9031 14.5691 10.538 -1.01703 0.233763 0.534666
12.5216 15.5441 14.2866 1.22758 -0.568026 -0.561114
11.5537 13.9497 12.0889 0.0381837 0.372211 0.354016
17.4915 15.6119 13.802 -0.83675 0.235336 -1.75362
16.7948 12.8466 14.2216 -0.380967 -0.361362 0.661161
16.5236 14.0175 11.6044 0.587486 0.0497303 1.35325
14.8709 16.1635 12.7357 -0.352861 0.343961 1.45175
22.1293 15.7506 11.799 0.21927 1.21752 -1.11432
19.3265 14.8841 11.7017 -0.802959 -2.48702 2.95247
21.4326 12.9853 12.2186 0.789518 -0.488237 -0.0318555
27.0383 14.7183 12.4132 2.53741 0.464662 0.7012
24.2354 13.8518 12.3159 -0.187044 2.7759 1.02086
26.0705 13.1239 10.2155 0.269766 -0.302669 0.251541
29.8411 15.5848 12.5105 -0.122177 -0.725784 1.01767
29.1444 12.8195 12.9301 -0.428432 0.786211 0.551707
28.8733 13.9905 10.3129 0.294627 -1.36224 0.619762
32.0269 16.3675 14.2189 1.73001 0.951778 -1.88187
31.9473 13.686 13.0274 -0.0363497 -1.10718 -1.15878
31.6761 14.857 10.4102 0.906545 0.753614 -1.10025
33.8619 15.6397 12.1185 -0.705272 0.196678 -0.513481
33.7823 12.9582 10.927 2.26341 0.619697 -0.564983
5.62786 18.7932 13.2852 0.137663 -0.170481 -1.76166
5.35672 19.9642 10.668 -0.00281601 -0.0027255 -2.05427
9.62991 17.2666 10.603 0.948334 0.51963 -0.79391
7.97724 19.4126 11.7344 -1.2924 0.579028 -0.0231645
7.28053 16.6472 12.1539 -0.220713 3.89505 -0.161414
13.2183 18.3094 13.867 0.00319895 -2.02017 0.156266
12.9471 19.4804 11.2498 -0.140162 1.96531 0.853705
12.2504 16.7151 11.6694 -0.0143857 1.38856 1.22975
10.5978 18.861 12.8007 -0.890031 -0.728663 0.154831
18.1882 18.3772 13.3825 0.268279 0.510164 0.0103991
17.917 19.5482 10.7653 1.06318 -1.17463 -0.0755432
17.2203 16.7829 11.1848 0.104112 -1.78254 -0.919272
15.5677 18.9288 12.3162 0.982823 0.432308 -1.00026
20.991 19.2437 13.4798 1.52453 -0.508516 -1.97614
22.826 18.5159 11.3795 1.14761 1.24605 -0.114217
20.2943 16.4784 13.8994 1.10258 -1.74905 -0.393067
20.0232 17.6494 11.2822 0.951004 -0.89259 2.81473
23.7939 20.1103 13.5771 0.497843 0.947722 0.266526
25.9 18.2115 14.094 1.01652 0.484848 -1.06967
25.6289 19.3824 11.4768 0.312965 2.35766 -1.86532
23.0971 17.3449 13.9967 0.0271912 -1.42498 -0.958914
24.9322 16.6171 11.8963 1.09283 -0.7901 -0.610694
27.8146 20.1651 13.1851 1.83883 1.16083 -1.11534
27.735 17.4836 11.9937 -2.65996 0.160999 -0.263869
29.9207 18.2663 13.702 0.288872 -0.262174 -1.77257
29.6496 19.4373 11.0848 -0.514591 -1.3348 -0.366332
31.8353 20.2199 12.7931 0.334664 0.35752 -0.241956
31.7557 17.5385 11.6016 2.16212 -0.449699 0.651781
33.9415 18.3212 13.31 0.88941 0.960553 2.35515
33.6703 19.4921 10.6928 0.863609 0.55324 0.497355
4.6719 23.7045 13.997 -0.975722 -0.307338 0.718521
6.05342 22.7295 10.2485 -0.401816 0.98257 -0.766319
3.70405 22.1101 11.7993 1.6527 0.838411 0.247386
9.64179 23.7723 13.5125 -0.845971 -0.0416637 -0.00284701
8.94508 21.0069 13.932 -2.30988 0.563295 0.544231
8.67395 22.1779 11.3148 -0.416879 1.33698 0.422581
6.32456 21.5585 12.8657 1.43987 0.709943 -1.48726
14.6117 23.8401 13.0279 -0.650448 0.024076 0.514478
13.915 21.0747 13.4475 0.487158 1.02383 -0.676775
13.6438 22.2457 10.8303 -0.554032 0.117923 -1.64735
11.2945 21.6263 12.3811 0.23064 0.565422 1.38887
17.2322 23.2885 14.0943 -1.39496 -0.620188 -2.08208
18.6137 22.3135 10.3457 -0.312529 0.00221009 0.917264
16.2644 21.6941 11.8966 -1.26524 -1.28874 -0.460249
19.5816 23.9079 12.5434 -1.3601 -0.311507 0.565473
21.6877 22.0091 13.0603 -0.796135 -0.126331 1.81975
21.4166 23.18 10.4431 0.314346 -0.542401 -0.105468
18.8849 21.1425 12.9629 -0.27005 -0.640705 -1.36116
20.7199 20.4147 10.8626 0.19731 0.397776 -0.642704
23.6023 23.9627 12.1514 0.583948 -1.05529 1.1768
23.5227 21.2812 10.9599 -0.380301 -2.4211 -2.40906
25.7084 22.0639 12.6683 -0.290875 2.61102 -0.245129
27.623 24.0175 11.7594 0.843086 -0.168511 -1.18016
27.5435 21.3361 10.5679 -0.645403 1.51768 0.808895
29.7292 22.1187 12.2762 -1.20626 1.05894 2.30888
31.9149 22.9014 13.9846 0.428249 2.04556 1.71165
31.6438 24.0724 11.3674 0.852523 -2.44125 -0.334793
33.7499 22.1736 11.8842 -0.884905 0.949999 -1.84928
4.40076 24.8755 11.3798 -0.611549 0.409615 -0.585779
6.18221 27.0683 12.1763 0.78584 -2.67658 1.25047
2.05137 24.2561 12.9307 -1.05194 0.542604 -0.0909171
3.83282 26.4489 13.7272 0.519185 -1.18649 1.31778
9.37065 24.9433 10.8953 -0.480377 1.5567 -0.708921
7.02127 24.3239 12.4462 -0.298228 -2.31801 0.119638
8.80272 26.5167 13.2427 -2.35595 -1.95238 -1.7118
8.53158 27.6876 10.6255 -0.537746 1.38791 2.60749
14.3405 25.011 10.4107 -0.905987 0.202691 0.553203
11.9912 24.3917 11.9616 -0.457702 2.56162 0.672176
13.7726 26.5844 12.7581 -1.77305 0.354437 0.520991
11.1521 27.136 11.6918 -2.66798 -0.229264 -1.69424
16.9611 24.4594 11.4771 0.102699 0.337157 1.27877
18.7425 26.6522 12.2736 0.353024 -1.85087 0.262992
16.3931 26.0329 13.8244 -0.0624679 2.29554 0.256218
16.122 27.2038 11.2072 -1.02129 -1.20711 1.12508
21.7673 24.6905 14.2517 0.253534 0.804595 -1.00065
21.4962 25.8615 11.6345 -1.15827 0.576384 0.599356
20.9282 27.4349 13.9819 -1.44485 -1.28023 0.275478
23.6819 26.6442 13.3429 0.757959 2.1027 -0.470924
23.4108 27.8151 10.7256 -0.882993 0.643327 -1.24195
25.788 24.7454 13.8597 0.864272 1.28384 1.3553
25.5169 25.9163 11.2425 -0.43411 -0.970018 -0.0223389
27.7026 26.699 12.9508 -2.61316 -0.470559 1.38439
27.4315 27.87 10.3336 -1.03923 -0.264707 -0.140351
29.8088 24.8002 13.4677 0.74637 -1.37268 -0.24009
29.5376 25.9712 10.8505 -1.0777 0.0627236 0.527936
31.7234 26.7539 12.5588 0.194833 -0.255617 0.585246
33.9091 27.5366 14.2672 -1.54137 -3.03176 -0.0834248
33.8295 24.8551 13.0757 0.163845 0.0170015 -0.255854
33.5584 26.026 10.4585 -0.340812 -0.696073 -0.204026
10.313 29.8804 11.422 -0.217774 0.256294 -0.912055
7.96366 29.261 12.9728 0.0135088 0.922903 0.271708
9.7451 31.4538 13.7694 0.735746 -0.50318 -0.490722
12.9335 29.3288 12.4883 1.38388 0.0840751 -0.814089
10.5842 28.7095 14.0392 -0.289745 1.01705 0.567175
17.9034 29.3966 12.0038 -1.33012 -0.776577 -0.621919
15.5541 28.7772 13.5546 1.68071 0.370871 2.1205
15.2829 29.9482 10.9374 1.21692 0.472945 0.908048
14.715 31.5216 13.2848 0.946995 -2.46171 -2.98728
20.6571 28.6059 11.3647 0.113284 -1.72423 -0.5069
20.0892 30.1793 13.7121 0.849512 0.326201 -1.73611
19.818 31.3502 11.0949 -0.305902 2.41456 1.01905
22.8428 29.3886 13.073 0.894728 0.224469 -0.0407482
22.5717 30.5595 10.4558 -1.42446 -0.470404 0.917342
25.5965 28.5978 12.434 0.659962 0.0127825 0.992354
24.7574 31.3422 12.1642 -0.0757972 -0.690112 0.400107
27.7822 29.3805 14.1423 -0.157637 -0.441845 1.96092
27.5111 30.5515 11.5251 0.235009 -2.60224 -0.0378205
29.6968 31.3341 13.2334 1.16267 1.66563 0.879596
29.6172 28.6527 12.042 1.43919 0.482108 -2.01386
31.8029 29.4353 13.7503 -1.05758 1.48686 -0.000904379
31.5318 30.6063 11.1331 1.96381 -0.580617 -0.0605465
33.7175 31.389 12.8414 0.290787 0.927542 -2.41908
33.638 28.7075 11.65 0.272825 -2.07003 1.1257
14.4439 32.6926 10.6676 -0.207525 0.0892381 -1.88776
12.0945 32.0732 12.2185 -0.556622 0.394422 0.721457
13.8759 34.266 13.015 0.555697 1.03656 0.303472
17.0644 32.141 11.7339 2.00158 -1.52374 -1.62977
16.4964 33.7144 14.0813 2.22388 -2.34867 -1.35177
16.2253 34.8853 11.4641 -1.24519 0.218505 1.26059
18.411 35.668 13.1725 -1.88655 0.650008 -0.5941
19.2501 32.9237 13.4423 0.924605 -0.273348 -0.00655209
18.979 34.0946 10.8251 1.29826 -0.586019 -0.499514
22.0038 32.1329 12.8032 0.035018 -1.0257 1.58653
21.1647 34.8773 12.5334 -0.0651636 0.380006 -0.989045
23.9184 34.0866 11.8943 -0.608308 -2.05911 -0.710029
26.9431 32.1249 13.8725 -0.434705 0.42146 0.243782
26.672 33.2958 11.2553 1.16564 0.176062 1.37064
23.3504 35.66 14.2417 -0.135579 1.07893 -1.10574
26.1041 34.8693 13.6027 -0.995834 -1.02056 -0.269355
29.4257 32.5051 10.6162 -1.79682 0.00153282 0.262939
28.8577 34.0785 12.9636 0.831625 0.72756 0.161111
31.6114 33.2878 12.3246 1.87076 -0.614516 1.97802
33.7971 34.0705 14.0329 2.06236 0.196744 1.50151
15.6574 36.4588 13.8115 -0.230291 0.420093 0.226829
17.7786 4.24619 18.1948 1.26487 0.765531 0.596269
14.9758 3.37967 18.0974 0.398284 -1.48323 2.68024
14.7046 4.55063 15.4802 -0.426159 -2.14553 0.302571
13.052 6.69657 16.6116 0.879179 -0.98803 -1.25659
18.4753 7.01151 17.7752 -1.99127 -0.593569 -1.08288
18.2042 8.18247 15.158 -3.11663 -0.775329 -0.228817
15.6725 6.14499 17.6779 -0.665579 0.388058 2.41104
15.4013 7.31595 15.0607 -1.93682 -0.848706 -0.253222
17.5075 5.41715 15.5776 -0.588941 0.714444 -2.30448
21.2782 7.87803 17.8725 0.476222 0.289508 -2.3125
20.5815 5.11272 18.2921 1.68756 -0.447293 1.95434
20.3103 6.28367 15.6749 0.0255008 0.279397 -0.481211
24.081 8.74456 17.9698 0.639026 -1.93401 -0.250503
25.916 8.01671 15.8695 -1.58758 -1.2035 1.52131
23.1132 7.15019 15.7722 0.111473 -0.948416 -1.11058
9.47548 12.1594 16.257 -0.871628 0.535681 -1.85658
14.4454 12.2272 15.7725 -1.31095 1.94046 0.641072
13.7487 9.46189 16.192 3.31082 -1.47027 -0.57201
12.096 11.6078 17.3233 -0.744983 0.0656246 -2.20094
11.3993 8.84251 17.7429 1.03035 -1.4629 -1.16385
11.1282 10.0135 15.1257 0.718011 0.896316 0.546161
17.0659 11.6756 16.8388 -0.252068 0.735612 1.82581
16.3692 8.91031 17.2583 1.0175 1.02314 1.42442
16.098 10.0813 14.6411 1.26267 0.67967 0.527308
19.8687 12.5422 16.9361 2.02872 -0.936733 0.188729
21.9749 10.6434 17.453 -0.905459 -1.0989 0.27673
21.7037 11.8143 14.8358 0.209372 0.520466 0.331266
19.172 9.77683 17.3557 0.4321 -0.257085 1.04295
18.9009 10.9478 14.7385 1.13025 0.0188788 0.99123
21.007 9.04898 15.2553 -0.113788 0.890153 -1.05332
24.7777 11.5099 17.5503 0.611785 -1.99586 -0.343731
26.8839 9.61108 18.0672 1.19267 1.64056 0.017563
26.6127 10.782 15.45 -0.465774 0.241388 0.301307
23.8099 9.91551 15.3526 0.482045 0.155276 1.71957
27.5806 12.3764 17.6476 -0.623926 1.68238 -1.81719
29.6867 10.4776 18.1645 -0.0840292 -2.00148 -1.01667
29.4156 11.6486 15.5473 0.337906 1.19298 -1.04283
28.7189 8.88324 15.9668 2.13596 -1.92859 0.437644
32.4896 11.3441 18.2618 0.228609 0.955641 -0.733466
32.2184 12.5151 15.6446 0.241183 -0.872397 -1.10485
34.3246 10.6163 16.1615 -0.555969 -0.481683 0.215027
31.5217 9.74976 16.0641 -0.0356626 -1.5052 1.07563
10.1722 14.9247 15.8374 -0.990297 -0.510489 1.63619
7.8228 14.3053 17.3883 -0.977407 0.263905 0.0218292
7.55167 15.4763 14.7711 0.632468 -0.452865 0.159302
12.7927 14.3732 16.9038 -1.21373 1.06961 -2.69304
11.8249 12.7788 14.7061 -1.2328 0.539475 1.93907
17.7626 14.4409 16.4192 0.413092 -0.809988 -0.0201804
15.4132 13.8216 17.9701 -0.075341 1.00643 0.873689
15.1421 14.9925 15.3529 -1.08039 -2.12854 -0.380078
20.5654 15.3075 16.5166 0.322593 0.59662 1.01241
22.6716 13.4087 17.0334 -0.517872 2.31039 0.759845
22.4004 14.5796 14.4162 -0.178964 -0.117542 3.14703
19.5976 13.7131 14.3189 1.76985 0.671082 0.522161
23.3683 16.174 16.6139 0.0859448 -0.423931 0.464868
25.4744 14.2752 17.1307 1.20899 -1.36838 -0.0565544
25.2033 15.4461 14.5135 0.160649 0.795813 2.07506
24.5066 12.6808 14.9331 -2.32716 0.226989 -0.641046
28.2773 15.1417 17.2281 -0.194159 -1.23654 -0.487557
28.0061 16.3127 14.6109 -2.02757 -1.20467 -0.350997
30.3834 13.2429 17.7449 -1.17993 0.744982 0.753598
30.1123 14.4139 15.1277 -0.349654 0.283581 -3.57372
27.3094 13.5474 15.0304 1.35905 -0.0768952 -0.555849
32.298 15.1966 16.8361 1.04002 -0.836996 -0.54503
34.4042 13.2978 17.3529 1.31563 -1.51348 0.515214
34.133 14.4687 14.7357 0.628775 0.625725 -0.0653209
5.899 17.6222 15.9024 -0.230908 0.833978 1.22398
4.24632 19.7682 17.0338 0.344322 -2.7169 0.374807
9.21622 19.836 16.5492 -2.26344 0.181036 0.345942
8.51951 17.0707 16.9688 -0.141009 -0.347397 -0.687956
8.24837 18.2416 14.3516 0.201396 1.56624 -0.102647
6.86684 19.2166 18.1001 2.47935 -0.609001 0.0564013
14.1861 19.9038 16.0647 -0.297268 0.172617 -0.11453
13.4894 17.1385 16.4842 -2.24215 2.06271 0.563433
11.8367 19.2844 17.6156 -0.159076 -2.36897 1.44341
11.14 16.5191 18.0351 -0.177619 0.414644 -0.447517
10.8689 17.69 15.4179 1.57548 -0.610226 -1.75003
18.4593 17.2063 15.9997 -0.307828 0.257139 -0.493416
16.8066 19.3522 17.131 0.738505 -0.148795 0.998483
16.1099 16.5869 17.5506 0.273514 0.0894424 0.581168
15.8388 17.7578 14.9334 1.94235 -0.45413 -0.843907
22.23 19.6672 18.2947 0.269626 -1.2832 0.799764
19.4271 18.8006 18.1973 -0.505726 1.45527 -0.491059
19.156 19.9716 15.5801 0.697238 0.232525 -1.23521
21.2622 18.0728 16.097 1.89466 1.09271 1.70283
24.065 18.9393 16.1943 3.08423 -0.683445 0.410013
26.2507 19.722 17.9027 -0.0134404 0.759659 -1.48042
26.1711 17.0405 16.7112 -0.273155 -0.163386 -0.877414
28.0857 18.9942 15.8023 -0.424435 -0.094789 0.615571
30.2715 19.7768 17.5107 0.102448 -0.076151 -1.63661
30.1919 17.0954 16.3192 0.422581 0.210242 1.0252
32.3776 17.878 18.0275 -0.1164 1.76775 -2.38607
32.1065 19.049 15.4103 0.380973 -1.37674 1.34174
34.2922 19.8317 17.1187 0.184187 1.32203 -0.822293
34.2126 17.1502 15.9272 0.807248 -0.281643 1.71348
4.94304 22.5336 16.6142 0.0344334 1.5538 -0.0587069
2.59365 21.9142 18.1651 -0.572412 0.718263 -1.42516
2.32251 23.0852 15.5479 0.408582 -1.78112 1.49375
3.97518 20.9391 14.4166 -0.309451 -0.0650792 -0.801917
9.91292 22.6014 16.1297 0.799213 -0.0916097 0.116356
7.56355 21.982 17.6806 -0.129273 -0.588473 -1.85715
7.29241 23.1529 15.0634 -0.772878 1.01499 0.0635295
6.5957 20.3876 15.4829 0.351145 0.769608 1.19128
12.5334 22.0498 17.196 1.38623 0.0940391 -0.0480574
12.2623 23.2207 14.5788 1.16734 1.51238 1.01269
11.5656 20.4554 14.9983 1.01531 -2.07573 -0.300098
17.5033 22.1175 16.7115 1.04897 0.543914 1.18194
15.154 21.4982 18.2623 1.54043 0.978882 0.477559
14.8828 22.6691 15.6451 -0.90189 -0.464538 2.00457
16.5355 20.5232 14.5138 0.154589 -0.946843 0.720367
20.1239 21.566 17.7778 -1.27765 1.22087 0.974693
19.8527 22.7369 15.1606 0.015981 0.618823 0.246646
22.0384 23.5196 16.8689 -1.24775 -0.516066 -1.85495
21.9589 20.8381 15.6775 0.0971908 -0.151057 -0.304892
24.1446 21.6208 17.3858 0.130153 0.209773 -1.50293
23.8735 22.7917 14.7686 -1.00807 0.372695 -0.476707
26.0592 23.5744 16.4769 -0.949717 -1.08625 -0.695066
25.9796 20.8929 15.2855 -1.01718 -1.27193 0.191911
28.1653 21.6756 16.9938 0.927264 0.266003 1.59584
27.8942 22.8466 14.3766 -1.1392 -0.753046 0.626057
30.0799 23.6293 16.0849 -0.00423413 -0.65871 -2.83848
30.0003 20.9478 14.8935 -1.08567 -1.0835 -0.0976962
32.186 21.7305 16.6018 1.29308 -0.463886 -0.276547
34.3718 22.5132 18.3101 1.16991 -0.359699 0.275869
34.1006 23.6841 15.6929 -0.554019 -0.720231 1.12567
34.0211 21.0026 14.5014 -1.25453 -1.15145 0.503258
4.10396 25.2779 16.3444 -1.54875 -0.131151 -0.412299
5.88541 27.4707 17.1409 -0.00394185 -0.977736 1.34545
9.07386 25.3457 15.8599 0.80198 -0.423078 1.70707
6.72448 24.7264 17.4107 0.325881 -1.50771 -1.33384
6.45335 25.8973 14.7935 0.66753 -0.37237 0.607328
8.50593 26.9191 18.2073 0.38325 -0.109281 -0.610089
14.3149 24.2425 17.9925 2.22583 1.22952 0.23976
14.0438 25.4135 15.3753 -1.32987 1.75243 -0.0972329
11.6944 24.7941 16.9262 -0.97358 -1.02307 0.464284
11.4232 25.9651 14.309 -0.650653 -3.539 -2.74341
13.4758 26.9869 17.7227 0.339124 0.618403 -0.428205
10.8553 27.5385 16.6564 -0.026264 1.19148 1.12867
16.6643 24.8619 16.4417 1.10146 0.400672 0.948109
18.4457 27.0547 17.2382 1.53378 2.14747 0.688679
15.8252 27.6063 16.1718 4.46508 -0.982541 0.546094
19.2848 24.3103 17.508 1.72009 -0.639109 0.0844181
19.0137 25.4813 14.8908 2.45259 -1.07049 -0.472294
21.1994 26.264 16.5991 -0.759169 -0.419812 -0.523737
23.953 25.4732 15.9601 0.80992 -1.1719 0.447633
23.3851 27.0467 18.3074 0.104276 -2.60966 1.36836
26.1388 26.2559 17.6684 1.2022 0.723509 0.327227
25.8676 27.4269 15.0512 -0.529636 0.694979 0.562814
28.2449 24.3571 18.1853 -0.860804 -0.198212 0.514085
27.9738 25.5281 15.5681 0.68275 0.890957 0.346786
30.1595 26.3108 17.2764 -2.57835 -0.525206 0.418023
29.8884 27.4817 14.6592 -0.0233388 0.358946 0.980756
32.2656 24.412 17.7933 0.431827 0.260181 -0.354676
31.9945 25.5829 15.176 0.0515866 -0.491603 0.100708
34.1802 26.3656 16.8844 0.807681 -0.0168006 -1.13387
5.61427 28.6417 14.5237 0.941962 1.11768 -1.422
8.23479 28.0901 15.5901 0.340531 -0.292236 0.22548
10.0162 30.2829 16.3866 -0.31716 1.66481 -0.239278
7.66685 29.6635 17.9374 1.89788 -0.211993 1.01516
7.39572 30.8345 15.3202 0.0181036 -0.105603 -2.47814
13.2047 28.1579 15.1055 -0.582595 0.585846 -0.23834
12.6368 29.7313 17.4529 -0.315252 -0.457553 0.499762
12.3656 30.9022 14.8357 -0.358906 -2.23915 0.932857
18.1746 28.2256 14.621 -0.0810031 -0.961276 -1.92338
17.6067 29.7991 16.9683 -0.106278 0.75241 1.23035
17.3355 30.97 14.3511 1.47829 -0.608185 -0.878141
14.9861 30.3507 15.902 0.0637513 0.904614 -1.56405
20.3603 29.0083 16.3293 -1.27312 2.56647 0.96391
19.5212 31.7527 16.0595 -0.347962 0.308654 -0.560548
22.546 29.791 18.0376 -1.10973 -1.01248 0.509861
22.2749 30.962 15.4204 -0.431773 -0.0966694 -0.858652
23.114 28.2176 15.6902 0.931009 -0.79191 -0.90162
25.2997 29.0003 17.3986 -0.912521 0.814499 -1.04832
25.0286 30.1712 14.7814 0.742024 -0.586493 -0.880833
24.4606 31.7447 17.1288 0.263171 -1.60303 -0.740719
27.2143 30.9539 16.4897 0.956825 0.622148 -0.873993
28.0534 28.2096 16.7595 -1.86517 -2.29724 1.78204
29.968 30.1632 15.8507 -0.94031 -0.146785 -0.627092
29.4 31.7366 18.198 -0.588942 -2.69261 -1.25489
32.1537 30.9459 17.559 3.04989 0.575906 0.961488
32.0741 28.2644 16.3675 0.717257 1.25994 -0.70536
34.2598 29.0471 18.0759 -0.717522 -1.07776 0.478773
33.9887 30.218 15.4586 0.20784 1.39717 0.671786
9.17717 33.0273 16.1167 -1.79861 -0.112413 -2.48481
14.4182 31.9241 18.2494 0.473704 1.03477 1.13806
14.1471 33.095 15.6322 -0.676789 1.38006 -0.107678
11.7977 32.4757 17.1831 0.414019 -0.735368 -2.068
11.5266 33.6466 14.5659 0.806104 0.607446 0.835296
13.5791 34.6684 17.9796 2.17454 0.612437 0.31511
10.9586 35.22 16.9133 -0.453984 1.51478 0.836819
16.7676 32.5434 16.6985 2.45861 0.292886 -0.0503032
15.9285 35.2878 16.4287 -0.1374 0.714585 -1.89701
18.6822 34.4971 15.7897 0.439564 0.569147 -1.44427
21.707 32.5354 17.7678 -0.81491 -1.6322 0.617854
21.4358 33.7063 15.1506 -1.10178 1.07952 -0.655819
20.8679 35.2798 17.498 -0.81217 -0.506525 1.31095
24.1895 32.9156 14.5115 -0.796172 0.617621 -0.590731
23.6216 34.489 16.8589 -0.257363 -1.29277 1.08668
26.3752 33.6983 16.2199 -0.245183 0.270022 0.253564
29.1289 32.9076 15.5808 -0.497079 -0.719353 0.758037
28.5609 34.481 17.9282 -0.0336661 0.446302 -0.335722