ITEM: TIMESTEP
0
ITEM: NUMBER OF ATOMS
14
ITEM: BOX BOUNDS ss ss ss
1.8118062972370087e+01 2.2671937027629909e+01
1.7729817457419880e+01 2.3060182542580119e+01
1.6689631818271813e+01 2.4100368181728186e+01
ITEM: ATOMS x y z vx vy vz
18.1221 21.9098 21.3082 0.961256 0.136081 0.55557
18.6471 18.2436 19.6135 1.01989 -0.508567 -0.0706389
22.1429 22.5464 21.1765 1.97298 -1.37334 -0.927542
22.6679 18.8802 19.4818 -0.467574 1.5526 -1.80023
18.1929 20.9047 18.6102 -2.47917 0.810392 -0.0102785
19.9408 23.0561 19.3917 0.25228 -0.114588 -2.22796
20.4658 19.3899 17.697 1.40314 0.308573 0.433914
22.2136 21.5413 18.4785 1.72296 -0.199757 0.401618
20.0116 22.051 16.6937 -1.84767 0.313411 0.635474
18.5764 19.2487 22.3115 -0.577651 0.532395 0.0362778
20.3242 21.4001 23.093 -2.61735 -0.528935 0.230786
20.8492 17.7339 21.3983 0.738278 -0.679065 0.15534
22.5971 19.8853 22.1798 0.500652 -0.151765 0.88164
20.7784 18.739 24.0963 -0.582027 -0.0974296 1.70604
ITEM: TIMESTEP
1000
ITEM: NUMBER OF ATOMS
14
ITEM: BOX BOUNDS ss ss ss
1.7649354063753890e+01 2.3115245128473550e+01
1.7468286915829726e+01 2.3974475177319473e+01
1.7942015827004465e+01 2.2846167664091737e+01
ITEM: ATOMS x y z vx vy vz
18.8704 21.4439 21.4051 -7.04204 0.298908 -1.60393
19.5319 18.4069 20.641 -2.25206 1.245 1.41877
21.3917 21.6324 20.029 -2.48113 3.68479 0.168861
23.2286 19.7097 19.4521 1.84073 1.99235 -0.0195285
19.9166 20.347 18.6998 5.31468 -0.55931 -5.64092
19.3477 23.895 19.8856 1.99807 -0.476129 1.95699
21.2422 17.8847 19.1714 2.15617 1.14993 2.31722
22.4628 20.571 17.7472 -0.407663 -5.22367 -3.26984
18.1733 22.868 19.0607 0.320222 -5.81951 6.23175
17.3228 20.4146 19.8828 -3.55695 5.30473 -3.9649
20.8684 21.7952 22.6969 2.12205 0.948141 1.99537
21.3472 17.4548 22.1174 3.26854 -1.55998 -1.1423
22.292 19.7072 21.6969 1.65278 -1.91851 -2.84029
19.5344 19.3996 23.0441 -2.93339 0.933252 4.39275
ITEM: TIMESTEP
2000
ITEM: NUMBER OF ATOMS
14
ITEM: BOX BOUNDS ss ss ss
1.7944093912939017e+01 2.2161482275855469e+01
1.7713112570196891e+01 2.3596411911227563e+01
1.8116398021018920e+01 2.4367085238632274e+01
ITEM: ATOMS x y z vx vy vz
19.9512 22.196 21.7655 3.23156 3.38769 1.2298
19.2383 20.1044 20.0353 0.453553 1.678 -3.51215
20.3237 23.5352 19.7991 -1.01121 1.14066 0.830973
20.8001 21.0791 17.8979 0.578009 0.610203 -1.75854
19.9861 17.0695 18.6783 2.01555 -5.60342 2.71005
22.0619 21.9139 23.3697 4.46916 -2.54952 -0.608018
22.0942 18.7437 20.8477 -0.33123 -1.85615 1.05602
21.762 19.0797 18.3816 -0.395503 0.0083867 2.48311
18.9728 23.2521 18.555 -5.88006 7.5677 -0.361862
18.0665 18.828 18.2805 3.46741 -0.567476 1.53179
20.058 21.2019 24.093 -5.27762 -0.512774 1.2007
19.5044 17.7172 20.6316 -1.96781 -2.02395 -2.55559
21.7457 21.0816 20.4115 -0.444835 -2.07656 -4.27552
20.9651 19.7276 22.7832 1.09301 0.797219 2.02923
ITEM: TIMESTEP
3000
ITEM: NUMBER OF ATOMS
14
ITEM: BOX BOUNDS ss ss ss
1.7491745687103499e+01 2.2529321219063799e+01
1.6772535888281976e+01 2.3569743636732781e+01
1.7862180871852399e+01 2.2619004670993199e+01
ITEM: ATOMS x y z vx vy vz
21.9668 23.2943 21.4878 -1.05615 -1.6016 -3.44297
18.4954 21.3715 20.3597 1.26991 -2.26014 -0.0509022
20.148 23.6595 19.1994 -1.4367 -0.624178 3.02482
20.0751 20.9183 18.2133 -0.832659 1.18898 0.00474954
20.1576 16.6855 20.4902 -2.33409 -0.172417 2.83828
22.5406 20.3234 22.7334 -1.46522 2.72932 0.362734
22.1821 18.003 21.634 -1.55613 -2.61611 0.0922222
21.8478 18.7882 19.4791 2.63261 0.511214 0.289359
17.5498 23.3288 20.5353 2.24734 -3.50453 1.63845
20.2971 18.2698 17.7535 -3.58765 -2.04872 -1.73165
19.8141 21.1131 22.3738 -0.75228 1.02303 -1.93477
18.5472 19.1869 19.374 5.0136 3.35624 -1.56167
21.7149 21.7079 20.2144 0.263291 0.511093 3.60779
20.1936 18.8797 21.6822 1.59414 3.50781 -3.13644
ITEM: TIMESTEP
4000
ITEM: NUMBER OF ATOMS
14
ITEM: BOX BOUNDS ss ss ss
1.8990329429276557e+01 2.2074589941082284e+01
1.6490563682407117e+01 2.4615370652452839e+01
1.6772905260321348e+01 2.3850204239022062e+01
ITEM: ATOMS x y z vx vy vz
21.4704 22.5986 21.7156 1.9929 -6.57959 -1.53437
19.2473 19.9909 19.2559 -3.68046 2.66822 -1.55104
18.724 21.8123 21.1606 -2.80779 -1.90529 -1.7413
20.7452 19.9484 16.5528 0.293868 -0.27614 -0.644029
19.9035 18.2494 20.8676 1.73768 1.29683 3.37511
21.6743 20.7451 23.173 -2.34457 -1.05032 0.918923
22.444 20.013 20.4715 0.253152 1.14914 -0.0375156
21.4917 19.0795 18.5727 0.889213 0.0315611 1.2073
20.4142 24.4903 22.3776 2.99037 2.22332 0.908858
20.4636 16.5293 18.7868 -1.47852 1.63686 3.53113
19.4123 22.4725 23.4556 -0.502263 -3.61669 -1.37507
19.4269 17.8185 17.4527 3.78327 0.337 -0.826287
20.7434 21.7518 18.7866 -3.277 3.88873 -4.16927
19.369 20.0304 22.901 2.15014 0.196375 1.93756
ITEM: TIMESTEP
5000
ITEM: NUMBER OF ATOMS
14
ITEM: BOX BOUNDS ss ss ss
1.8456873580077257e+01 2.4199460687996961e+01
1.7242130914806385e+01 2.2662769310963917e+01
1.6906732847011856e+01 2.3538171594592381e+01
ITEM: ATOMS x y z vx vy vz
18.6367 19.0981 19.3519 3.12075 -2.03117 1.13242
19.5701 18.9554 16.9793 -1.14051 1.13161 3.05275
20.5674 19.787 20.6169 0.85457 1.69434 1.71288
22.831 21.9749 22.3773 2.0385 1.8996 0.909632
21.7278 20.2452 18.5568 0.199367 0.449941 -0.628533
20.2771 17.3966 19.004 -1.38088 1.85817 -1.65668
21.2128 17.2609 16.9281 3.34244 0.756251 0.516249
18.6864 20.308 22.8864 -1.69237 -0.482166 -0.330535
20.6916 22.5076 20.4938 2.05052 -0.00323909 -1.24667
18.4635 21.3954 20.6478 -0.169475 0.941298 -3.00325
20.6494 21.4126 23.5619 -4.68492 0.68675 1.03157
24.2314 21.0386 23.2963 1.15244 -4.90947 -3.46007
18.682 22.6791 22.8029 0.048507 1.24613 0.571085
19.3027 21.4706 18.0266 -3.73895 -3.23804 1.39916
ITEM: TIMESTEP
6000
ITEM: NUMBER OF ATOMS
14
ITEM: BOX BOUNDS ss ss ss
1.7639756893140568e+01 2.3914255971683794e+01
1.8426483819101119e+01 2.2300201537725894e+01
1.7814145098230291e+01 2.3404077425061594e+01
ITEM: ATOMS x y z vx vy vz
18.3381 19.1655 20.3101 -0.276727 -1.92923 -3.33088
19.84 19.6637 17.8445 -2.32482 0.463924 -0.619161
20.0548 19.5295 22.2463 0.777784 -1.0397 2.59307
22.6163 20.6523 21.0874 -0.872751 -0.422983 -2.47083
21.7156 21.2245 18.1018 -0.533026 -2.74725 -1.49386
20.9031 18.827 20.1806 4.66067 7.96695 0.84251
22.8728 19.1634 18.4376 -3.76542 1.66893 3.17847
17.5537 20.5524 22.6945 -2.62942 0.497625 -3.1862
20.5349 21.3622 20.2798 3.5106 1.1456 0.583165
17.9078 21.7257 20.1476 -1.17584 0.579686 0.0192378
21.4081 21.5569 23.304 2.75894 -0.882141 -3.64579
23.9243 18.3514 20.7094 -0.328034 -2.05418 0.974435
19.29 22.2483 22.2382 -2.32159 -1.3099 2.32838
18.5703 21.5073 17.9481 2.51964 -1.93731 4.22745
ITEM: TIMESTEP
7000
ITEM: NUMBER OF ATOMS
14
ITEM: BOX BOUNDS ss ss ss
1.6369795553479545e+01 2.4233803331793744e+01
1.7670005036948034e+01 2.2732949630204715e+01
1.7931161517465227e+01 2.3081937663877593e+01
ITEM: ATOMS x y z vx vy vz
18.5365 20.5595 20.1615 -1.1202 -0.700674 -1.43526
22.2354 17.7708 18.7495 0.737907 -3.35636 0.106363
18.6331 19.581 22.7951 -2.30962 1.91282 -1.21325
23.5748 20.844 18.7244 -1.91055 0.303205 -3.01123
21.4158 19.8509 18.2958 -3.67051 -0.793774 0.0899614
20.6218 19.2061 21.0052 -2.55368 0.330583 3.93785
24.2169 18.4848 17.8641 -0.470593 4.86497 0.259611
16.2979 20.2369 21.7205 1.11093 -1.33618 -1.51369
19.7259 21.7069 22.2323 0.562918 -0.876212 5.5242
17.5039 22.6073 20.4516 4.52661 1.61935 1.7948
21.8718 21.1969 20.606 -1.27936 -1.18679 -4.29589
23.3111 19.1475 20.4892 3.11393 2.23344 1.42744
17.3271 21.9691 22.7748 -1.59847 -0.152314 -2.27796
20.258 22.3683 19.66 4.86068 -2.86206 0.607053
ITEM: TIMESTEP
8000
ITEM: NUMBER OF ATOMS
14
ITEM: BOX BOUNDS ss ss ss
1.6439947844129428e+01 2.3417597424006438e+01
1.7102245019750484e+01 2.3085556105709610e+01
1.7754130564078608e+01 2.2585340776729012e+01
ITEM: ATOMS x y z vx vy vz
18.6987 20.7688 19.0775 0.7952 -1.80291 -2.06164
18.4719 19.0872 21.1782 -3.28553 0.169553 2.28959
16.931 21.3015 21.2728 -1.84974 1.01539 2.16419
19.9586 21.0206 22.3552 -0.190914 1.50289 -0.963032
18.3792 22.9383 20.52 -0.743659 -2.30445 -0.766037
17.6766 20.8299 23.1961 -0.45274 -2.896 3.95649
22.0208 17.4048 20.2233 -0.697488 0.507957 -0.209449
22.468 22.1648 17.6077 1.89464 0.437035 -0.691492
20.6282 19.0921 19.4883 0.376339 2.39294 -1.99185
21.4097 18.7913 22.1888 -1.6 -1.26764 -1.20776
22.8535 19.3932 18.4512 -0.00939223 -4.72934 1.81613
21.8619 21.0129 20.5045 -1.056 3.03651 -1.48352
23.4475 19.165 21.0203 3.47191 1.59771 -0.423362
20.7246 22.5596 18.446 3.34738 2.34034 -0.428258
ITEM: TIMESTEP
9000
ITEM: NUMBER OF ATOMS
14
ITEM: BOX BOUNDS ss ss ss
1.7174510319022151e+01 2.3227811938564162e+01
1.7426787369745899e+01 2.3536928932214767e+01
1.7893333869756923e+01 2.2838524196312431e+01
ITEM: ATOMS x y z vx vy vz
18.9057 20.8594 19.872 -0.199749 0.504098 2.3028
19.567 17.5365 20.5362 -2.44693 -0.0542579 -1.5584
17.0177 22.4122 22.273 -4.4575 0.21346 1.90321
19.5234 21.6048 22.921 -1.00468 -1.69501 -1.08949
18.8036 23.3243 21.0655 1.67974 -0.0378553 -2.83357
17.6961 19.9144 22.0589 4.29722 2.10041 -0.825111
21.8744 17.4205 20.9551 4.22547 2.01554 2.15403
22.5854 21.0474 18.0339 0.67071 -2.53539 -0.554866
20.9338 19.1606 18.5949 -1.59143 1.52321 4.32408
20.5952 19.6419 21.4373 -3.42313 -2.16071 -2.00112
23.0569 17.9042 18.8282 1.61991 -2.05637 -1.95888
21.5034 22.308 20.5408 0.748279 -2.39336 0.714401
22.8044 20.2547 20.2705 0.565292 1.27339 -1.02564
20.663 22.1412 18.1428 -0.683196 3.30286 0.448557
ITEM: TIMESTEP
10000
ITEM: NUMBER OF ATOMS
14
ITEM: BOX BOUNDS ss ss ss
1.7232111857838969e+01 2.3906303721191595e+01
1.7932608178723662e+01 2.2868334475083195e+01
1.8033068386274888e+01 2.2929010578419263e+01
ITEM: ATOMS x y z vx vy vz
18.9608 20.2958 20.0988 -3.92369 -0.361009 3.80269
18.3558 17.9904 21.7855 -0.00390479 1.28658 1.67834
17.4751 22.0811 21.1048 0.784897 0.463336 -0.193608
19.1646 21.5359 22.7645 0.187327 -1.70424 -3.48544
19.7158 23.0316 20.4918 1.75773 1.45024 0.940004
17.4425 19.7943 22.5951 3.68882 -0.357375 -0.260216
21.6706 18.6791 20.2726 -2.10278 0.523638 -1.67902
23.2013 21.7314 18.2581 -0.199022 0.690679 1.64088
20.0862 18.9096 18.2415 1.27916 -5.80371 -3.15565
20.3386 19.272 22.4119 -0.099131 2.18165 -0.853916
22.8536 19.4712 18.0888 -0.245911 1.45176 0.940781
21.7105 21.2392 20.8099 -5.20575 -1.20635 1.022
23.877 19.7723 20.3297 -0.361456 0.788452 -1.85892
20.6775 21.726 18.2771 4.44371 0.596345 1.46208
ITEM: TIMESTEP
11000
ITEM: NUMBER OF ATOMS
14
ITEM: BOX BOUNDS ss ss ss
1.7387575866490820e+01 2.3732023191274266e+01
1.8118828368459642e+01 2.2951352729896225e+01
1.7988918499470415e+01 2.3056996545094499e+01
ITEM: ATOMS x y z vx vy vz
19.3771 20.4257 20.4616 -0.175877 0.141613 -1.16115
18.8535 17.8747 20.7294 -2.18199 -0.504286 -1.7643
17.821 22.0449 21.362 1.44631 0.586841 0.468764
19.9755 21.8585 22.579 0.674502 1.39285 0.595188
19.9583 23.1815 20.1926 2.29838 -0.794994 1.36035
17.2294 19.5657 21.7152 2.75369 -2.69722 -3.04737
21.3728 18.4766 20.7038 0.220158 -0.544887 0.867723
22.8793 22.7272 19.4525 0.666463 0.00554937 -1.62683
19.551 18.9139 18.2408 -0.0875871 -4.42814 3.19555
20.3851 19.3471 22.4783 -0.742043 1.26901 -3.24857
21.9492 18.2794 18.3488 -0.462467 2.92048 0.829148
21.9932 21.1576 21.379 0.273674 2.87225 5.01006
23.2763 20.3256 19.3462 -3.22498 -1.94393 -1.47432
20.9082 21.3516 18.5405 -1.45823 1.72485 -0.00425256
ITEM: TIMESTEP
12000
ITEM: NUMBER OF ATOMS
14
ITEM: BOX BOUNDS ss ss ss
1.8338470062471458e+01 2.2791505848960021e+01
1.7267263716588932e+01 2.3523399997566919e+01
1.7403428136835945e+01 2.3492345234687150e+01
ITEM: ATOMS x y z vx vy vz
20.1818 21.2123 18.8586 -1.00442 1.0512 2.01968
18.6032 17.7603 21.7074 -2.16788 -0.602656 -0.793205
18.7692 21.4961 21.4478 2.41745 -0.173775 0.196792
20.0919 21.9914 23.4994 -0.935724 1.42281 1.90363
20.247 23.5233 21.4537 -0.115385 0.619186 -0.674975
18.3534 19.2564 20.214 1.69265 0.7032 1.06106
20.9042 18.8418 20.6669 -1.26325 -2.02129 0.816786
21.8887 22.8525 19.2333 1.24582 0.0942888 -2.20989
18.9419 17.2473 19.1323 0.101275 -4.07896 -3.21416
20.0957 19.5624 22.689 0.203227 -1.46547 0.52422
20.8483 18.4576 18.0025 -1.04495 0.16528 -0.0540423
21.8192 21.4605 21.7002 0.746591 3.83817 3.25114
22.7845 20.4988 19.5244 -0.461759 0.933972 -1.45913
22.001 21.3695 17.4006 0.586356 -0.485943 -1.3679
ITEM: TIMESTEP
13000
ITEM: NUMBER OF ATOMS
14
ITEM: BOX BOUNDS ss ss ss
1.8533460647323370e+01 2.2872280408609939e+01
1.6859477889718402e+01 2.3558478083198885e+01
1.7377087823526431e+01 2.3331580662155151e+01
ITEM: ATOMS x y z vx vy vz
20.2236 21.7161 19.0102 0.188897 2.05968 -1.81045
19.7703 17.058 21.7691 0.947757 -0.399673 1.4745
18.7157 21.693 21.2639 -0.68975 -2.03773 -0.965219
19.7622 22.3064 23.3639 -0.0612426 -0.747023 0.653865
20.8372 23.5363 21.3214 0.746021 -0.793685 1.58213
18.7559 19.4064 20.2594 -3.45865 1.47588 0.947205
21.2719 18.5864 20.4679 -0.728995 -2.59824 -0.840328
22.4646 22.9309 19.7625 0.604286 3.11037 2.09439
18.8722 17.0177 19.6586 -1.24961 0.368591 -0.293231
19.1478 19.5782 22.5362 1.04653 -0.0377216 -0.745107
20.4137 19.075 18.1597 2.65064 -0.64772 0.0986842
21.3614 20.986 21.4816 1.74388 2.1939 -0.935049
22.3686 20.0533 19.2494 -1.63511 1.89483 -0.0238864
21.5649 21.5863 17.2263 -0.104659 -3.84147 -1.23751
ITEM: TIMESTEP
14000
ITEM: NUMBER OF ATOMS
14
ITEM: BOX BOUNDS ss ss ss
1.8228755201533858e+01 2.2752472442956286e+01
1.6952899015494229e+01 2.3212357634556152e+01
1.7235665620494668e+01 2.3603122638547646e+01
ITEM: ATOMS x y z vx vy vz
19.5634 21.9995 18.658 1.42504 -0.996594 -0.0890151
18.668 17.9216 21.664 3.21424 -2.37892 2.60627
18.4354 21.1923 21.8468 -3.15241 -0.824765 -1.62852
20.4878 22.3936 23.0983 -0.166861 -0.190669 -0.940524
20.1123 23.3799 20.9558 -1.51195 3.00392 2.26903
18.8374 19.6418 20.0747 0.933232 0.0927649 -2.39166
21.1881 18.3103 20.8194 2.16197 -1.63417 1.29702
21.9912 22.5633 19.5597 2.12343 -1.00143 1.25997
19.647 17.1872 19.1317 -4.20248 1.70929 -1.96519
20.1043 19.4932 23.1083 1.59585 2.61749 1.12801
20.5942 19.4187 18.2441 -2.89526 1.77513 -0.0629213
21.1366 20.9205 21.2205 -2.71821 -0.900893 -1.1294
22.9364 19.8242 19.5928 1.88978 1.2796 -1.45061
21.8279 21.284 17.556 1.30363 -2.55076 1.09754
ITEM: TIMESTEP
15000
ITEM: NUMBER OF ATOMS
14
ITEM: BOX BOUNDS ss ss ss
1.8111387639957826e+01 2.3080672789766925e+01
1.7441111401721610e+01 2.2831464201821440e+01
1.8108253174329263e+01 2.3231769278365203e+01
ITEM: ATOMS x y z vx vy vz
18.9404 21.2146 17.8169 -1.90283 -3.53543 -0.94965
19.4232 17.7329 21.5151 1.25821 0.0489781 0.338907
18.2614 22.1905 22.2191 1.00075 0.106681 -0.882197
20.5468 22.2422 22.8884 -0.341181 1.0471 0.455521
19.8826 22.7609 20.4548 0.235561 1.77288 -1.43931
18.9093 20.2953 19.9255 -1.80838 -2.31605 -0.150019
21.4816 17.6683 20.3287 -2.70715 1.3236 -2.34111
22.6777 22.4259 20.8307 1.86055 -0.516009 1.96641
18.9849 17.7029 19.3613 -1.98935 1.04487 0.519369
19.6649 19.9854 22.7352 -0.515141 -2.26928 0.953434
20.8086 19.2205 18.3434 0.36254 -0.736647 0.299294
21.7024 20.1341 21.2799 2.05338 0.777404 -1.07289
23.0203 19.9483 19.1758 -0.0581595 3.05712 0.883235
21.2259 22.0082 18.6551 2.55121 0.194775 1.41901
ITEM: TIMESTEP
16000
ITEM: NUMBER OF ATOMS
14
ITEM: BOX BOUNDS ss ss ss
1.8336202286495716e+01 2.3057726962770914e+01
1.7777542175479418e+01 2.2814692459908564e+01
1.7708491189809230e+01 2.3189129040827606e+01
ITEM: ATOMS x y z vx vy vz
19.9073 21.322 18.5467 -0.752772 0.611577 0.440733
19.4195 18.011 21.5753 1.04022 -1.99923 -0.311712
18.1866 21.9809 22.9167 -1.87021 -3.04616 -3.20787
20.7786 22.0373 22.64 2.45957 -1.02909 1.27457
19.2001 22.9134 20.7716 -0.261287 0.949646 0.779126
18.5706 20.211 20.6119 0.902971 0.33987 -0.398792
21.7208 17.6117 19.9533 0.325307 -2.15901 -2.08599
21.7213 22.4688 19.8205 -1.73329 1.94304 -1.84277
19.0682 18.0485 19.2023 -3.70441 1.50302 1.38021
19.2902 19.6379 23.3706 -1.50678 0.14812 2.70419
21.0568 19.3611 18.0355 0.757849 0.563721 1.96364
21.1527 20.0954 21.0318 0.860665 3.73305 1.66423
23.1044 20.1606 19.462 1.25839 -0.0430261 0.386025
22.3528 21.6704 17.5919 2.22378 -1.51554 -2.74559
ITEM: TIMESTEP
17000
ITEM: NUMBER OF ATOMS
14
ITEM: BOX BOUNDS ss ss ss
1.8331771638477658e+01 2.3047905219171202e+01
1.7711791849825474e+01 2.2728119209680532e+01
1.7832269967820043e+01 2.3350340600413819e+01
ITEM: ATOMS x y z vx vy vz
19.3579 20.3387 18.6091 -2.07678 -0.505942 -1.76446
19.4437 17.8302 21.4868 0.0770516 -2.89856 -0.0588576
18.4539 22.2594 22.6362 2.24394 -2.01978 -2.52107
20.8185 22.1509 22.9829 -1.90013 1.71673 1.32393
19.9376 22.7592 20.4227 2.86309 0.227636 0.721662
18.2824 19.9571 20.7191 -2.40836 1.76466 1.15071
21.413 17.9359 19.8787 3.41738 0.047655 2.20853
22.2224 22.6176 20.4035 1.63472 -1.55825 -0.603457
19.2492 17.7475 18.8339 -2.23521 0.909325 1.39791
19.5507 19.8704 23.2829 0.188345 0.275884 -2.11807
21.4493 19.4747 17.8213 1.30577 1.22167 -1.53898
20.7672 20.2731 20.846 -0.639573 -0.150905 -0.56769
23.0237 20.3355 19.4952 0.00478722 1.50773 0.440718
21.5604 21.9798 18.1118 -2.47503 -0.537842 1.92913
ITEM: TIMESTEP
18000
ITEM: NUMBER OF ATOMS
14
ITEM: BOX BOUNDS ss ss ss
1.8108445385343245e+01 2.3108863553614345e+01
1.7814345071249498e+01 2.3425824122238332e+01
1.8126940602795532e+01 2.3172490696686321e+01
ITEM: ATOMS x y z vx vy vz
18.9185 20.1452 18.7244 -1.24524 -2.96525 -2.47129
20.1168 17.9666 21.9102 -1.17323 2.7354 -1.42406
18.8387 22.0083 20.7591 -0.0948834 -0.114065 -0.208787
20.9356 22.0059 22.8264 1.67286 -1.14353 1.01064
20.6577 23.8877 20.8822 1.7824 1.15082 1.73344
17.7603 19.4708 21.0194 0.19911 1.40803 1.73207
21.9068 18.1434 19.7444 0.0617298 0.256555 3.69615
22.5038 22.2337 21.2508 -2.91259 1.71977 0.468909
19.2265 17.8614 19.2838 -1.67969 -3.18535 -1.70846
19.0815 20.1449 22.9123 1.39921 -0.771798 0.231232
20.9254 19.1668 17.5534 0.299321 -0.385263 -0.807921
20.8703 20.3057 20.8911 -0.94135 -0.748284 -0.33015
23.0108 20.2996 18.8575 1.95643 0.875128 -2.19336
20.7773 21.8899 18.9152 0.675914 1.16784 0.271584
ITEM: TIMESTEP
19000
ITEM: NUMBER OF ATOMS
14
ITEM: BOX BOUNDS ss ss ss
1.7758728359249520e+01 2.3028887508125834e+01
1.7831679924029469e+01 2.3900092804490281e+01
1.7544065163683168e+01 2.2918381046369841e+01
ITEM: ATOMS x y z vx vy vz
18.8822 20.4205 18.6913 1.40169 1.27102 -1.27509
19.9291 17.6978 21.5544 1.95729 1.09881 -0.417327
18.619 22.0088 21.1107 1.58587 -1.93578 3.56358
20.7581 22.2229 23.0642 -0.536766 1.59252 1.99056
20.6142 23.3266 20.4095 -0.678721 0.492687 -1.68422
18.1231 19.3551 21.0298 0.47151 1.09008 -0.313456
21.8455 17.9819 19.5905 -0.880367 0.48092 4.1628
22.599 22.2274 21.164 -0.00324772 -0.477834 0.666707
19.0489 17.7956 19.1646 -2.25501 0.624886 -0.851883
19.1356 20.5047 23.2838 -2.54252 -0.944719 -0.447784
21.2815 19.4832 17.7261 1.11386 -0.717894 -2.23521
20.6634 20.2832 20.7202 1.47668 -1.63363 -0.187872
23.0484 20.3585 19.3863 -0.00243082 0.565856 -3.30734
20.9819 21.8638 18.6347 -1.10784 -1.50692 0.33653
ITEM: TIMESTEP
20000
ITEM: NUMBER OF ATOMS
14
ITEM: BOX BOUNDS ss ss ss
1.7811879954153444e+01 2.2944449459489640e+01
1.7698978513898719e+01 2.3390124070646145e+01
1.7744653945478266e+01 2.3147218432467600e+01
ITEM: ATOMS x y z vx vy vz
19.1005 20.7966 18.7991 -0.91927 -0.842968 1.42175
19.8854 17.8217 21.5774 1.49679 -1.91027 1.42681
18.4292 21.8447 21.4536 0.129548 -0.833265 -4.57359
20.6217 22.319 22.6908 -0.495112 -2.29833 -1.75286
20.2506 23.1737 20.4999 -3.07632 -0.43778 0.755482
17.8845 19.6087 21.1589 -1.77714 3.12847 2.4343
21.6454 18.0354 19.6026 0.685889 1.2185 -2.07982
22.7459 22.3914 20.8736 0.28636 -1.09143 1.37672
19.172 17.9513 19.1522 -1.88381 2.48934 -0.810282
19.4361 20.0089 23.0652 3.20511 2.04018 -1.81367
20.8526 19.2769 17.6083 1.59919 -0.819922 0.380256
20.8085 20.1889 20.8114 -0.462336 -0.324436 1.82417
23.2178 20.2626 19.6719 0.617459 0.447957 -0.438204
21.4797 21.8502 18.5651 0.593655 -0.766044 1.84893
ITEM: TIMESTEP
21000
ITEM: NUMBER OF ATOMS
14
ITEM: BOX BOUNDS ss ss ss
1.7811879954153444e+01 2.2944449459489640e+01
1.7698978513898719e+01 2.3390124070646145e+01
1.7744653945478266e+01 2.3147218432467600e+01
ITEM: ATOMS x y z vx vy vz
18.7392 20.779 19.1667 -2.03685 0.72272 2.14901
19.9483 17.7192 21.5344 0.883502 -0.666243 -0.669589
18.4714 22.1016 21.5636 -1.43182 -0.712383 -1.51106
20.9582 21.9792 22.6173 0.684561 0.927745 -1.69871
20.271 23.356 20.4544 2.44814 -1.5866 1.33919
17.7582 19.567 21.0013 0.945837 1.4757 -0.110081
21.9929 17.951 19.9019 3.443 -1.37006 2.19059
22.5761 22.2673 20.724 -1.31413 -0.943735 -1.55318
19.0723 18.0768 19.3103 -1.31159 0.400748 1.90052
19.2232 19.9005 22.8897 0.0339568 -2.41565 -1.31608
21.3997 19.2627 18.0226 -1.13046 -0.493687 -1.34174
20.7382 20.2864 20.6297 -1.76306 2.10845 -1.81547
23.3004 20.4132 19.407 -0.0171085 -0.413042 3.10853
21.081 21.87 18.3071 0.566006 2.96604 -0.671937
ITEM: TIMESTEP
22000
ITEM: NUMBER OF ATOMS
14
ITEM: BOX BOUNDS ss ss ss
1.7811879954153444e+01 2.2944449459489640e+01
1.7698978513898719e+01 2.3390124070646145e+01
1.7744653945478266e+01 2.3147218432467600e+01
ITEM: ATOMS x y z vx vy vz
18.8362 20.9346 19.2501 -3.65707 0.956176 -1.06769
20.123 17.8506 21.7733 -1.66291 0.695785 1.29261
18.5097 21.9196 21.5495 2.271 -0.972145 2.01624
20.6959 22.2195 22.6254 -0.840628 -1.31704 -1.03767
20.2401 23.1677 20.3183 -1.78363 0.583402 1.5758
17.8931 19.1682 21.0074 -1.52032 -1.06429 -0.464655
21.7183 18.0064 19.608 3.35475 0.657024 0.519824
22.743 22.4472 20.8326 2.43924 0.457971 0.582976
19.1753 18.1369 19.0996 0.701998 0.862835 -2.49171
19.2041 19.9417 22.9787 -0.488051 1.46306 0.56361
20.6945 19.3068 17.839 -0.611016 0.10452 3.2033
20.9002 20.3754 20.7924 1.04257 -0.598429 -1.57851
23.2 20.265 19.2806 1.26337 -1.56297 0.397644
21.5967 21.7903 18.5751 -0.509295 -0.265895 -3.51176
ITEM: TIMESTEP
23000
ITEM: NUMBER OF ATOMS
14
ITEM: BOX BOUNDS ss ss ss
1.7811879954153444e+01 2.2944449459489640e+01
1.7698978513898719e+01 2.3390124070646145e+01
1.7744653945478266e+01 2.3147218432467600e+01
ITEM: ATOMS x y z vx vy vz
18.7587 20.8161 19.0903 -1.83095 3.16671 -1.38807
20.0804 17.9595 21.4027 0.618608 0.356876 1.69982
18.3245 21.5901 21.5693 -4.22424 2.4365 0.493707
20.8109 22.2467 22.5548 0.135385 -0.81667 -0.649872
20.1376 23.2695 20.2421 2.66997 2.45483 -2.06968
17.8653 19.2087 21.2247 -0.271961 -3.20897 2.16923
21.89 17.8327 19.6149 -1.1427 -0.49358 0.382484
22.6478 22.4434 20.7232 0.601603 -0.109036 -0.160559
18.9342 18.2663 19.0929 2.21486 0.0724601 0.171507
19.4157 20.1108 23.1403 -0.513759 -2.03577 -0.0123936
21.0528 19.4594 18.0237 0.907093 -0.393028 -0.536974
20.8849 20.267 20.6575 0.848098 -2.13996 -1.06148
23.372 20.1094 19.5969 0.600833 0.667133 -1.14667
21.3551 21.9504 18.5967 -0.61283 0.0425033 2.10895
ITEM: TIMESTEP
24000
ITEM: NUMBER OF ATOMS
14
ITEM: BOX BOUNDS ss ss ss
1.7811879954153444e+01 2.2944449459489640e+01
1.7698978513898719e+01 2.3390124070646145e+01
1.7744653945478266e+01 2.3147218432467600e+01
ITEM: ATOMS x y z vx vy vz
18.7797 21.1509 18.91 1.24096 2.92755 3.00484
20.1166 17.5911 21.4906 -0.781156 -0.526953 0.442457
18.4013 21.7942 21.4871 -0.852711 0.193322 0.253114
20.9702 21.881 22.5114 -1.27648 -0.482901 -0.429162
20.1317 23.3589 20.2213 0.698625 3.1755 -1.51303
17.7926 19.2417 21.1782 0.133246 -2.31595 0.764884
21.9832 17.8467 19.9918 0.798718 -1.2703 -0.337192
22.6213 22.7078 20.4701 -0.212508 -0.0286682 0.420544
19.2526 18.2114 19.185 0.942829 -1.67467 -1.5922
19.6043 19.8441 23.0447 -0.576132 0.194811 2.26698
21.1909 19.3596 18.16 -1.05194 0.67265 0.191525
20.4415 20.3394 20.5705 -0.453854 0.584181 -1.78087
22.9848 20.1244 19.8674 1.76128 -0.715 0.578946
21.2593 22.0788 18.4418 -0.370874 -0.733568 -2.27085
ITEM: TIMESTEP
25000
ITEM: NUMBER OF ATOMS
14
ITEM: BOX BOUNDS ss ss ss
1.7811879954153444e+01 2.2944449459489640e+01
1.7698978513898719e+01 2.3390124070646145e+01
1.7744653945478266e+01 2.3147218432467600e+01
ITEM: ATOMS x y z vx vy vz
18.9812 20.9482 19.0016 0.136413 -1.4415 -0.542447
20.0335 17.7033 21.7154 -0.641155 -1.14667 -0.898337
18.4697 21.7385 21.6612 -1.41618 -0.755566 0.123694
20.6973 22.2576 22.4403 1.17674 0.584928 -1.30482
20.1764 23.4251 20.2531 -1.03985 1.72546 2.03272
17.809 19.2284 21.0056 -0.729123 0.453135 0.285522
22.0056 17.7852 20.1655 2.03144 -2.74138 1.83505
22.4628 22.401 20.3891 0.714867 1.005 -0.23608
19.363 18.3302 19.3441 -1.38588 0.197321 -0.550456
19.2163 19.6276 22.9647 1.07571 0.118375 -0.0223471
21.1799 19.5658 18.0861 0.472537 -0.261263 0.00623878
20.8634 20.3647 20.6785 0.406155 1.5984 -0.0270088
23.135 19.7853 19.622 -0.912505 -1.28179 0.35351
21.1369 22.3689 18.2028 0.110833 1.94554 -1.05524
ITEM: TIMESTEP
26000
ITEM: NUMBER OF ATOMS
14
ITEM: BOX BOUNDS ss ss ss
1.7811879954153444e+01 2.2944449459489640e+01
1.7698978513898719e+01 2.3390124070646145e+01
1.7744653945478266e+01 2.3147218432467600e+01
ITEM: ATOMS x y z vx vy vz
18.9493 21.0616 19.254 -1.34663 0.727791 -0.860196
20.0515 17.8011 22.0452 -0.977854 -0.113352 -0.015663
18.0365 21.9735 21.3922 -0.925374 -0.701367 2.18685
20.5823 22.231 22.3266 0.637983 -0.106176 -0.761396
20.2569 23.5772 20.1722 0.138833 0.390784 -1.10496
18.2471 19.2476 20.8966 1.07877 -0.999113 -0.96158
21.8138 17.7454 19.8064 -0.442474 0.25498 1.18451
22.4985 22.2126 20.7756 1.84227 -0.605949 1.30732
19.4594 17.636 19.3139 -0.525603 -1.08228 -1.35441
19.3247 20.0486 23.0345 0.0366643 0.968485 -0.664363
20.8837 19.6871 18.1272 0.776225 -1.09123 -0.419074
20.8104 19.923 20.7223 0.584926 1.79256 1.8401
23.1864 20.2404 19.2238 0.517298 0.337495 -1.03727
21.4295 22.145 18.4394 -1.39504 0.227371 0.660142
ITEM: TIMESTEP
27000
ITEM: NUMBER OF ATOMS
14
ITEM: BOX BOUNDS ss ss ss
1.7811879954153444e+01 2.2944449459489640e+01
1.7698978513898719e+01 2.3390124070646145e+01
1.7744653945478266e+01 2.3147218432467600e+01
ITEM: ATOMS x y z vx vy vz
18.9648 21.0052 19.1118 -0.107383 -0.0523017 0.280212
19.9263 17.7981 21.6118 1.03017 -0.487494 2.5369
18.2993 21.7511 21.5992 -1.20279 1.27026 -0.813361
20.6275 22.5132 22.5728 0.33886 2.26279 -2.19925
19.9683 23.2564 20.3675 -0.654373 -1.22305 1.50898
17.8657 19.1208 20.9459 -0.387981 0.545352 -0.845757
21.9694 17.9317 19.9046 1.42399 0.316335 -0.112145
22.6136 22.3966 20.4888 0.392796 -1.84637 1.97703
19.2266 18.162 19.1276 0.292096 -1.07405 -2.19295
19.5456 20.0456 23.0194 1.62351 -1.42557 -1.33244
21.0451 19.2427 17.9043 -2.74032 1.82833 0.347882
20.866 20.4132 20.8154 -0.678239 2.25056 0.368115
23.1561 20.0787 19.6971 0.736783 -1.21958 -0.0183717
21.4558 21.8146 18.3639 -0.067128 -1.14522 0.495156
ITEM: TIMESTEP
28000
ITEM: NUMBER OF ATOMS
14
ITEM: BOX BOUNDS ss ss ss
1.8103326220524050e+01 2.3056230814885318e+01
1.7773307257015432e+01 2.2945696733332749e+01
1.7940079451252686e+01 2.3243439704569060e+01
ITEM: ATOMS x y z vx vy vz
18.9098 20.7878 18.9556 0.981832 -1.08208 -3.65215
19.9189 17.7102 21.5304 -1.31229 0.154518 0.244098
18.3958 21.9049 21.5837 1.47574 1.12569 0.358587
20.7523 22.3396 22.4847 -1.00152 0.495351 2.25016
19.9663 23.263 20.1025 -0.417378 0.0441495 0.8298
18.0343 19.4287 20.8881 2.48776 0.527487 -0.297284
21.9065 17.8419 20.0186 -0.426029 -0.782784 -0.75075
22.4324 22.5028 20.8297 -0.588069 -0.349569 -1.01865
19.1624 17.9454 19.254 1.03321 1.91987 1.00718
19.7348 20.0658 23.1075 0.158831 0.233909 0.683689
21.0546 19.5535 17.9301 0.0789247 -1.66815 -1.76055
20.765 20.2042 20.7706 0.246961 -0.640024 -0.251363
23.0659 20.1206 19.4929 0.576155 0.174409 0.36056
21.4311 21.8618 18.5815 -3.29412 -0.152784 1.99668
ITEM: TIMESTEP
29000
ITEM: NUMBER OF ATOMS
14
ITEM: BOX BOUNDS ss ss ss
1.8103326220524050e+01 2.3056230814885318e+01
1.7773307257015432e+01 2.2945696733332749e+01
1.7940079451252686e+01 2.3243439704569060e+01
ITEM: ATOMS x y z vx vy vz
19.0553 20.9732 18.7271 -0.150334 1.08695 -1.11423
20.1986 17.9799 21.7553 0.125784 -0.392317 -0.736701
18.3999 21.7848 21.5123 -0.854432 -2.73388 0.957196
20.5168 22.443 22.656 -0.0915328 0.142015 0.11702
20.0736 23.0203 20.2139 1.60611 0.286482 -0.0486425
18.1327 19.3417 21.0699 0.349225 0.986576 1.12969
21.7978 17.6948 19.8057 -0.617101 1.68364 0.519877
22.544 22.3256 21.0424 -0.806863 0.321687 -0.481288
19.303 18.333 19.1888 -0.368194 -0.116461 -2.23502
19.4912 19.9982 23.157 0.612916 1.8161 1.92532
20.9916 19.3657 17.9844 1.24679 0.295141 -0.81094
20.7307 20.2529 20.7735 -0.826639 -0.937665 0.04628
22.9735 20.2084 19.3771 0.654604 -0.444769 0.765922
21.3213 21.8086 18.2667 -0.88033 -1.9935 -0.0344852
ITEM: TIMESTEP
30000
ITEM: NUMBER OF ATOMS
14
ITEM: BOX BOUNDS ss ss ss
1.8103326220524050e+01 2.3056230814885318e+01
1.7773307257015432e+01 2.2945696733332749e+01
1.7940079451252686e+01 2.3243439704569060e+01
ITEM: ATOMS x y z vx vy vz
18.8303 20.9813 18.9249 -0.275508 -1.89275 1.4772
20.1219 18.017 21.933 1.8016 1.25927 1.1282
18.33 21.8525 21.4734 -1.42208 0.114929 -0.104844
20.6875 22.1343 22.6327 1.94061 2.00129 -1.41929
20.2262 23.1029 20.1751 -0.126734 -0.413875 1.29335
18.1422 19.2892 20.8107 -4.00995 0.0160447 -0.384916
21.9191 17.9438 20.0103 1.96734 0.0917465 0.203247
22.6614 22.1834 20.8935 -0.701562 -2.46436 -0.208427
19.5887 17.8923 19.227 -1.24936 -0.396662 -0.517746
19.2519 20.0904 23.1829 0.196738 -0.660506 -1.70656
20.8194 19.4845 17.8056 0.127792 0.193603 -0.014511
20.6304 20.32 20.6878 -0.204488 -0.275912 -0.746019
22.9279 20.1297 19.2358 0.19397 -0.172614 0.329547
21.3933 22.1087 18.5373 1.76164 2.59979 0.670759
ITEM: TIMESTEP
31000
ITEM: NUMBER OF ATOMS
14
ITEM: BOX BOUNDS ss ss ss
1.8103326220524050e+01 2.3056230814885318e+01
1.7773307257015432e+01 2.2945696733332749e+01
1.7940079451252686e+01 2.3243439704569060e+01
ITEM: ATOMS x y z vx vy vz
18.8616 20.852 18.8512 -1.12465 0.704826 0.881157
19.8696 17.8667 21.6585 -0.522143 0.0334821 -1.32633
18.3446 21.7698 21.716 -3.34593 -0.738342 -0.824912
20.8048 22.0803 22.3961 -0.898539 -0.871861 0.166536
19.9865 23.0828 20.0986 1.80139 -0.965686 0.574881
17.8236 19.4788 21.0291 -1.29114 -0.0117733 -0.133862
21.9197 18.0021 20.0165 2.42123 1.96194 -0.401788
22.6066 22.4966 20.788 3.04219 -0.376641 -1.28153
19.3627 17.9835 19.0926 -0.476224 0.675844 1.50548
19.4712 19.9739 23.1228 0.259215 0.299518 2.24963
21.136 19.4882 17.9801 1.13301 -1.44257 -1.59084