ITEM: TIMESTEP
0
ITEM: NUMBER OF ATOMS
1428
ITEM: BOX BOUNDS ss ss ss
9.2501691616919934e-01 3.9098038189789939e+01
7.4895250339248498e-01 4.0004096949730588e+01
4.6877005186695611e+00 3.6102300577851899e+01
ITEM: ATOMS x y z vx vy vz
13.8912 8.06349 7.62862 1.22263 -0.0402768 1.13488
15.9974 6.16468 8.14549 -0.303932 -1.11384 -0.106783
18.8002 7.03121 8.24281 0.35218 1.46437 -0.414869
21.6031 7.89773 8.34012 0.413332 0.867774 -2.48331
14.5879 10.8288 7.20908 -0.322461 1.30168 1.42471
17.3908 11.6953 7.30639 0.441742 -1.46761 -1.34956
19.4969 9.79653 7.82326 -0.615402 0.400954 2.44334
16.6941 8.93 7.72594 0.160833 1.45476 -0.658352
22.2998 10.663 7.92057 2.7219 -0.171367 0.430593
25.1026 11.5296 8.01789 -0.27163 -0.757411 0.0660229
27.2087 9.63078 8.53476 -0.870648 -0.639987 -1.88136
24.4059 8.76425 8.43744 -1.05973 -1.09258 0.380904
27.9055 12.3961 8.11521 0.529665 0.288855 -2.23556
15.9813 16.3594 6.36998 -1.69081 -0.71026 0.574652
15.2846 13.5941 6.78952 1.40322 0.0116908 0.410619
13.632 15.7401 7.92085 -0.870195 1.2097 0.832497
12.9353 12.9747 8.3404 -1.22226 -0.520677 -1.49161
18.0875 14.4606 6.88684 1.39735 0.771705 0.20102
23.6932 16.1937 7.08148 0.38769 0.588196 -0.83599
20.8903 15.3272 6.98416 0.694396 1.0445 0.275017
22.9965 13.4284 7.50103 -1.0789 -0.865908 0.904135
20.1936 12.5618 7.40371 -0.51057 0.444184 -0.574542
25.7993 14.2949 7.59834 -0.994877 -0.583819 -0.162084
31.405 16.0279 7.79298 2.1874 -1.71938 1.06546
28.6022 15.1614 7.69566 -0.810179 -0.707014 0.233945
30.7083 13.2626 8.21253 -0.237414 0.462616 -0.92267
33.5111 14.1291 8.30984 0.302345 -0.0259349 1.43481
14.3287 18.5054 7.5013 2.44421 -1.55841 -0.430343
19.4809 19.9913 6.04775 -3.1239 -1.05705 0.428869
16.9492 17.9538 8.56763 1.7948 -0.687312 2.31456
16.6781 19.1248 5.95043 0.370893 0.127118 -1.08064
18.7842 17.226 6.46729 -1.01246 1.39203 -0.485589
21.587 18.0925 6.56461 -0.0325667 0.222044 -2.09123
27.1927 19.8255 6.75924 -1.11005 0.217637 1.27549
24.3899 18.959 6.66193 -0.21127 0.307478 -0.567424
26.496 17.0602 7.1788 0.724851 -0.492078 0.706363
29.2989 17.9267 7.27611 -0.923465 0.792423 0.482474
15.7221 24.036 6.6622 0.477191 -0.531973 -1.17659
15.0254 21.2707 7.08175 0.95153 -1.53666 -0.868663
13.3727 23.4166 8.21307 1.2977 0.0718974 -1.85256
18.3426 23.4844 7.72853 0.40473 1.24547 0.742341
17.6459 20.7191 8.14808 3.16779 -0.704881 0.377542
17.3747 21.8901 5.53088 0.597021 0.922012 0.22977
23.2516 22.4522 8.34272 -0.601012 -0.238787 0.898005
22.9804 23.6231 5.72551 0.00813644 -1.33064 1.41777
20.4487 21.5856 8.2454 0.672526 -1.08469 1.15395
20.1776 22.7566 5.6282 1.42799 -1.02688 -0.692758
22.2837 20.8578 6.14506 0.677033 -0.453327 1.41327
25.0866 21.7243 6.24238 0.231921 -2.61918 1.37316
27.2723 22.507 7.95071 -0.589473 1.24101 1.65066
29.3785 20.6082 8.46758 0.902578 -0.387622 1.78101
14.0694 26.182 7.79353 0.813826 -0.63514 2.33164
19.0393 26.2498 7.30898 0.965684 -0.206774 -0.080427
18.7682 27.4207 4.69178 0.928011 0.022336 0.62454
16.4188 26.8013 6.24265 -1.2935 -0.624188 -2.11976
18.0715 24.6554 5.11133 1.40563 0.555987 1.27519
20.9539 28.2034 6.40011 -0.387638 0.453037 -1.87988
21.1454 24.351 7.82585 -1.66513 1.98803 0.422732
20.8743 25.5219 5.20865 0.748365 2.3516 -2.82212
23.06 26.3046 6.91698 0.0887709 -1.64141 -0.20659
25.1662 24.4058 7.43384 0.967267 0.31695 -1.73285
15.8509 28.3748 8.59004 -0.567843 0.0252705 0.479156
18.2002 28.9941 7.03917 0.884788 -0.904754 1.76176
23.1396 28.9861 8.10845 0.966876 -0.134938 0.266582
18.3746 3.09494 11.2796 1.59841 2.19117 -1.10709
18.1035 4.26589 8.66236 0.896255 0.698886 0.635344
21.1775 3.96145 11.3769 0.724866 2.12492 -0.504576
11.813 6.27315 11.7967 -0.47705 -0.781837 1.0086
11.5418 7.4441 9.17949 0.258616 -0.0494704 -0.378026
9.19246 6.82473 10.7304 -1.05297 0.225105 -0.797176
15.1302 8.4869 12.4435 -2.37346 -0.190564 0.735286
14.1624 6.89253 10.2458 -0.506378 0.329155 0.590649
16.9652 7.75905 10.3431 0.648776 -1.5212 -0.157994
19.0713 5.86026 10.86 0.363847 1.29574 -0.651181
16.2685 4.99373 10.7627 2.01027 -0.426111 -1.25073
21.8742 6.72677 10.9573 0.313003 1.34307 0.613794
23.7092 5.99893 8.85699 -0.906082 0.304628 0.0787332
20.9063 5.13241 8.75967 1.77519 0.45104 -0.184603
27.4799 8.45982 11.152 1.70787 -0.0875107 -1.5019
24.677 7.59329 11.0546 0.153604 -0.77962 0.0132467
26.7832 5.6945 11.5715 -0.435384 0.854395 -0.428167
26.512 6.86545 8.95431 2.10698 1.3776 0.0966112
23.9803 4.82798 11.4742 -1.03839 1.70911 0.241234
29.586 6.56102 11.6688 0.0161844 1.76786 1.4784
29.3149 7.73197 9.05163 -0.812546 0.571233 -1.75548
32.3889 7.42755 11.7661 -1.86349 -0.404317 0.685279
32.1177 8.5985 9.14894 0.366553 -0.706622 0.444781
8.2365 11.736 11.4421 0.684715 0.382627 2.67154
7.53979 8.97067 11.8617 -1.70127 0.188569 -1.5084
12.2385 10.2094 8.75995 -0.0707183 0.369921 0.659052
10.857 11.1844 12.5085 0.335828 2.09701 -0.444177
10.5859 12.3554 9.89126 1.69733 0.204546 -0.162373
9.88917 9.59004 10.3108 -2.69852 -1.04147 0.956207
15.8269 11.2522 12.0239 0.0169788 1.04923 -0.394827
15.5558 12.4232 9.40673 2.33751 2.06768 1.02436
14.8591 9.65785 9.82628 -0.396728 0.326087 1.05422
13.2064 11.8038 10.9576 0.641747 -1.40755 -0.759098
12.5097 9.03848 11.3771 1.22237 -0.527688 -0.725071
18.6298 12.1187 12.1212 0.414385 1.57315 1.01739
17.9331 9.35342 12.5408 -1.71626 1.08667 1.4028
17.6619 10.5244 9.9236 -1.10022 0.713209 -0.0497669
19.7681 8.62558 10.4405 2.47766 -0.874811 1.14033
23.2676 12.2574 10.1182 0.457706 -1.09555 -1.96587
20.4648 11.3909 10.0209 -0.892311 -0.267888 0.734812
22.5709 9.49209 10.5378 -0.899401 -1.44172 0.886809
25.3737 10.3586 10.6351 1.07689 2.68991 0.677961
30.9794 12.0917 10.8297 1.19205 -0.707604 -0.681871
28.1766 11.2251 10.7324 -0.413911 0.413942 -1.41416
30.2827 9.32634 11.2493 -1.38066 1.33634 -0.318586
30.0116 10.4973 8.63208 0.616066 -0.443856 0.0555246
33.0856 10.1929 11.3466 -0.449892 -0.309204 0.698313
32.8144 11.3638 8.7294 1.14605 1.53612 -0.329027
11.5537 13.9497 12.0889 0.828695 -0.487751 -0.574464
11.2826 15.1207 9.47172 -0.981807 -0.321723 0.18311
8.9332 14.5013 11.0226 2.00426 -0.327218 0.477789
13.9031 14.5691 10.538 -2.20777 -0.246122 0.0271124
19.3265 14.8841 11.7017 0.55276 1.49427 0.0550144
19.0553 16.055 9.0845 -1.02256 -0.0641008 -1.60661
16.5236 14.0175 11.6044 -0.415733 -1.97347 -0.715815
16.2525 15.1885 8.98718 0.251797 0.0212288 0.363468
18.3586 13.2897 9.50405 0.300521 -0.418732 -1.10379
22.1293 15.7506 11.799 0.575288 -1.2902 -1.12998
21.4326 12.9853 12.2186 0.577695 1.05342 1.11854
21.1615 14.1562 9.60137 -0.556233 1.39358 -0.132214
27.0383 14.7183 12.4132 0.755457 1.34737 -1.3454
26.7672 15.8893 9.796 0.931688 0.69559 -1.81681
24.2354 13.8518 12.3159 -0.467576 0.405845 0.728128
23.9643 15.0227 9.69868 0.327153 0.10111 0.646613
26.0704 13.1239 10.2155 0.753402 -1.44464 1.16531
29.8411 15.5848 12.5105 1.33763 0.343667 -0.0424941
28.8733 13.9905 10.3129 1.63964 -0.583145 -1.66799
31.6761 14.857 10.4102 -0.100488 -1.08424 0.723502
33.8619 15.6397 12.1185 -0.322334 -0.657342 -0.141181
33.7823 12.9582 10.927 -0.817027 -0.542019 1.63912
35.6969 14.9118 10.0182 0.0935151 0.425256 -0.285454
37.8826 15.6945 11.7265 0.743198 0.927618 0.719146
7.97724 19.4126 11.7344 0.0162644 0.124832 0.611288
7.28053 16.6472 12.1539 1.2306 0.349408 -0.867023
12.2504 16.7151 11.6694 1.06771 -1.34509 0.3645
11.9793 17.886 9.05217 0.835221 -0.362909 -0.0403593
10.3266 20.032 10.1835 -0.500688 -2.09774 -0.839867
9.62991 17.2666 10.603 0.527177 -0.718408 -2.17357
15.5677 18.9288 12.3162 -0.912167 -1.93933 -0.328927
15.2965 20.0997 9.69895 0.1586 -2.15834 -0.385334
14.5998 17.3344 10.1185 -0.0561925 -0.78136 -0.0132857
12.9471 19.4804 11.2498 -2.53727 -0.516896 1.28719
17.917 19.5482 10.7653 -0.372574 0.667106 -1.44497
19.752 18.8203 8.66495 2.52113 1.68119 1.28046
17.2203 16.7829 11.1848 1.57333 -0.00531429 3.538
22.826 18.5159 11.3795 -1.50782 0.443925 0.605572
22.5549 19.6868 8.76226 -0.468188 -1.16293 -0.780751
20.0232 17.6494 11.2822 -0.615306 -0.23324 1.54807
21.8582 16.9215 9.18182 -0.940462 3.14071 -2.44833
25.6289 19.3824 11.4768 -0.338284 -2.25273 -0.776908
27.4639 18.6546 9.37645 2.34399 -2.34588 -1.3344
24.9322 16.6171 11.8963 2.03729 -1.45262 -1.4544
24.661 17.7881 9.27913 1.59964 -0.24224 -0.292198
27.735 17.4836 11.9937 2.56154 0.302776 -0.0278831
29.6496 19.4373 11.0848 -0.580101 -0.18296 -0.125115
29.57 16.7558 9.89332 -0.804384 -0.591026 -1.46179
31.7557 17.5385 11.6016 -2.10547 -0.844943 0.945082
31.4846 18.7094 8.98444 1.82354 1.01955 2.15747
33.6703 19.4921 10.6928 0.327796 -1.4076 0.711631
33.5907 16.8106 9.50131 1.23967 1.62527 0.123732
35.8561 20.2748 12.4011 0.997527 1.3812 -0.832553
35.7765 17.5933 11.2096 -0.538746 0.449999 -0.382327
11.2945 21.6263 12.3811 0.987657 0.22811 1.49954
11.0233 22.7973 9.76394 -1.06284 -0.796968 0.524922
8.67395 22.1779 11.3148 1.05527 0.585163 -1.01464
15.9932 22.8651 9.2794 0.46403 0.0758488 -0.0267629
13.6438 22.2457 10.8303 0.364282 2.3168 -1.93391
12.676 20.6513 8.63262 -0.94497 -0.316262 -0.242747
18.6137 22.3135 10.3457 1.11339 -0.126784 0.230721
16.2644 21.6941 11.8966 -0.750462 -1.8139 0.223452
21.4166 23.18 10.4431 -1.51824 0.0996301 -0.958622
23.6023 23.9627 12.1514 -0.651745 0.421851 0.133098
23.5227 21.2812 10.9599 -0.806042 0.612686 -1.25308
20.7199 20.4147 10.8626 -0.937869 0.349594 -0.496454
25.4373 23.2349 10.051 -1.17409 2.56406 0.973144
25.3577 20.5534 8.85958 1.96339 0.0405725 0.189881
27.623 24.0175 11.7594 -0.751493 -0.826298 0.347587
27.5435 21.3361 10.5679 -1.57738 -0.655801 1.19138
29.7292 22.1187 12.2762 -0.239371 -2.28729 0.203124
29.458 23.2897 9.65905 1.51777 -0.465213 -1.24863
31.6438 24.0724 11.3674 0.860385 -0.946014 -0.32592
31.5642 21.3909 10.1759 1.04662 -1.56337 2.11791
33.7499 22.1736 11.8842 -0.781192 1.26592 -1.89638
7.02127 24.3239 12.4462 -0.0489602 -1.08508 0.231729
11.9912 24.3917 11.9616 0.78257 -0.84166 -0.675202
11.72 25.5626 9.34441 -0.839036 0.930482 1.71097
9.37065 24.9433 10.8953 0.13565 -0.447693 0.380012
11.1521 27.136 11.6918 0.121831 0.818428 -0.0756689
14.3405 25.011 10.4107 -1.03235 -0.417746 -1.44927
16.122 27.2038 11.2072 -0.836779 -0.458313 1.97443
13.5015 27.7554 10.1409 0.247452 -0.888519 -0.323175
19.3104 25.0788 9.92619 -1.28701 -0.327065 0.544
16.9611 24.4594 11.4771 -0.504375 0.0266612 -0.158957
16.6899 25.6304 8.85986 1.13472 0.546039 1.15062
18.7425 26.6522 12.2736 1.22297 -0.520487 -1.08093
18.4714 27.8232 9.65637 0.940361 2.01106 -0.260865
21.4962 25.8615 11.6345 0.190411 -0.233768 -0.30723
21.225 27.0324 9.01732 -1.86813 -0.284822 -1.90224
23.4108 27.8151 10.7256 -1.98378 1.42963 -0.153574
23.3312 25.1337 9.53418 1.43678 1.98793 -0.371653
25.5169 25.9163 11.2425 2.09239 -1.53053 -1.62174
25.2458 27.0873 8.62531 0.782172 -0.0331359 1.89235
27.4315 27.87 10.3336 -0.954006 0.712195 0.0828192
27.3519 25.1885 9.14218 1.05827 -2.92183 0.64593
29.5376 25.9712 10.8505 0.82964 -0.742317 -1.66839
15.2829 29.9482 10.9374 -1.59527 -1.10177 0.746436
12.9335 29.3288 12.4883 -0.149469 -0.625235 0.448525
17.9034 29.3966 12.0038 -0.150805 -1.15275 0.85647
17.6323 30.5676 9.38655 -0.211396 -0.340875 0.283759
17.0644 32.141 11.7339 1.44726 0.113144 -0.0636213
19.818 31.3502 11.0949 0.553725 0.457177 -2.4854
20.6571 28.6059 11.3647 -0.651354 -0.596894 0.324275
20.386 29.7768 8.7475 -0.876279 -0.319387 0.892858
22.5717 30.5595 10.4558 1.29134 0.527054 2.38179
25.5965 28.5978 12.434 -1.1567 0.650198 -1.18606
25.3254 29.7688 9.81678 -0.810185 -1.39898 1.09627
24.7574 31.3422 12.1642 -0.427708 1.5749 -0.66737
27.5111 30.5515 11.5251 -0.902895 -0.996244 0.52249
29.6172 28.6527 12.042 -0.213941 -0.996758 0.65023
9.73474 4.48283 15.9648 0.162493 -0.144746 -1.82014
14.7046 4.55063 15.4802 -1.62461 -0.536983 -1.12938
19.6136 3.51835 16.0944 -0.611601 1.1031 0.401494
16.8108 2.65183 15.9971 -1.48504 -3.09665 -0.174558
16.5396 3.82278 13.3799 0.347689 -2.13964 1.03117
18.6458 1.92398 13.8968 1.39039 0.997122 -0.464971
22.4165 4.38487 16.1917 0.178408 0.866708 -2.06661
21.4486 2.7905 13.9941 -0.189884 3.9226 -0.128153
27.0543 4.52355 14.1887 -0.198965 0.903179 0.78349
24.2515 3.65703 14.0914 -1.18573 0.513731 -0.0761151
7.81093 7.79972 14.4789 -0.576684 -0.0528755 0.366603
12.0841 5.1022 14.4139 1.23069 -0.415711 0.16243
10.4314 7.24814 15.5452 1.71185 0.484775 0.0109134
10.1603 8.41909 12.928 -0.36961 -0.553534 1.34646
9.4636 5.65378 13.3476 0.0392481 0.017766 -2.11714
15.4013 7.31595 15.0607 0.228703 0.33925 1.31854
14.4335 5.72158 12.863 3.33558 -1.46102 -0.586417
12.7808 7.86752 13.9944 1.56771 -1.60169 -0.0210917
18.2042 8.18247 15.158 -2.13066 0.393479 -2.42474
17.5075 5.41715 15.5776 0.775768 1.39933 0.611437
17.2363 6.5881 12.9603 1.33962 0.142794 0.930975
19.3425 4.6893 13.4772 0.924461 0.900574 0.392622
23.1132 7.15019 15.7722 -1.99777 -0.591305 -1.03495
22.842 8.32114 13.155 -3.10655 -0.77854 -0.184514
20.3103 6.28367 15.6749 -1.63354 0.492791 0.843003
20.0392 7.45462 13.0577 -1.98976 -0.194841 0.139464
22.1453 5.55582 13.5745 -0.630299 -1.12814 0.424844
25.916 8.01671 15.8695 0.0344736 -1.27771 1.39528
25.2193 5.25139 16.2891 2.13887 0.138678 1.45901
24.9482 6.42234 13.6718 -1.34488 -0.967724 -1.54127
30.5539 8.15539 13.8665 0.066403 1.08022 0.991979
28.0222 6.11792 16.3864 1.59766 0.011053 1.1767
27.751 7.28887 13.7692 1.02617 -3.7202 -0.823403
29.8572 5.39007 14.286 0.624232 1.23016 0.410505
32.66 6.25659 14.3834 0.140175 0.0519988 0.430466
8.50764 10.565 14.0593 0.55041 0.762046 0.466481
6.15825 9.94566 15.6102 1.68584 0.865283 0.160353
5.88711 11.1166 12.993 -1.72907 0.91409 0.873446
11.1282 10.0135 15.1257 -0.931445 -1.11611 0.999398
9.47548 12.1594 16.257 -0.0118736 1.62385 0.898185
16.098 10.0813 14.6411 1.2839 0.983505 0.616494
14.4454 12.2272 15.7725 1.47455 0.113919 2.17522
13.7487 9.46189 16.192 0.0682302 0.942947 0.213445
13.4775 10.6328 13.5748 0.496835 1.72237 0.391377
18.9009 10.9478 14.7385 0.780889 1.59803 -1.74914
21.7037 11.8143 14.8358 -0.858603 -0.261497 0.837293
23.8099 9.91551 15.3526 -0.383986 1.35677 0.458772
23.5387 11.0865 12.7354 -2.37108 -0.400634 0.413414
21.007 9.04898 15.2553 1.30952 0.476359 -0.318292
20.7359 10.2199 12.6381 0.101185 1.59983 -0.0387393
26.6127 10.782 15.45 -1.84366 -0.4337 1.58583
26.3416 11.953 12.8328 1.17246 0.155222 0.909528
25.6449 9.18766 13.2523 0.957713 0.487376 -1.44594
29.4156 11.6486 15.5473 -0.769577 -0.941756 -0.434975
31.2506 10.9207 13.4469 0.49702 0.139198 1.81292
28.7189 8.88324 15.9668 -1.07131 1.90531 -0.762139
28.4477 10.0542 13.3496 0.0645818 -1.77365 -0.0145294
32.2184 12.5151 15.6446 -0.00269041 1.40219 1.33824
34.3246 10.6163 16.1615 0.263456 -0.339742 0.353484
34.0534 11.7872 13.5443 0.972511 1.68446 -0.815805
31.5217 9.74976 16.0641 0.636777 -1.94611 -0.154262
33.3567 9.02191 13.9638 -1.00777 0.921171 -0.438061
4.23444 13.2626 14.1243 0.798391 -0.0476336 0.983263
2.58177 15.4085 15.2556 0.779026 -0.395333 0.885055
7.55166 15.4763 14.7711 1.78894 2.16539 1.0881
6.85496 12.711 15.1907 0.833833 -0.346938 1.57884
6.58382 13.8819 12.5735 0.933376 0.890725 2.21674
5.20229 14.8569 16.322 -0.95204 -0.556879 -1.91805
4.93115 16.0279 13.7048 1.00912 -0.595857 0.979857
11.8249 12.7788 14.7061 -0.242235 1.68703 -0.318663
10.1722 14.9247 15.8374 0.990018 -0.67766 -0.683233
9.90105 16.0957 13.2202 -0.852596 0.899574 -0.304434
9.20434 13.3304 13.6398 -0.96119 -0.492902 1.57947
15.1421 14.9925 15.3529 -0.0969393 -0.48541 1.87173
14.8709 16.1635 12.7357 0.313294 -2.65259 -0.132523
14.1742 13.3982 13.1553 -0.954071 -0.633231 -1.83283
12.5216 15.5441 14.2866 0.018369 0.353832 -1.09998
17.7626 14.4409 16.4192 -0.399592 -1.01293 -0.0786468
17.4915 15.6119 13.802 0.32118 -0.255162 1.5133
19.5976 13.7131 14.3189 0.245636 -1.25689 0.185314
16.7948 12.8466 14.2216 -0.0634467 -1.36679 0.553177
22.4004 14.5796 14.4162 0.383738 0.593998 0.930223
25.2033 15.4461 14.5135 -0.6412 -0.803437 0.473792
27.3094 13.5474 15.0304 0.422212 -1.36075 0.0638912
24.5066 12.6808 14.9331 -0.287057 -2.22412 0.943859
28.0061 16.3127 14.6109 0.583416 -0.282225 0.78385
30.1123 14.4139 15.1277 0.624167 2.96826 -0.312912
29.1444 12.8195 12.9301 -0.131949 0.447758 -0.36042
32.0269 16.3675 14.2189 -0.560661 -1.00982 0.373304
31.9473 13.686 13.0274 0.00570997 -1.68291 -0.491393
34.133 14.4687 14.7357 0.59264 0.486845 -1.3899
36.3187 15.2514 16.4441 2.06365 -0.928294 -1.20836
36.0476 16.4224 13.8268 0.888822 -0.73041 1.65217
36.2392 12.5699 15.2526 -1.40868 0.516987 -0.353021
35.968 13.7409 12.6354 0.066753 -0.0166716 -2.15239
38.1537 14.5236 14.3437 1.03841 -1.4278 -0.987811
3.27847 18.1738 14.8361 -3.52576 0.136912 2.39334
1.62581 20.3198 15.9674 1.48024 -0.654323 -0.1423
0.929096 17.5544 16.387 0.611192 0.236982 -1.76955
8.24837 18.2416 14.3516 -0.616907 0.818934 0.680194
5.89899 17.6222 15.9024 -0.371613 -2.03228 1.20606
5.62786 18.7932 13.2852 -1.23875 0.256357 2.32433
10.8689 17.69 15.4179 0.336713 -1.63065 -0.862196
10.5978 18.861 12.8007 -0.706004 0.586119 -0.716299
15.8388 17.7578 14.9334 -0.256773 2.57307 -0.30502
14.1861 19.9038 16.0647 -0.25688 -0.195209 -0.936968
13.2183 18.3094 13.867 0.743493 0.850876 0.253093
19.156 19.9716 15.5801 0.324983 0.88711 1.33072
18.4593 17.2063 15.9997 0.274905 0.524595 -0.910997
18.1882 18.3772 13.3825 -0.31429 -2.29575 -0.836553
23.7939 20.1103 13.5771 0.818668 2.07838 -0.477357
21.2621 18.0728 16.097 -2.44105 0.55832 0.836006
20.991 19.2437 13.4798 0.183776 0.191919 -1.51916
23.0971 17.3449 13.9967 0.806768 1.08771 0.0863465
20.2943 16.4784 13.8994 0.464436 -0.0736709 1.31478
24.065 18.9393 16.1943 0.853336 -1.19303 0.445999
25.9 18.2115 14.094 0.555296 -0.066308 0.383615
28.0857 18.9942 15.8023 1.00792 -2.45713 -2.95621
27.8146 20.1651 13.1851 -0.130041 0.0901499 -1.86016
30.1919 17.0954 16.3192 -0.527095 -1.42471 1.92303
29.9207 18.2663 13.702 -0.724599 1.584 1.21021
32.1065 19.049 15.4103 -0.673914 1.30165 0.631434
31.8353 20.2199 12.7931 -1.28901 1.95896 0.756326
34.2126 17.1502 15.9272 0.336449 1.16003 -0.94368
33.9415 18.3212 13.31 -0.41307 0.747629 0.647722
36.1272 19.1038 15.0183 -0.30163 0.0886183 -2.31283
38.2333 17.205 15.5352 -1.13008 -0.698543 0.632915
37.9622 18.376 12.918 -1.64772 0.65102 -1.46296
4.6719 23.7045 13.997 -0.380053 0.892548 -1.75112
2.32251 23.0852 15.5479 -1.27721 0.736256 -1.60441
3.97518 20.9391 14.4166 0.38833 0.795747 1.0905
7.29241 23.1529 15.0634 -0.568096 -0.441619 1.46495
6.5957 20.3876 15.4829 -2.12518 0.889771 -1.06278
6.32456 21.5585 12.8657 -2.04836 -1.29536 1.41789
12.2623 23.2207 14.5788 0.237303 0.227534 0.669141
9.91292 22.6014 16.1297 -0.466677 0.930883 0.764502
9.64179 23.7723 13.5125 -0.594299 0.730692 0.604145
11.5656 20.4554 14.9983 0.98552 0.503163 1.70829
8.94508 21.0069 13.932 1.73322 -1.13386 -0.830459
14.8828 22.6691 15.6451 -0.246762 -0.657768 -1.40948
14.6117 23.8401 13.0279 -0.271942 -0.0197821 0.866259
13.915 21.0747 13.4475 1.05098 0.448099 -1.13354
19.8527 22.7369 15.1606 -1.23916 1.21704 0.961873
19.5816 23.9079 12.5434 0.0726484 0.609235 0.229153
17.2322 23.2885 14.0943 -0.690439 2.10208 -2.36669
18.8849 21.1425 12.9629 0.369182 -0.172129 0.901229
16.5355 20.5232 14.5138 0.938127 1.88969 0.636777
21.9589 20.8381 15.6775 0.531022 0.591291 1.61223
21.6877 22.0091 13.0603 -0.0601048 -0.558574 -0.581975
23.8734 22.7917 14.7686 -0.408444 0.525285 1.01268
25.9796 20.8929 15.2855 -0.32229 -0.171422 -1.76898
25.7084 22.0639 12.6683 1.01192 0.768466 0.263884
27.8942 22.8466 14.3766 -3.14323 -1.2429 0.30416
30.0799 23.6293 16.0849 -1.03716 -0.906342 -0.133381
30.0003 20.9478 14.8935 -0.731662 1.05326 0.151169
31.9149 22.9014 13.9846 0.46419 1.85859 0.120873
34.1006 23.6841 15.6929 -0.915429 2.07399 -2.85435
34.0211 21.0026 14.5014 0.447803 -1.13148 -1.09128
36.2068 21.7853 16.2098 -1.28757 -0.0629049 0.689442
35.9356 22.9563 13.5926 0.474304 0.469743 2.59143
38.1214 23.739 15.3009 1.33967 -0.323506 -1.54332
38.0418 21.0575 14.1094 -2.07855 1.62144 0.546108
4.10396 25.2779 16.3444 0.586114 -0.00263112 -1.30173
6.45334 25.8973 14.7935 0.619506 -0.825147 -1.68697
8.23479 28.0901 15.5901 1.4841 0.423032 -2.15558
11.4232 25.9651 14.309 -0.258659 -1.1865 -0.513127
9.07385 25.3457 15.8599 -0.431462 -1.51447 -0.684182
8.80272 26.5167 13.2427 0.0826482 -0.805845 -0.0604917
14.0438 25.4135 15.3753 -0.576373 -0.244085 0.633036
13.7726 26.5844 12.7581 -0.991559 0.720127 -0.92786
15.8252 27.6063 16.1718 0.172558 -0.9516 0.689363
13.2047 28.1579 15.1055 -0.148644 0.372427 -2.15073
19.0137 25.4813 14.8908 -0.0851117 0.242022 1.67345
16.6643 24.8619 16.4417 0.450736 0.719015 0.457247
16.3931 26.0329 13.8244 1.58983 0.991417 0.450594
18.1746 28.2256 14.621 -0.886804 0.0416885 1.37129
21.7673 24.6905 14.2517 1.64436 0.0886603 -0.817852
20.9282 27.4349 13.9819 -0.933615 -0.831362 1.50663
23.6819 26.6442 13.3429 -1.06154 -0.098975 0.684023
23.114 28.2176 15.6902 2.65294 -0.387704 0.501408
23.953 25.4732 15.9601 0.907489 0.504455 0.982177
25.8676 27.4269 15.0512 -1.66898 -0.507205 0.258926
25.788 24.7454 13.8597 1.55143 -0.60902 -0.865426
27.9738 25.5281 15.5681 1.62204 0.538131 -0.274646
27.7026 26.699 12.9508 0.810646 -1.14383 1.38642
29.8884 27.4817 14.6592 -0.345999 -0.407627 1.01671
29.8088 24.8002 13.4677 0.336675 -1.99835 -1.96958
31.9945 25.5829 15.176 -0.167345 -0.243926 -0.539465
31.7234 26.7539 12.5588 -0.56089 1.43448 -1.21839
33.9091 27.5366 14.2672 2.17935 -0.501894 0.732418
33.8295 24.8551 13.0757 0.249214 0.920297 -0.640238
36.0152 25.6378 14.784 -1.06861 0.0183539 0.985733
10.5842 28.7095 14.0392 0.152107 0.0494582 -0.933338
12.3656 30.9022 14.8357 0.169649 0.761315 2.01415
10.0162 30.2829 16.3866 -0.317591 1.0113 -0.149382
15.5541 28.7772 13.5546 -1.23089 -1.29908 -0.496226
14.9861 30.3507 15.902 0.102352 -1.79957 -0.948156
14.715 31.5216 13.2848 -0.863576 0.35313 -0.0487967
17.3355 30.97 14.3511 -1.22359 1.05693 -1.17341
19.5212 31.7527 16.0595 -0.45795 0.0579678 1.70312
20.3603 29.0083 16.3293 0.14408 2.72445 -0.294822
20.0892 30.1793 13.7121 0.167825 0.906817 0.775969
22.8428 29.3886 13.073 1.02577 0.258656 -2.00768
22.2749 30.962 15.4204 -0.232171 -1.364 -0.694249
22.0038 32.1329 12.8032 -0.543946 -2.51151 -1.59795
25.0286 30.1712 14.7814 -0.810872 -0.0191731 0.0433615
26.9431 32.1249 13.8725 0.76112 -0.343896 -1.02668
27.7822 29.3805 14.1423 0.636404 -0.834782 0.207793
29.9679 30.1632 15.8507 -2.23189 2.08419 0.656953
29.6968 31.3341 13.2334 0.032272 -2.00675 0.245326
31.8825 32.1168 14.9418 -0.395798 2.37442 0.4325
32.0741 28.2644 16.3675 0.418393 -0.252923 1.15931
31.8029 29.4353 13.7503 1.13433 0.0178682 1.10336
33.9887 30.218 15.4586 2.37514 -2.00111 -2.05877
36.0948 28.3192 15.9755 -1.07923 -0.142582 -1.1868
14.1471 33.095 15.6322 0.383218 2.49355 -1.22262
15.9285 35.2878 16.4287 0.278359 2.60169 -0.449059
16.4964 33.7144 14.0813 0.297302 0.0961991 0.56904
19.2501 32.9237 13.4423 1.1352 -0.82991 0.0756134
18.6822 34.4971 15.7897 -3.38091 0.148297 -1.13021
21.4358 33.7063 15.1506 -0.254967 0.740212 1.86326
24.1895 32.9156 14.5115 -2.42443 1.80172 -1.14373
26.3752 33.6983 16.2199 0.602352 -2.01465 -0.286923
29.1289 32.9076 15.5808 1.5885 0.852364 -1.60675
12.3553 3.93124 17.0311 0.520753 -0.25966 1.2333
10.0059 3.31187 18.582 -0.22365 0.865733 1.17167
14.9758 3.37968 18.0974 -0.874131 -2.26739 -0.742732
12.6264 2.76029 19.6483 -0.637541 -0.057774 0.564616
17.7786 4.24619 18.1948 0.588532 2.3463 -0.733831
19.8848 2.3474 18.7116 -0.852201 0.468957 -0.239537
17.0819 1.48087 18.6143 0.848245 -0.0743442 -1.22151
18.9169 0.753032 16.514 -0.223744 -0.734486 0.479778
22.6876 3.21392 18.8089 -1.54489 -0.699547 -1.01385
21.7198 1.61955 16.6113 0.646534 -0.422841 0.196966
25.4905 4.08043 18.9063 -1.4913 0.998835 0.833521
27.3255 3.35259 16.8059 1.50564 -0.849636 0.116924
24.5226 2.48607 16.7086 -1.50363 -2.24061 1.82526
30.1283 4.21912 16.9032 -1.50722 -1.30639 0.8084
8.3532 5.45782 19.7133 -0.913014 -1.71271 -1.64138
8.08206 6.62877 17.0961 -0.329911 0.529888 0.446566
11.6704 7.67155 20.3601 -1.26142 0.548104 1.90134
10.7026 6.07719 18.1624 0.560471 0.570722 -0.18013
9.04991 8.22314 19.2937 -1.24802 -1.22073 0.372886
15.9436 4.97404 20.2951 0.803322 -2.65525 1.21783
15.6725 6.14499 17.6779 1.16279 -1.58162 -1.28685
14.0198 8.29094 18.8092 0.378141 -0.267642 0.171377
13.3231 5.52562 19.2288 -0.645132 0.745247 1.34899
13.052 6.69657 16.6116 -1.28578 0.62355 1.8098
16.6403 7.73935 19.8755 -0.270382 0.89264 -0.380449
18.7465 5.84056 20.3924 0.0878609 2.09968 -0.0465873
18.4753 7.01151 17.7752 -0.29091 -0.512311 -0.499895
21.2782 7.87803 17.8725 -0.529397 2.00035 -0.417709
23.3843 5.97924 18.3894 -0.953462 -0.293775 -0.0683249
20.5815 5.11272 18.2921 0.828077 -0.470154 1.1376
26.1872 6.84575 18.4867 -2.53652 -0.363583 -1.06
28.99 7.71229 18.584 -0.735059 0.0566493 -0.39007
31.0961 5.81348 19.1009 -0.855491 1.18051 1.05286
30.825 6.98444 16.4837 1.0093 -1.40401 1.16039
28.2933 4.94697 19.0036 -1.45911 -1.80196 0.223808
31.7929 8.5788 18.6813 0.120031 0.789885 0.120359
33.899 6.68001 19.1982 0.892633 0.083228 1.55008
33.6279 7.85096 16.581 -2.67773 1.15725 0.0829515
32.9311 5.08564 17.0006 2.03432 -0.10986 -0.858745
4.50558 12.0916 16.7415 1.08531 -1.28473 0.433762
7.1261 11.54 17.8079 -0.783179 0.287648 0.696331
6.42939 8.77471 18.2274 -0.294939 -0.0334505 -0.885453
4.77671 10.9207 19.3587 -1.81752 -1.55928 1.26046
12.3671 10.4369 19.9405 -0.898532 2.45311 -0.45527
12.096 11.6078 17.3233 0.717505 1.2539 0.10301
11.3993 8.84251 17.7429 0.0277293 0.375375 0.311048
9.74661 10.9884 18.8742 -0.212905 0.776703 0.0524819
8.77877 9.39409 16.6765 -0.86083 0.876757 -1.9854
14.7165 11.0562 18.3897 -1.82867 0.634852 -0.685694
17.337 10.5047 19.456 0.77887 -0.619313 -0.952819
17.0659 11.6756 16.8388 -0.0221647 -0.728355 0.324778
19.4432 8.60588 19.9729 1.32991 1.05035 -0.400413
19.172 9.77683 17.3557 -1.75325 0.599858 0.58074
16.3692 8.91031 17.2583 -0.63715 -0.37537 0.309545
22.9427 12.2377 19.6506 -0.113388 1.27612 -0.164891
20.1399 11.3712 19.5533 -1.12429 0.238678 1.41775
22.246 9.4724 20.0702 0.99294 0.262682 -0.686162
21.9749 10.6434 17.453 -1.25781 1.47214 -1.65689
27.5806 12.3764 17.6476 -0.177421 0.271532 -0.871617
25.0489 10.3389 20.1675 0.656955 -1.80029 -2.01508
24.7777 11.5099 17.5503 -0.260702 -0.435986 0.514668
26.8839 9.61108 18.0672 0.564025 -0.947467 0.611237
24.081 8.74456 17.9698 -2.29557 0.587927 0.584694
30.6546 12.072 20.3621 1.55009 -1.22121 -0.548346
27.8517 11.2054 20.2648 -0.266767 1.03815 0.612783
29.6867 10.4776 18.1645 -0.778166 0.315473 0.800687
32.4896 11.3441 18.2618 1.22277 -0.550333 -0.449619
34.6753 12.1268 19.9701 -1.01074 0.989557 -0.666311
34.5957 9.44532 18.7787 -1.06996 0.74951 1.05915
36.5103 11.399 17.8698 0.628837 -0.446409 1.12533
38.696 12.1817 19.5781 0.283318 -0.196415 -1.79057
3.82075 15.8319 20.0705 -0.732365 0.118957 -0.666677
2.85291 14.2375 17.8729 -0.752643 0.564774 1.18226
1.20023 16.3835 19.0042 -0.887493 -1.0182 1.16405
8.09394 13.1344 20.0055 -0.0856989 -0.400361 -0.298938
7.8228 14.3053 17.3883 -1.58243 0.9543 -0.935234
5.47342 13.686 18.9392 -0.0109262 -0.851275 -0.464079
10.4433 13.7538 18.4546 -0.570101 -1.36346 -1.99608
8.79065 15.8997 19.586 -0.185757 0.158953 -0.301374
15.4132 13.8216 17.9701 -1.82293 -2.33668 1.69692
13.7605 15.9675 19.1014 1.20966 1.21619 0.431939
13.0638 13.2022 19.521 -0.766529 -1.649 0.51636
12.7927 14.3732 16.9038 -1.03627 1.05917 -0.762347
18.7304 16.0353 18.6169 1.3742 0.0631148 1.82686
18.0337 13.27 19.0364 0.882322 1.24777 1.30409
16.3811 15.4159 20.1678 -0.0138099 0.7312 -1.53274
19.8687 12.5422 16.9361 -0.383501 -2.04461 -2.30188
23.6394 15.003 19.2311 0.46579 1.20616 -3.08866
23.3683 16.174 16.6139 -1.09775 1.004 1.7286
20.8366 14.1365 19.1338 0.783322 -0.75924 -0.948726
20.5654 15.3075 16.5166 -1.10029 0.978756 1.91746
22.6716 13.4087 17.0334 -2.18469 -0.382345 1.22681
26.4423 15.8696 19.3284 1.45556 0.648483 0.0995395
25.7456 13.1042 19.7479 1.9033 1.854 -0.641451
25.4744 14.2752 17.1307 -0.597102 -0.821839 -0.00473773
28.5484 13.9708 19.8453 -0.370667 -1.96101 0.0946519
28.2773 15.1417 17.2281 -0.609633 0.357898 -2.05773
30.463 15.9244 18.9364 -2.38252 1.07165 -1.80306
30.3834 13.2429 17.7449 -1.06553 1.84614 -0.331336
32.5691 14.0256 19.4533 2.21251 0.180313 -0.257896
32.298 15.1966 16.8361 -0.0583918 0.021559 -0.0789377
34.4837 15.9792 18.5444 -0.103093 -2.0312 -0.913312
34.4042 13.2978 17.3529 -1.29926 -2.66072 -2.56186
36.5899 14.0804 19.0613 1.84756 -0.321122 2.24899
38.5045 16.0341 18.1524 -1.46887 0.802407 1.12347
38.4249 13.3526 16.9609 -0.794024 0.0318548 2.27163
4.51746 18.5972 19.651 2.07095 1.64537 0.647192
4.24632 19.7682 17.0338 2.50062 -0.57842 -0.0409424
3.54961 17.0029 17.4533 -0.697531 0.282946 0.421002
1.89694 19.1488 18.5846 -0.581573 -0.551091 0.0614373
8.51951 17.0707 16.9688 -1.94151 -0.393519 0.433108
6.86684 19.2166 18.1001 0.99518 0.959521 2.13255
6.17013 16.4513 18.5196 -1.29655 0.590034 -0.110153
12.1079 18.1135 20.2328 -0.934232 1.37016 0.883242
11.8367 19.2844 17.6156 -1.02465 -0.687997 0.105941
11.14 16.5191 18.0351 1.4852 -1.63508 0.287698
9.48736 18.665 19.1664 0.390753 1.18293 -1.52753
9.21622 19.836 16.5492 0.423645 0.250115 -2.21714
16.1099 16.5869 17.5506 -1.00088 -1.30709 0.1365
14.4573 18.7328 18.6819 1.32233 0.327198 -0.912751
13.4894 17.1385 16.4842 -0.81841 -0.233659 0.424694
19.4271 18.8006 18.1973 0.322155 -0.572987 -0.13096
17.0778 18.1813 19.7482 0.544544 0.249918 -0.748605
16.8066 19.3522 17.131 0.450974 0.806238 0.677738
22.23 19.6672 18.2947 0.633833 0.197822 1.83855
21.5333 16.9018 18.7142 0.598805 0.224613 0.294437
24.3361 17.7684 18.8115 0.829475 -0.244778 0.433891
26.2507 19.722 17.9027 1.06853 -1.92215 -1.22511
26.1711 17.0405 16.7112 0.720137 -2.22078 1.55011
28.3569 17.8232 18.4195 0.106761 0.916775 -1.52785
30.5426 18.6059 20.1279 0.0617278 0.39594 1.18484
30.2715 19.7768 17.5107 -0.104959 -0.545906 -1.7666
32.3776 17.878 18.0275 -0.665262 0.260515 -1.02713
34.5633 18.6607 19.7359 0.874895 0.697631 -1.01165
34.2922 19.8317 17.1187 0.185076 -1.05849 0.186193
36.6695 16.7619 20.2527 1.10492 1.46686 0.279249
36.3983 17.9329 17.6355 0.192021 1.31117 -0.336105
38.5841 18.7156 19.3439 0.0161751 0.562438 -2.39731