ITEM: TIMESTEP
0
ITEM: NUMBER OF ATOMS
147
ITEM: BOX BOUNDS ss ss ss
1.3572346917110259e+01 2.7217653082889719e+01
1.2407614438067773e+01 2.8382385561932221e+01
1.2296973590062720e+01 2.8493026409937276e+01
ITEM: ATOMS x y z vx vy vz
16.9701 15.087 16.134 1.81716 -0.637031 -0.237304
20.9908 15.7236 16.0023 -0.00190471 0.968387 -1.11308
18.7887 16.2333 14.2175 -0.989772 0.0113894 0.837635
25.0115 16.3603 15.8706 -2.11798 -0.348872 -2.22389
14.243 19.2629 16.0439 0.284317 0.928052 -1.44298
16.5158 17.7481 15.1307 -0.117628 -0.540836 -0.94641
18.2637 19.8995 15.9122 -1.69273 0.142484 -1.31269
20.5366 18.3848 14.999 1.95432 -0.497132 -0.573751
18.3345 18.8944 13.2142 -0.500159 1.60923 -0.804714
20.6073 17.3796 12.3011 -1.13816 -0.424008 -1.75123
22.3552 19.5311 13.0825 0.835861 -0.681159 2.34808
22.8094 16.87 14.0858 0.340368 -0.622258 -0.338891
24.5573 19.0214 14.8673 0.334472 0.922366 1.26935
13.7888 21.924 15.0406 1.17067 -0.044286 -0.080854
15.5366 24.0754 15.8221 0.400565 1.40598 0.506941
16.0616 20.4092 14.1274 1.00441 1.65983 -0.319639
17.8095 22.5606 14.9089 -0.15503 -0.400074 -0.184287
22.2844 20.5362 15.7805 0.312277 -1.39808 0.645412
20.0823 21.0459 13.9957 0.802465 0.265625 -1.57076
21.8302 23.1973 14.7772 -0.227499 -0.702324 -1.67236
26.3051 21.1728 15.6488 0.373013 -0.239003 0.84631
24.103 21.6825 13.864 0.195553 -0.434917 -0.644957
25.8509 23.8339 14.6455 -0.227894 -1.1656 0.78738
19.5573 24.7121 15.6904 0.803741 -0.911723 0.884767
23.578 25.3487 15.5587 -0.263479 -0.0407209 0.810255
15.1514 13.9407 18.0505 -0.071381 0.720909 -0.0941659
16.8993 16.0921 18.832 -1.54071 -0.308411 0.282277
17.3535 13.431 19.8353 -0.00494116 -0.772296 1.21862
19.1721 14.5773 17.9188 1.0914 -0.137501 0.638427
21.3742 14.0677 19.7036 -0.338683 -1.24819 0.696584
23.1929 15.214 17.7871 -0.859535 2.23426 -2.72303
27.2136 15.8506 17.6554 -1.55965 -0.742702 -2.38263
25.3949 14.7043 19.5719 -1.19636 -1.36309 1.02131
14.6264 17.6069 19.7452 -1.81663 1.52263 0.159731
14.1722 20.268 18.7419 -2.96846 -1.82992 -0.615443
14.6972 16.6018 17.0472 1.23323 -0.342988 0.0575897
16.4451 18.7532 17.8287 -1.25455 0.456643 0.283265
18.6471 18.2436 19.6135 0.869952 -0.202858 -0.350145
20.92 16.7288 18.7003 0.948236 -0.754771 1.01246
22.6679 18.8802 19.4818 -0.0258663 -0.532352 0.37271
18.7179 17.2384 16.9155 2.61413 -1.13008 -0.801891
20.4658 19.3899 17.697 0.367194 -1.99824 0.0221623
24.9407 17.3654 18.5686 -0.668619 -0.0185726 -0.31346
26.6886 19.5168 19.3501 1.08298 0.515635 1.13141
22.7386 17.8751 16.7838 -0.755349 -0.0699574 -2.08559
24.4865 20.0265 17.5653 1.7099 0.0545549 -1.05955
26.7593 18.5117 16.6521 -0.53674 0.420003 -2.1616
27.1428 16.8557 20.3534 0.50673 -0.791336 0.770636
15.9201 22.4195 19.5234 -2.30477 -0.333773 -0.623237
13.718 22.9291 17.7386 -1.44928 -0.444857 -0.976778
15.9908 21.4143 16.8254 -1.22341 0.65337 0.310467
17.7387 23.5658 17.6069 -1.20443 -0.575026 -1.51739
18.1929 20.9047 18.6102 -0.14944 0.290753 1.53521
19.9408 23.0561 19.3917 1.24662 -0.5519 -1.38497
22.2136 21.5413 18.4785 1.19902 1.6942 -2.11398
20.0116 22.051 16.6937 -1.85943 2.14714 0.209273
21.7594 24.2024 17.4752 0.72394 2.514 -3.23772
24.4157 21.0316 20.2633 2.23235 -0.367914 0.449776
23.9615 23.6927 19.26 -0.475006 0.300781 2.09553
26.2343 22.178 18.3468 0.139289 -0.315412 -0.472831
24.0323 22.6876 16.562 0.13662 -0.210651 -0.508105
17.6679 24.5709 20.3049 -1.93063 0.462681 -0.471129
15.4658 25.0806 18.5201 1.1111 -1.50952 -2.09968
17.2137 27.232 19.3016 -1.28993 -0.529805 -2.28229
17.2845 26.2269 16.6036 1.46669 0.64177 1.11754
21.6886 25.2075 20.1732 0.934142 2.14356 -0.465873
19.4866 25.7172 18.3884 0.706316 0.228305 1.72609
21.2344 27.8686 19.1699 0.586954 0.627275 1.52127
19.0323 28.3783 17.3851 -0.21212 -0.525072 -1.78402
21.3052 26.8635 16.4719 -1.53717 1.00281 1.38163
25.7093 25.8442 20.0415 -0.261498 -0.931726 -0.343887
23.5073 26.3538 18.2567 0.353957 1.29151 0.457778
25.7801 24.8391 17.3435 -0.813849 -0.213477 1.80923
15.0807 14.9458 20.7485 1.53618 1.12598 0.171007
15.0099 15.9509 23.4465 -0.260914 -0.893146 -0.100471
17.2827 14.4362 22.5333 -0.160207 -1.73953 -0.533821
19.1014 15.5825 20.6168 0.716475 0.773383 0.997409
19.5556 12.9214 21.6201 -0.10383 -0.297057 1.97273
21.3034 15.0728 22.4016 0.793963 0.521478 0.785765
19.4848 13.9265 24.3181 2.20363 -1.32945 2.19491
21.7577 12.4117 23.4049 -0.0738713 1.81745 1.99308
23.1221 16.2191 20.4851 -0.412697 -0.399809 0.11971
23.5763 13.558 21.4884 -0.150002 -1.36143 -0.941116
25.3242 15.7094 22.2699 0.551341 0.614846 -1.7614
23.5055 14.5631 24.1864 0.692507 -0.313698 0.232276
16.3743 19.7584 20.5267 0.473439 0.600744 -1.3645
14.5557 18.612 22.4432 0.647095 -0.451517 1.58229
16.8285 17.0973 21.53 -1.07916 -0.454806 1.84601
16.7577 18.1024 24.228 -1.19421 -0.865485 1.30623
20.395 20.395 20.395 0.820553 0.0195761 0.445321
18.5764 19.2487 22.3115 -0.799229 0.0409549 0.278222
20.8492 17.7339 21.3983 1.14495 -0.110472 -0.247412
22.5971 19.8853 22.1798 -0.494578 0.178371 -0.222396
19.0306 16.5876 23.3148 1.52245 2.31294 0.445869
20.7784 18.739 24.0963 -0.203445 -1.05774 -2.32781
24.8699 18.3705 21.2666 1.10311 0.378737 0.839706
23.0513 17.2242 23.1831 -1.32989 -0.15031 0.50379
24.7992 19.3757 23.9646 -2.32938 1.46789 -0.357595
27.072 17.8609 23.0514 -1.08029 -1.46839 1.60521
14.1014 21.2732 21.4399 0.962132 0.316156 -0.333195
15.8493 23.4246 22.2214 1.97707 -0.728553 -0.598541
13.6472 23.9343 20.4366 0.0946475 0.4276 1.02437
14.0307 22.2783 24.1379 -1.33652 -0.199797 1.97917
16.3035 20.7635 23.2247 0.926906 0.169316 0.771841
18.0514 22.9149 24.0062 3.7538 -0.710245 0.235686
18.1221 21.9098 21.3082 1.14687 1.15802 0.159937
19.87 24.0612 22.0897 1.53671 0.564433 0.357671
22.1429 22.5464 21.1765 0.106017 -0.204512 1.10576
20.3242 21.4001 23.093 -1.06421 0.203529 0.353611
22.0721 23.5516 23.8745 -0.919406 -2.29507 -0.465852
26.1636 23.1831 21.0448 0.962013 0.483044 -1.06264
24.3449 22.0368 22.9613 1.43144 -1.35006 -2.41262
26.0928 24.1882 23.7428 -1.05955 -0.032198 1.36046
26.6178 20.522 22.0481 -0.138205 2.38594 0.129828
13.5764 24.9394 23.1346 1.17488 0.578014 0.772828
17.5971 25.576 23.0029 -0.179337 1.80077 -1.85915
15.3951 26.0857 21.2181 -0.44059 -1.23566 -0.2925
21.6179 26.2127 22.8712 -1.39901 1.28401 0.840267
19.4158 26.7223 21.0864 -1.8017 -1.22888 1.09495
23.8907 24.6979 21.958 0.474358 -0.0128735 -0.494629
25.6386 26.8493 22.7395 -1.07626 1.02464 -1.0912
23.4365 27.359 20.9547 0.865518 -1.01194 1.74488
17.212 15.4413 25.2313 -0.674422 0.581553 0.752411
21.2327 16.0779 25.0996 1.5135 -1.75505 0.820369
14.4849 19.6172 25.1412 -1.27114 -0.547948 0.0979248
14.9391 16.9561 26.1445 -0.751966 1.69858 -1.03269
16.687 19.1075 26.926 -0.978183 -0.442887 -0.892876
18.5056 20.2538 25.0095 -0.899968 -0.637296 0.0745469
18.9598 17.5927 26.0128 -0.944683 0.446805 -0.154067
20.7077 19.7441 26.7943 1.28964 2.10527 -0.657945
22.9805 18.2294 25.8811 -0.385634 -0.789337 2.66978
24.7284 20.3808 26.6626 1.06916 0.355443 -1.23303
25.2534 16.7146 24.9679 0.709202 -1.35586 0.28355
27.0012 18.866 25.7494 0.663032 2.13427 -0.669948
16.2327 21.7686 25.9227 -0.520874 -0.132923 2.84657
17.9806 23.92 26.7042 -0.439039 2.19431 -0.0696885
20.2534 22.4052 25.791 -1.15049 -0.362878 0.723525
22.5263 20.8905 24.8778 -1.53632 -0.888622 -0.895226
18.4348 21.2589 27.7075 -1.70547 -1.39706 -0.000112257
20.1827 23.4104 28.4889 -0.0211154 -1.90368 -0.807245
22.4555 21.8956 27.5758 -0.167171 -1.81663 -0.442384
24.2742 23.0419 25.6593 -0.0727541 0.74914 1.36073
26.547 21.5271 24.7461 0.830948 -0.236238 0.131959
15.7785 24.4297 24.9194 -0.279659 1.55233 0.910013
19.7992 25.0664 24.7877 0.382342 0.766453 0.289063
22.0013 24.5567 26.5725 -0.408426 -1.67282 0.234582
23.8199 25.703 24.656 1.06866 1.01409 -0.25364
ITEM: TIMESTEP
1000
ITEM: NUMBER OF ATOMS
147
ITEM: BOX BOUNDS ss ss ss
1.3844207849267617e+01 2.7297657753057187e+01
1.3121482030426758e+01 2.8143468755569021e+01
1.2320597570609168e+01 2.8327496141617893e+01
ITEM: ATOMS x y z vx vy vz
17.4527 15.2447 15.988 0.932324 -0.664573 0.542142
21.0736 15.7783 15.9089 0.626594 -2.52728 1.4416
18.7981 16.7684 14.1068 -0.173908 0.431018 0.973601
24.2927 15.942 15.8229 0.129662 -1.73114 1.18399
14.3194 19.0758 16.0302 0.615421 0.832957 0.345839
16.5371 17.7513 15.1156 0.501003 -0.599378 -0.534715
18.1863 19.8305 15.8945 0.951523 0.0203961 -0.37478
20.5355 18.548 15.1528 -0.430255 1.46319 -1.08452
18.2934 19.3123 13.3686 -1.32534 0.454685 -0.619728
20.4451 18.2124 12.319 -1.19251 1.67929 -1.81444
22.3952 19.764 13.2811 -1.2986 -2.1458 0.985544
22.6746 17.1385 14.0461 0.254571 2.31108 -0.553872
24.5429 18.8466 14.8792 -1.49377 0.700051 -0.868965
13.845 21.722 15.4316 -1.03788 -1.01254 -0.579633
15.7973 23.9274 15.8448 -0.471926 -0.224017 1.21651
15.7974 20.1796 14.2171 -0.697726 0.252246 0.462859
17.8945 22.2927 14.8294 1.03547 -0.953792 0.609559
22.2363 20.6931 15.73 -0.126279 -0.395893 0.625704
20.1342 21.0954 13.8908 2.37775 0.279264 0.00589186
21.8024 23.2975 14.9079 0.0506714 -1.07516 -1.48287
26.3035 20.7329 16.0701 1.15868 0.937492 -0.178225
24.1543 21.7398 14.3097 1.6779 0.742763 0.53405
26.0688 23.4159 15.5212 0.943171 -0.763537 1.65707
19.4538 24.4846 15.6021 -0.557351 0.338119 0.0621368
23.7269 25.173 15.9055 0.276254 -1.67341 1.01011
15.9625 14.0292 17.8343 0.828869 0.489327 0.649752
17.1919 16.2325 18.8799 0.91573 -3.11784 -1.97215
17.9616 13.4462 20.0685 1.80034 0.765774 0.696769
19.3794 14.683 17.9241 -0.911911 -0.431505 1.08846
21.1715 13.934 19.9903 0.0196806 0.329206 -2.61879
22.9858 15.0191 18.0143 -0.234308 -0.363544 -0.51877
25.9808 15.5136 17.6328 -0.0759174 -1.29709 0.622827
24.9496 14.4941 19.8865 0.195546 -0.0217679 -0.06124
14.6245 17.5552 19.7516 0.613571 -1.45629 -0.13659
14.3824 20.0582 18.884 -2.73757 0.516823 -0.812959
15.1211 16.6263 17.1257 2.54147 -0.913633 0.644506
16.5789 18.7271 17.8272 -2.92673 -1.18148 -0.988076
18.6487 18.3714 19.5055 -0.52109 0.459597 -0.455128
20.9668 16.6633 18.5989 -0.711131 0.421324 0.0645368
22.6403 18.9955 19.4579 0.153097 0.839117 1.27091
18.9215 17.2269 16.9715 -0.970857 -1.8418 -0.761394
20.5481 19.4177 17.5197 -1.74505 1.06183 -3.20487
24.428 17.4169 18.8144 2.00788 -1.21684 -1.36521
26.5574 19.4614 19.2522 0.0944625 0.685621 0.0196712
22.7342 17.8771 16.6642 0.0731134 -1.59745 -1.08831
24.4324 19.9288 17.6251 0.643554 0.836304 0.903052
26.229 18.2115 16.7434 -0.427412 -0.638501 0.394315
26.6045 16.5238 20.2004 -1.0618 -0.461351 -1.7771
15.933 22.3623 19.4128 -0.971422 2.3135 -1.0671
13.9108 22.957 17.8552 1.17424 1.12781 -0.393075
15.9947 21.2684 16.9891 -2.03251 0.293705 -1.90561
17.8103 23.3386 17.3997 -0.0627379 1.56537 -0.773464
18.0746 20.9244 18.5373 -2.05917 -1.23868 -1.48281
19.7995 23.1663 19.4469 0.834114 0.564504 -0.12937
22.1276 21.6065 18.4212 0.283059 -0.0657023 -2.06359
20.0514 22.1341 16.5712 -0.264621 -0.129227 0.795586
21.7518 24.2004 17.4783 -0.44367 -1.29514 0.402498
24.4023 20.9653 20.2248 2.0043 -1.17899 -1.04112
23.857 23.6987 19.4541 0.793126 0.681299 -0.368813
26.2838 21.9959 18.4857 -0.795665 -0.239 0.571209
23.8922 22.6528 16.9507 1.86454 0.577531 -0.742314
17.6893 24.7127 20.1353 0.434666 1.25876 1.90496
15.2797 25.0985 18.3063 0.115607 -0.873871 3.60329
17.3602 27.0502 19.0883 0.501153 2.31379 -1.82484
17.2551 25.8535 16.7004 -0.501622 -0.871398 1.27555
21.5778 25.3898 20.167 0.8107 0.730433 0.0674899
19.5645 25.4945 18.18 -1.21386 -0.0849686 -2.61263
21.3046 27.8932 18.9462 -0.766847 0.198899 -1.19636
19.0303 28.1354 17.5017 0.958814 -1.39448 -1.32562
21.4695 26.8109 16.5922 -0.535876 0.175154 1.3771
25.3135 25.8662 20.0381 -1.22144 0.842538 0.371846
23.5 26.3717 18.2245 -2.3438 0.370686 0.537304
25.8261 24.5745 17.9255 1.37005 -0.737706 -2.77034
15.4076 14.9436 20.4998 0.638713 -0.433476 -3.33494
15.1011 16.0569 22.9399 1.09114 0.516905 -0.0988751
17.1934 14.3743 22.4677 0.676005 3.00761 0.763985
19.2411 15.6396 20.7276 0.645526 -1.59936 -0.831775
19.7254 13.128 22.1974 -0.677751 0.823701 0.288144
21.078 15.4635 22.6424 -0.583269 -1.27224 1.28325
19.2058 14.2619 24.4768 -0.168663 0.550703 -0.915359
21.6772 13.3559 24.3566 0.0667357 0.110404 0.142748
22.926 16.286 20.5792 -0.340851 -2.9206 0.530571
23.2701 13.9451 22.0034 0.693478 1.30141 1.78579
25.3009 15.7263 22.4302 -1.1025 0.400593 1.01769
23.6016 15.2817 24.5864 -0.694544 2.03467 -1.45617
16.3159 19.8666 20.4611 -2.00577 1.69926 -0.267355
14.5139 18.715 22.2298 -0.592931 0.117724 0.379008
16.8744 17.1949 21.3507 -1.1853 0.058826 -0.657171
16.8109 18.1807 24.0725 -1.023 -2.61799 1.46642
20.3714 20.4293 20.4412 0.0623966 -0.194258 -0.239631
18.4392 19.2364 22.2868 -2.70661 -1.0502 1.93039
20.8026 17.7085 21.5195 0.907154 -1.37524 0.374802
22.4912 20.0053 22.2568 -0.33177 0.464606 2.14653
18.9091 16.7784 23.4904 -1.48706 -3.16411 2.82114
20.7971 18.67 24.118 -0.595963 -0.0553682 0.685474
24.885 18.4237 21.157 1.98864 -0.746913 1.03481
23.0586 17.2975 23.2122 2.4494 -1.42251 1.53847
24.7203 19.5212 23.6646 1.49921 -0.715372 0.697431
27.1685 17.9423 22.5579 -0.207337 0.275588 1.32364
14.0205 21.3282 21.2324 -1.79527 1.37937 -0.578549
16.0142 23.0906 21.9728 0.362749 0.159095 1.60534
13.9456 24.1714 20.5298 0.128139 1.10963 1.21367
14.5175 22.4432 24.1083 2.70868 1.23839 -1.13119
16.3079 20.7646 23.1629 -2.14285 1.46256 -0.466058
18.1224 22.9592 24.0189 -1.38648 1.17573 1.9534
18.1001 21.9631 21.1823 -1.06465 0.92425 1.0323
19.8853 24.2022 22.0747 1.45155 1.1938 1.5585
22.076 22.6818 21.0405 -0.33459 0.853837 -0.720364
20.3011 21.5256 23.2802 -0.563579 2.12544 2.22232
22.0276 23.4299 23.8384 0.663183 1.87048 -0.419973
25.9932 23.1943 21.0654 2.87259 -0.119595 -0.256094
24.296 22.0685 22.811 1.45405 0.227025 1.5793
25.872 24.5591 23.5442 -0.788135 -1.02529 -1.57837
26.7349 20.5754 21.726 0.731453 1.86611 1.63546
14.7172 25.099 23.2882 -1.06891 0.807894 0.141881
17.4931 25.5467 23.0304 0.223943 -1.5362 0.379617
15.5003 26.1825 21.0115 2.76803 -0.762172 0.785819
21.5164 26.3216 22.9055 0.615506 1.24028 1.43094
19.5172 26.7774 21.2209 -2.27206 0.453622 -2.13039
23.5813 24.669 21.9616 0.907888 2.76037 1.51046
24.5581 26.7538 23.2045 -2.31292 1.63408 1.31297
23.0705 27.2738 20.909 -0.327158 0.0702315 0.15535
16.959 15.7998 25.255 0.604366 -1.40349 -1.10145
21.1476 16.3642 25.3835 -0.302763 -1.60693 0.399132
14.3758 19.6576 24.721 -0.0355599 -0.299444 0.308914
14.5622 17.0007 25.3165 -0.601736 0.63391 -0.866801
16.4535 19.0664 26.6309 -1.50958 1.17519 -1.77032
18.4765 20.1804 24.8596 -1.43468 0.741021 0.153808
18.9317 17.7214 26.1958 -1.08917 -0.446614 -0.280933
20.9465 19.5444 26.6952 1.21199 -1.19142 -0.331
23.1013 18.0882 25.747 1.09554 0.418918 0.256366
25.1214 20.6713 26.2043 1.16967 0.491859 -2.91851
25.6659 17.2716 24.6206 0.291457 1.6061 -0.950657
27.2955 19.6304 24.6247 0.602313 0.407913 -1.73635
16.2082 21.718 26.1062 2.25633 -1.56179 -2.11627
18.3104 23.2089 26.8161 -0.303975 -1.26177 -1.24764
20.4432 22.053 25.6005 -0.00835687 -0.963293 2.41063
22.7537 20.6028 24.815 -0.523539 -0.733486 2.11998
18.3802 20.2212 27.5535 -0.373296 -1.34771 1.40399
20.1513 22.1278 28.3292 -0.942041 -1.73552 1.85545
22.992 21.4231 27.3001 -0.11983 0.409669 -0.757581
24.4468 23.0812 25.4602 -0.931726 1.15419 -1.59725
26.6611 22.1531 24.1457 0.938534 0.203489 -0.622065
16.1631 24.1724 25.133 1.08537 0.155404 -1.09716
20.0993 24.917 24.7537 1.52213 1.21327 0.255628
22.1436 24.0025 26.6566 0.508698 -1.59202 1.16194
23.3986 25.4729 24.9175 0.823515 -0.817425 -1.94603
ITEM: TIMESTEP
2000
ITEM: NUMBER OF ATOMS
147
ITEM: BOX BOUNDS ss ss ss
1.3434601351306982e+01 2.7531829931424117e+01
1.3262523918569713e+01 2.7675067890763557e+01
1.2397478950388653e+01 2.8125648736255673e+01
ITEM: ATOMS x y z vx vy vz
18.0487 15.1329 15.8195 0.515949 -0.361902 -1.45807
17.0253 17.703 15.231 -0.58852 -1.29846 0.827731
21.086 15.519 15.5165 -0.351115 -0.0778175 -0.17129
19.3108 17.2869 13.9829 -0.976635 2.59712 -0.290635
22.1409 17.7583 13.8286 -0.86834 -0.300307 1.92529
23.8578 16.065 15.6962 0.602278 0.695545 0.892742
14.3526 18.4708 16.9313 0.555663 -2.77859 0.263404
17.8508 20.3173 16.1328 -2.47746 -0.956497 0.969364
18.0456 19.8518 13.49 -0.753592 1.18535 -0.520105
13.1366 20.8936 16.9317 1.7176 -0.981257 -1.96658
15.6451 20.3942 14.9278 -0.550944 0.879292 1.85
17.3053 22.6454 14.9154 -1.61417 1.05579 -2.31308
20.1952 19.5875 15.1371 0.618394 2.331 1.52037
20.4479 19.2849 12.4116 -0.296334 2.94905 2.05923
22.4895 20.5004 13.6183 0.262579 -0.0169255 1.08289
22.4973 20.7091 16.3159 0.901362 2.39902 0.723059
19.8781 21.7679 13.7355 0.369657 -1.15444 -2.28505
24.2028 19.1201 15.0908 1.00859 1.29295 -2.45
26.5215 20.2475 16.716 -0.880117 -1.04853 1.12398
24.701 21.8012 15.1024 0.30558 -0.769189 0.670401
14.8496 23.3398 16.4459 -0.861033 -0.755911 -0.148177
17.0326 25.2515 15.7848 -0.745781 -1.17041 0.00329867
22.3155 23.1806 14.748 1.9688 -0.106694 -1.06697
19.7232 24.3092 14.7453 -2.21973 0.823163 -0.457283
22.0212 25.7686 16.106 2.69626 -0.88882 0.0802029
26.8344 23.0646 16.4079 1.53601 -0.43146 2.18489
24.4127 24.4455 16.0775 -1.72236 -1.00492 0.107381
16.9872 13.5322 17.6338 3.58326 3.04727 1.57064
18.0567 15.8051 18.6204 -2.1611 -2.05036 -0.40611
18.3392 13.5433 20.2479 2.57724 0.426571 0.945598
14.7478 17.2789 19.4217 -0.397318 2.56197 0.75228
15.8456 15.7277 17.1401 -1.56169 -1.35955 0.510096
15.9283 14.6515 20.1228 -0.490445 -1.57096 -1.5549
19.9834 13.7677 17.6514 0.134858 -1.4181 -0.396398
21.4539 13.9898 19.9514 -0.255048 -0.27856 -1.38172
20.8064 16.2598 18.4507 -0.812682 -2.80306 -1.67875
19.2315 17.4361 16.6242 -1.28656 2.20871 -1.65034
21.9958 18.0659 16.4743 0.649173 1.39858 -0.330692
22.7077 14.2561 17.5091 1.74779 -0.64873 0.00908609
25.327 14.907 17.3758 -2.90196 0.437177 0.481736
24.3736 14.4076 19.9401 0.662222 0.538705 -0.574954
23.6235 16.7218 18.4225 0.0476551 -0.0558167 0.895365
25.961 17.5633 16.9254 -2.83275 -0.402177 0.620274
26.3028 16.3893 19.4956 -1.0998 -0.613798 -1.55862
13.6312 19.9514 19.4992 -2.10182 0.0353935 0.069569
16.6643 18.2947 17.7353 1.56682 -0.0188459 -1.30555
15.9885 22.5814 20.115 1.32925 1.48956 0.216097
15.4621 20.937 17.5038 -2.51356 -0.0807051 2.00464
17.8485 20.8427 18.7522 0.15484 1.06491 3.16805
16.1381 19.6267 20.6501 -0.4301 -0.567692 -1.44357
18.8381 18.2559 19.5357 4.01245 -1.10403 -2.28146
22.0855 18.8216 19.2723 -3.34667 -0.636648 1.75086
20.1474 19.7782 17.7077 1.15054 2.84481 1.87088
22.4543 21.498 18.9608 0.520564 -3.05784 5.4163
19.9815 22.2024 16.3716 1.92246 -1.90871 -0.890095
20.2244 20.5255 20.4922 1.30415 -1.31205 0.153501
27.0565 19.2314 19.2028 -0.0120435 1.28301 -1.72366
24.39 19.4016 17.9426 -2.11088 -2.66273 -0.312422
25.1774 21.118 20.0828 2.40504 0.575377 -1.24428
27.3476 22.0503 18.7685 -0.284891 0.281009 -1.12981
24.7405 22.208 17.647 1.54147 0.173264 0.878137
13.7183 22.7637 19.0584 -1.20351 -1.36343 1.52428
17.2841 23.2287 17.6372 1.12715 -1.47271 -2.10434
18.2427 24.9592 19.9238 1.14063 -1.43244 -1.15468
15.5136 24.9439 18.7688 -0.496843 -0.248226 0.418551
17.9083 26.7558 17.9739 -4.2303 -1.42047 0.216849
19.6994 22.8194 19.0839 1.12576 -4.3338 0.842282
22.1659 23.7508 17.5563 1.89755 0.0621926 0.610148
21.1306 25.2674 19.6854 -1.97137 -0.157568 -0.916959
19.3568 24.8697 17.3187 0.338443 0.177658 -1.31098
20.5295 27.2475 18.1817 -0.688114 0.000130394 -1.62406
19.6203 26.9792 15.7729 0.743471 -2.96552 -0.873152
23.8019 23.8641 19.884 -0.438695 -1.38547 0.116943
23.4139 26.2086 18.5227 1.71226 -0.277609 0.318185
25.7386 24.9065 18.4554 -0.196045 1.21734 1.19002
14.8023 16.2453 22.2174 -0.178425 2.03211 -1.11187
17.449 14.5194 22.7213 -0.0556272 0.22265 -0.398441
17.1846 16.832 21.1498 1.23327 -0.375095 0.750995
19.6153 15.7729 20.9541 1.92117 2.67554 0.678482
20.0442 13.9574 22.7181 -0.980581 -0.124524 1.35759
21.274 16.1716 23.5291 -0.26871 -1.02292 2.41756
21.894 14.1061 25.0225 0.136085 2.36969 -0.573153
20.8517 18.1947 21.7624 -0.3199 4.56373 0.0162212
18.687 16.7475 23.4196 -0.921953 0.408312 -1.54219
22.6443 16.2766 21.0053 -1.01329 0.846849 1.39784
22.9624 13.9332 22.4165 1.32233 0.243441 0.113716
25.3035 15.9808 22.0624 -2.76139 -2.043 -1.0159
23.3972 17.9688 23.0325 -0.514634 1.76316 -0.929166
27.1106 17.9955 21.5671 -0.0187879 -0.228875 -0.785024
13.7296 18.643 21.7033 -0.120554 -1.38745 -0.00460865
16.1453 18.459 23.0745 -1.65957 -2.34061 -0.28961
14.0156 21.7805 21.6868 -1.60544 0.613976 -0.0296345
14.5762 23.3339 23.9601 2.95442 1.09297 0.503792
16.4034 21.295 22.9565 0.872342 2.37056 0.0444908
18.3879 22.5443 24.1672 1.59164 -5.39882 0.538195
18.4712 22.1759 21.4626 2.73164 1.28231 -1.29887
18.3668 19.2542 21.9344 0.62045 0.549948 -3.18233
23.0261 20.318 21.64 -0.268161 -0.830689 -1.84127
21.7611 22.6684 21.4093 -0.440778 -2.85111 -0.0239492
20.3531 20.9693 23.2919 -0.668059 -3.71044 -2.11294
24.5994 18.2571 20.5886 1.58175 -1.26992 0.719266
25.3663 20.0262 22.6063 1.81927 2.25665 0.848769
24.1727 22.5681 22.5915 -2.71501 -0.908512 -0.954581
27.6274 20.9834 21.2398 0.911517 -1.8087 0.31277
27.6427 19.8413 23.7896 -1.562 0.190434 -2.26549
26.4903 22.3428 23.4574 0.342658 1.92101 -0.196904
16.9985 24.1557 22.2725 1.46429 3.18386 -1.32539
14.4965 24.4382 21.2617 -2.21596 -0.85761 1.8135
15.325 25.956 23.4433 0.298888 0.448241 -1.48104
18.1991 26.3506 23.546 2.36803 -0.299777 1.11025
16.5204 26.5119 21.1253 -0.657533 2.13826 1.75664
19.8493 24.4183 22.5524 2.40066 0.475785 0.308133
21.8235 23.0963 24.1801 0.137984 -2.69995 2.51509
20.8189 26.7706 23.6383 -0.0245965 1.91415 0.437334
19.6038 27.0995 21.2776 1.61307 2.70844 1.38547
22.1843 27.3531 21.0316 -0.662135 1.15408 -1.15698
24.8351 26.1886 20.9922 -2.63081 -1.55087 -0.443524
26.4075 23.6704 21.061 0.668683 0.03584 1.51655
25.3967 24.8337 23.3419 0.121695 1.43556 1.37421
22.6271 25.0561 22.2656 0.69033 1.15546 -0.301998
23.6952 27.2509 23.3061 -3.30944 0.407324 0.343759
16.3916 16.1882 24.5393 0.0331633 -0.533468 -0.470145
13.7229 17.5384 24.2177 1.35553 0.198757 -1.53204
19.1168 14.864 25.2536 0.621175 -0.311923 0.492814
21.0562 16.5491 26.4257 -0.899209 -0.737021 1.51833
18.4347 17.5199 26.0701 -1.72664 0.449336 1.45593
23.9055 15.6894 24.4825 0.213354 1.09731 1.84927
25.8332 17.8826 24.191 0.891834 1.73864 -1.4229
14.2699 20.242 23.9771 0.838509 0.197822 1.15851
15.7677 18.547 25.8153 0.251196 2.13248 -2.19337
18.0029 19.788 24.6264 1.93103 0.924893 -0.0393135
16.0522 21.52 25.6224 -1.50088 -0.89512 -0.99561
20.596 18.6007 24.617 0.517223 0.923094 -0.540323
20.569 18.8074 27.2766 0.658921 -0.267528 2.18252
20.3613 21.5155 25.9793 0.697708 -1.55382 0.956552
18.3185 20.1173 27.2221 -0.0978863 -1.21952 -1.20312
20.5226 21.7167 28.4339 -1.32387 -2.3186 0.987801
22.8388 20.7817 26.7858 1.88312 0.0901963 -2.48581
23.2304 17.9902 25.6612 -0.789514 -2.2313 -0.398157
25.2927 20.3644 25.3587 -2.46933 -1.08387 -0.719603
22.7579 20.3726 24.418 1.20738 1.48106 -0.102148
18.1646 22.8272 26.8399 -1.38862 1.18641 1.53478
16.6331 24.3038 25.1533 0.15527 2.50265 -0.761897
19.7839 24.774 25.3625 -0.985234 3.49271 -0.5269
21.9055 23.5924 26.9118 0.204082 -1.79463 0.953315
24.2891 22.7453 25.3764 -0.893801 1.50149 -0.613296
23.2132 25.3061 25.0974 0.663241 -0.0436982 0.0591886
ITEM: TIMESTEP
3000
ITEM: NUMBER OF ATOMS
147
ITEM: BOX BOUNDS ss ss ss
1.3037281200242484e+01 2.7738486909995657e+01
1.3455884210301097e+01 2.7295713591585933e+01
1.2352731117423271e+01 2.8593678534394900e+01
ITEM: ATOMS x y z vx vy vz
16.8469 17.5433 15.4645 0.796332 -0.011979 2.09857
18.1537 15.0473 15.9353 -0.0192529 -2.43739 0.492624
21.2478 15.8488 15.5694 -1.05999 -1.06604 0.402439
19.3789 17.1124 13.9363 -1.01966 0.2011 -1.0591
22.0088 17.9295 13.7466 -1.73384 0.131179 0.404226
22.5434 18.1863 16.4983 -0.815407 -1.1078 -0.123932
24.3327 16.4039 15.8423 1.45956 -0.790082 -0.561315
17.8571 20.3183 16.1212 -0.63486 1.4579 0.541594
17.7929 19.9016 13.5583 1.90678 -2.81196 -0.954947
15.3696 20.377 15.1511 2.19642 0.0559015 -1.86315
17.3268 22.4978 14.7479 0.730735 -1.73489 2.74146
20.2791 19.5278 14.9112 0.845694 1.50917 -1.20799
20.0838 19.1593 12.3208 -1.64083 0.0162436 -0.762712
22.4877 20.5696 13.4068 -0.881973 -0.560052 -1.59046
22.5316 21.0403 16.136 0.329321 0.4508 0.445127
19.7486 21.7807 13.4059 1.54698 -0.414339 0.613101
19.7409 22.3359 16.124 1.35286 3.68571 0.271127
24.3916 19.0725 15.0667 1.68491 -0.168046 -0.674579
24.769 21.9355 14.6267 -0.181635 -0.119187 1.80708
15.0469 23.189 16.2309 1.518 0.90429 -2.14717
17.2136 25.3365 16.1092 0.487156 -0.338294 1.1381
22.0743 23.0195 14.6021 -1.54595 -1.54423 -1.43266
19.3381 24.4737 14.8936 0.22038 -0.478271 -0.609059
21.7519 26.2147 15.9305 -4.32282 0.666585 1.50952
19.4228 27.1411 15.8658 0.473892 -0.554925 -1.62481
24.2796 24.4022 15.7447 -1.91164 -0.157502 0.121659
16.8007 13.5504 17.8978 0.376767 0.578746 2.24956
17.9832 15.7591 18.5839 0.315919 -1.78742 0.10518
14.6953 17.4775 19.7602 0.441519 0.460266 0.0517292
15.8814 15.8801 17.318 0.898788 -2.58387 -0.846126
15.7951 14.7721 20.0823 -0.780585 1.71339 -0.479098
18.0908 13.2342 20.0995 -0.930133 -0.141862 -1.46298
19.826 13.9856 17.7493 -2.41839 0.956937 -0.567307
21.5195 13.647 19.8157 -1.79337 -1.12219 -0.322143
21.0403 16.2222 18.3937 1.27157 -1.25924 -0.337087
19.1555 17.4155 16.6043 -1.02605 -2.81071 2.01831
23.11 14.8605 17.5843 -0.846992 -0.20538 -0.930811
19.1371 18.1612 19.472 1.51414 0.40472 -1.17913
25.9853 15.3451 17.6313 0.913205 2.88247 -1.30629
24.5782 14.4585 19.6797 -2.85877 -1.19231 -0.834353
24.0976 16.9946 18.4538 1.16551 -0.875374 0.340228
26.2804 17.9102 16.9107 1.62641 -1.32553 0.498062
26.4943 16.4961 19.8522 1.78991 2.67357 0.203442
14.4354 18.5518 16.9721 0.763179 -0.573116 -1.90691
13.2126 21.0458 16.6768 2.26032 1.97303 2.03931
13.7244 19.8716 19.3186 1.3095 -1.42865 -0.337224
16.7196 18.3533 18.0534 1.2459 1.03395 1.18198
16.0699 22.6266 20.0224 -1.2984 0.721712 -0.88834
15.5056 21.0614 17.7734 -2.2533 1.56001 0.223648
17.8911 20.6752 19.1068 -2.47563 2.81326 -2.03192
13.6113 22.8568 18.6924 -0.721417 -1.71725 1.50628
21.9887 18.6593 19.1763 -0.543638 -1.35688 0.961885
20.2149 20.0439 17.5925 0.704095 0.0102566 -0.312042
22.3108 21.4071 18.9668 2.0007 0.892505 2.0869
20.2886 20.3636 20.3297 -0.860949 3.70803 -1.06526
19.9067 23.0197 19.1869 1.42369 0.353862 -0.357788
26.4213 20.7432 16.5087 -0.0786811 -0.466195 -1.11162
26.7896 19.3915 19.3407 0.493501 0.295177 0.129568
24.3682 19.8153 17.9595 0.25121 2.55287 -1.64739
24.5958 21.197 20.2278 -1.02577 1.33222 -1.08242
26.7219 22.0113 18.8072 1.02272 0.571804 2.87901
24.6119 22.5878 17.4956 0.404305 1.02407 -0.751268
17.4636 23.2025 17.4811 -3.14082 2.774 2.9933
15.6512 24.9568 18.3891 0.553287 -0.355144 -0.604398
17.8727 27.0731 17.936 -0.625604 0.146133 -2.91176
17.9267 24.9069 19.8849 -1.41152 -1.32604 -0.952895
21.9042 23.9568 17.2806 1.54568 -0.0146689 -0.36218
21.4503 25.2221 19.8626 -0.960033 2.29301 0.426175
19.4649 25.216 17.5517 3.66917 -0.394913 1.92619
20.9976 27.4037 18.425 0.113898 -0.420183 -0.51313
26.6441 23.4462 15.9608 0.155766 0.219174 2.06055
23.9399 23.8495 19.9286 4.09804 0.986418 -0.378603
23.5347 25.9739 17.8309 -0.164257 -1.41108 -1.75518
25.9312 24.6283 18.6542 3.21353 -0.292327 -0.398283
14.9925 16.3274 22.5723 0.880362 1.54232 1.39795
17.2652 14.4967 22.3394 -1.23857 -1.1763 0.058144
16.9725 16.8166 21.1173 -3.59408 0.454764 -1.01298
14.3198 17.5488 24.7497 0.406558 -0.521552 0.859157
19.3842 15.4724 20.8029 0.127226 -1.25413 0.5585
19.8763 13.2237 22.2395 0.164183 0.298758 -1.69449
21.2614 15.537 23.1584 -1.75353 0.494944 -1.86131
18.687 16.8658 23.6423 -0.475644 -0.296935 1.46782
22.5898 16.0782 20.7253 -0.23933 -1.26344 0.317833
23.1789 13.7448 22.1178 -0.210605 -0.0920657 0.587308
24.9219 15.7567 22.2113 0.224429 -1.81263 0.636898
23.1415 17.7953 23.2179 1.14397 1.09652 1.44434
26.7853 17.8061 22.3576 2.02239 -1.29712 -1.55075
25.4041 17.5756 24.653 -0.0875581 -0.391538 0.950641
15.9713 19.7373 20.6027 -1.44121 0.627999 0.389236
14.191 18.8935 22.2297 0.498941 1.40065 1.80859
16.3772 18.4165 23.4968 2.34476 -1.48257 0.0444191
14.0013 21.7583 21.3843 0.450446 -0.907562 -0.664044
16.4178 21.3196 23.0413 0.726791 -2.37216 0.571925
14.4586 20.2765 24.6648 1.90535 -0.35938 -1.5281
20.7465 17.9336 21.8007 0.134088 -0.875677 -2.25637
18.6557 22.6912 23.9774 -1.58855 -1.68472 1.35043
18.6416 22.3589 21.3621 -1.8468 0.0464579 -0.985887
18.3722 19.2785 21.921 -1.92584 -0.115006 -0.476842
21.6972 22.6588 21.2985 -0.321567 -0.447805 -2.42995
20.4366 20.6945 23.003 -0.248663 -2.14135 2.61322
22.9774 20.7211 24.5116 -0.689405 -0.085631 0.702765
22.6002 20.161 21.6852 -0.790822 1.34299 1.01652
24.6516 18.2915 20.697 -0.184092 1.06026 -1.79046
25.1674 19.6916 23.128 -1.01909 -1.4016 2.17277
24.0638 22.4052 22.6106 0.423205 -0.146028 1.5231
26.8782 20.5954 21.5659 0.748654 -0.746422 -1.61802
27.3316 19.7588 24.6978 -0.570197 0.451508 0.333052
26.2189 22.0151 24.0878 -0.648778 1.07897 -1.4549
14.5352 23.2581 24.2095 -1.19553 -0.158311 0.222115
16.699 23.9567 22.4919 1.03715 -0.535285 -2.50207
14.2681 24.5449 21.0785 1.89436 2.03706 -0.237082
15.0809 25.799 23.2577 1.60551 -2.27399 2.73604
16.0418 26.3674 21.1327 -0.369762 -0.422838 1.00351
18.1006 26.162 22.978 -0.261401 -0.0577931 -0.516513
19.841 24.5561 22.0856 -1.01105 0.688445 2.85211
21.5504 23.2317 24.0381 -1.19583 -0.0162594 -0.868691
20.8625 26.7469 22.8498 -2.07377 -0.81092 0.381503
19.5384 27.3133 20.5341 -1.5573 -0.852377 1.81274
22.8948 27.2278 20.5984 0.946756 -1.82779 1.30321
22.8004 24.9104 22.3401 0.659008 -0.191885 -0.435081
25.1937 25.924 20.8992 1.67634 -1.64196 -0.714458
26.1935 23.3155 21.4014 0.996713 2.10873 0.283385
25.1809 24.8253 23.4499 0.127328 -1.35995 0.494485
24.0044 27.0262 23.1397 0.476187 2.58027 -0.683589
16.4692 16.077 24.8644 0.558814 -0.716092 0.875458
21.6931 13.4505 24.4324 2.01857 -0.0575914 -1.08308
19.2579 14.2835 24.5715 -1.17427 -2.27025 0.116466
21.1374 15.9606 26.0479 0.534078 1.51285 -0.58078
18.6098 17.2091 26.2049 2.07733 0.508715 0.661673
23.4633 15.4421 24.6007 -1.78827 0.0649758 -1.09803
23.0712 18.3249 26.0884 -1.44869 -0.242153 -0.797849
16.3828 18.9223 26.1148 -0.830542 -3.03073 1.16992