ITEM: TIMESTEP
0
ITEM: NUMBER OF ATOMS
1415
ITEM: BOX BOUNDS ss ss ss
4.4809148065906230e+00 3.6309085193409352e+01
1.7632043335554366e+00 3.9026795666444556e+01
1.5050406809756263e+00 3.9284959319024374e+01
ITEM: ATOMS x y z vx vy vz
16.799 13.7276 4.3388 -0.330965 0.951911 -0.352865
19.0718 12.2128 3.42561 -1.90002 0.698464 -0.656651
21.2739 11.7031 5.2104 -0.176756 1.36183 0.403597
23.0925 12.8495 3.2939 -1.11793 1.12402 -0.729348
20.8904 13.3591 1.50912 1.58106 -1.46368 0.840934
25.2946 12.3398 5.0787 0.806478 0.839564 0.989613
14.5261 15.2424 5.25199 -0.99628 -0.125856 -3.13932
14.0719 17.9035 4.24869 -0.059399 0.369103 0.949909
16.3447 16.3887 3.3355 -0.394403 1.07676 -0.0689094
18.5468 15.879 5.12029 -0.714643 -0.318677 0.340943
18.6176 14.8739 2.42231 0.00716277 -1.2728 -0.350559
20.3654 17.0253 3.2038 2.61164 1.02932 1.17626
20.8197 14.3643 4.2071 1.38379 0.174446 2.2066
22.5675 16.5157 4.98859 -1.06034 -0.575636 -1.79445
22.6383 15.5106 2.29061 1.5013 -0.263536 -0.65979
24.8404 15.0009 4.0754 -0.0811744 0.415727 -1.06247
26.5882 17.1523 4.85689 0.950299 -1.28548 0.405298
24.3862 17.662 3.0721 0.360388 0.292358 1.22491
11.799 19.4183 5.16189 -1.8224 -0.00122516 0.231729
15.8197 20.0549 5.03018 1.40326 0.483473 -2.04456
18.0926 18.5401 4.11699 -0.0505802 -0.644404 -2.86879
19.8404 20.6916 4.89848 0.700167 -1.36715 -0.270352
22.1133 19.1768 3.98529 0.0458147 -0.057724 -1.66647
23.8612 21.3282 4.76678 -1.14213 -1.07385 -0.127491
26.134 19.8134 3.85359 -0.760876 -0.400113 0.236728
27.8819 21.9649 4.63508 0.355813 0.224006 0.995858
15.4345 9.92019 7.2586 -1.0739 -0.26867 -0.199633
17.6366 9.41053 9.04339 -0.386171 0.393641 1.05336
13.1617 11.435 8.17179 0.214556 -2.60677 -0.0923657
14.9095 13.5864 8.95328 -0.171839 -0.740251 0.0310723
12.7075 14.0961 7.16848 0.39423 1.67272 -0.545467
14.9803 12.5813 6.25529 -0.424974 0.392504 1.46314
17.1824 12.0716 8.04009 0.470757 1.23137 -0.248514
19.4553 10.5568 7.12689 -0.597348 0.405238 -0.560207
17.2532 11.0665 5.3421 -2.30506 2.12958 0.563141
19.001 13.2179 6.12359 -0.0595951 -1.96202 0.156075
21.6573 10.0472 8.91169 1.55193 0.573234 -0.367568
21.2031 12.7083 7.90839 0.140209 0.436179 -0.460981
23.476 11.1935 6.99519 1.78353 1.1651 -1.17367
23.0217 13.8546 5.99189 -0.210642 -2.29509 1.43415
25.6781 10.6838 8.77999 -0.159315 -1.09923 0.603379
25.2238 13.3449 7.77668 -0.700498 1.51316 0.750631
27.4967 11.8301 6.86349 1.18222 0.572849 -0.242208
29.6988 11.3205 8.64829 -1.19922 -0.425938 -1.28804
29.2445 13.9816 7.64498 -0.573244 2.68125 0.333725
8.16174 17.1257 8.99487 1.07796 0.572807 0.315497
10.4346 15.6109 8.08168 -0.543136 0.104897 0.877899
12.1825 17.7623 8.86317 -1.07053 -1.60359 2.19276
9.98038 18.272 7.07837 0.580103 -0.45316 0.691243
12.2532 16.7572 6.16518 -0.245294 -0.0313754 -0.340124
14.4553 16.2475 7.94997 1.60389 -1.58999 -0.991427
16.274 17.3938 6.03348 1.27408 1.10167 -0.379653
18.9303 14.2231 8.82158 0.765355 -0.230873 -0.911161
16.7282 14.7327 7.03678 -1.0949 0.0568012 -1.93311
18.476 16.8842 7.81827 0.432964 -1.96144 -0.645522
20.2947 18.0305 5.90178 1.18794 1.03584 0.651965
22.951 14.8597 8.68988 0.782699 -0.633566 -0.648809
20.7489 15.3694 6.90508 -0.202797 2.0146 0.853596
22.4967 17.5208 7.68657 -1.72224 -1.24297 -1.87131
26.9717 15.4963 8.55817 -0.773933 -0.78552 0.53887
24.7696 16.006 6.77338 0.963877 -2.01065 -0.309241
26.5175 18.1575 7.55487 0.179379 0.621673 1.37979
27.0425 14.4912 5.86019 -1.43238 1.78461 0.523318
30.9924 16.133 8.42647 -0.253691 -1.2272 -0.537563
28.7903 16.6427 6.64168 -0.211523 0.0108941 -0.717744
5.43466 21.3016 8.90475 -0.812964 1.61474 1.19256
7.70752 19.7868 7.99156 -0.925103 -0.556443 -1.48656
7.2533 22.4479 6.98827 -1.97737 0.00301853 -0.691108
9.45538 21.9382 8.77305 -1.06126 0.822629 0.460668
11.7282 20.4234 7.85986 0.970165 2.13937 1.60835
9.52616 20.9331 6.07508 -0.421248 -0.552292 0.204103
16.2032 18.399 8.73146 -0.925781 -0.553568 -0.709387
14.0011 18.9086 6.94667 -0.0202527 0.848415 -3.20662
15.7489 21.0601 7.72816 0.943164 0.306699 -0.672047
13.5469 21.5697 5.94338 1.2231 -0.291939 0.136742
20.2239 19.0356 8.59976 0.680724 -0.307234 -1.07694
18.0218 19.5453 6.81497 -1.82415 0.648049 0.605117
19.7697 21.6967 7.59646 0.691106 1.6421 -1.71891
17.5676 22.2064 5.81167 -0.450898 -1.08927 0.908336
24.2446 19.6722 8.46806 0.622506 -0.442362 1.80974
22.0425 20.1819 6.68327 -0.0952763 1.09808 -0.354387
23.7904 22.3333 7.46476 2.20652 2.1124 1.06811
24.3154 18.6671 5.77008 -2.33034 -0.192229 0.0685179
28.2653 20.3089 8.33636 0.21056 -0.902597 -0.119107
26.0632 20.8186 6.55157 -1.01084 1.25917 0.877638
28.3361 19.3038 5.63838 0.700805 -0.307405 0.0049954
30.5382 18.7941 7.42317 0.0178643 0.437663 1.07951
32.286 20.9455 8.20466 -0.165869 -0.506983 -1.86565
30.0839 21.4552 6.41987 0.00448946 -1.32915 0.314633
4.98044 23.9627 7.90146 0.830905 -0.437727 -0.430306
6.7283 26.1141 8.68295 1.42607 -1.58833 0.427877
9.00115 24.5993 7.76976 0.339755 1.23275 -1.3865
11.274 23.0845 6.85657 -0.262653 -0.309862 0.337098
13.4761 22.5749 8.64135 -0.128444 0.758189 -1.29083
13.0219 25.236 7.63806 2.54472 -0.346186 1.10687
15.2947 23.7212 6.72487 0.536443 -0.769277 -1.54709
17.4968 23.2115 8.50965 -1.32322 1.5119 -1.63784
17.0426 25.8726 7.50636 -1.35369 -2.79343 -1.28382
19.3154 24.3578 6.59317 0.919858 2.72066 0.394419
21.5175 23.8481 8.37795 0.307692 1.61381 1.05003
21.0633 26.5092 7.37466 0.17259 -0.934746 -0.0938297
21.5883 22.843 5.67997 -1.12372 0.0594378 0.497755
23.3362 24.9944 6.46146 -0.995363 0.0700918 -0.874504
25.5382 24.4848 8.24625 1.25571 0.0543667 0.459076
27.8111 22.97 7.33306 -0.363671 -1.14557 0.157549
25.609 23.4797 5.54827 -1.26256 1.05977 2.27914
27.3569 25.6311 6.32976 -0.635512 -0.206146 -0.913053
29.5589 25.1214 8.11455 -0.628484 1.70761 -0.761208
31.8318 23.6066 7.20136 -1.70558 -0.241349 -0.00282434
29.6297 24.1163 5.41657 0.222262 -0.257191 -1.80177
31.3776 26.2677 6.19806 -0.58103 -1.33859 -0.395464
34.0339 23.097 8.98615 -0.809306 1.08766 0.0550953
33.5797 25.7581 7.98285 2.669 -0.233945 0.674436
10.749 26.7507 8.55125 0.355464 0.297126 -2.07136
14.7697 27.3874 8.41955 -0.465247 0.941835 -1.58201
18.7904 28.024 8.28785 2.36461 -1.90689 1.18212
22.8112 28.6607 8.15615 -1.77303 0.544601 -1.00286
27.2861 26.6362 9.02774 0.961592 -0.397946 -0.21816
25.084 27.1459 7.24295 0.77842 -0.82348 1.12206
26.8319 29.2973 8.02444 -0.19595 -0.313176 0.92196
31.3068 27.2729 8.89604 1.23544 -0.186533 -0.808769
29.1047 27.7825 7.11125 -1.11212 0.511141 0.443752
30.8526 29.934 7.89274 -1.60528 -0.326933 -1.17236
33.1254 28.4192 6.97955 1.82443 1.51718 0.176551
24.559 30.8121 8.93764 0.372547 -0.4187 0.898583
28.5797 31.4488 8.80594 -2.54793 0.360412 -0.629103
9.52442 9.14237 12.0048 -0.313089 2.4205 0.981935
11.7973 7.62758 11.0916 -0.421198 -2.24513 1.03074
13.5451 9.77901 11.8731 0.426748 1.23315 -3.11992
15.818 8.26422 10.9599 0.383189 -0.0422256 1.29328
13.6159 8.77388 9.17509 0.97334 -1.17246 -0.442282
18.0201 7.75455 12.7447 -0.679283 2.262 -0.515172
19.8387 8.90086 10.8282 1.4704 0.0278528 3.52877
22.0408 8.39119 12.613 -0.646657 1.36252 0.506033
23.8594 9.5375 10.6965 -0.329809 2.60763 -0.311009
26.0615 9.02783 12.4813 -0.278553 0.571772 0.349609
30.0822 9.66448 12.3496 0.427259 0.108072 0.0598307
6.79734 13.3183 11.9147 0.531306 1.1485 -0.865044
11.2723 11.2938 12.7863 0.849418 -1.21289 -0.808261
9.07019 11.8035 11.0015 1.89131 -0.437818 -1.06409
10.818 13.9549 11.783 -1.20079 -0.0498559 -0.309307
11.3431 10.2887 10.0883 1.05711 -0.794839 0.0772979
10.8888 12.9498 9.08498 -0.0896283 -0.687204 0.361742
15.293 11.9304 12.6546 -1.15289 1.02768 1.69835
13.0909 12.4401 10.8698 -0.831186 -2.13034 0.204207
15.3638 10.9253 9.95658 2.26301 -0.869984 -0.729281
17.5658 10.4157 11.7414 -0.71298 -0.205125 1.53069
19.3137 12.5671 12.5229 2.40417 1.70457 1.26755
17.1116 13.0768 10.7381 -0.0110979 -1.03505 0.77524
19.3845 11.562 9.82488 -2.3903 -2.91951 0.293493
21.5866 11.0523 11.6097 1.67455 -0.657121 2.31043
23.3344 13.2037 12.3912 0.234456 0.153318 -1.07818
21.1323 13.7134 10.6064 0.56299 -0.805354 0.129392
23.4052 12.1986 9.69318 0.723921 -1.11103 1.29665
25.6073 11.6889 11.478 -1.00192 -1.90515 -0.330618
27.3551 13.8404 12.2595 0.0509633 -2.12745 -0.382704
27.8801 10.1741 10.5648 0.217318 0.624287 -0.178538
27.4259 12.8352 9.56148 -3.21919 -1.20869 0.205583
29.628 12.3256 11.3463 0.890626 0.923236 -0.283354
31.9008 10.8108 10.4331 0.261376 2.35318 -1.94277
31.4466 13.4719 9.42978 0.455172 -0.192425 1.46905
34.1029 10.3011 12.2179 1.14095 1.55525 0.946409
33.6487 12.9622 11.2146 1.177 0.106368 -1.85719
6.34311 15.9794 10.9114 0.92399 -0.255502 -0.0125334
8.09097 18.1308 11.6929 1.29779 -0.576957 -0.505393
8.54519 15.4697 12.6962 0.791916 0.505545 0.221815
8.61597 14.4646 9.99817 0.0278014 -1.01532 1.56434
10.3638 16.616 10.7797 -1.16595 0.272137 1.4455
12.5659 16.1063 12.5645 -0.82269 0.610641 1.27934
14.8388 14.5915 11.6513 -0.164496 2.39471 -1.11542
12.6367 15.1012 9.86647 -0.148042 -1.32865 0.594268
14.3845 17.2526 10.648 -0.517249 -1.93835 -0.669581
16.5866 16.743 12.4328 0.858524 0.304168 0.338565
18.8595 15.2282 11.5196 2.55377 -1.57857 -1.8034
16.6574 15.7379 9.73477 2.30971 -1.52021 -0.38142
18.4053 17.8893 10.5163 -0.943534 0.471522 0.359366
20.6073 17.3796 12.3011 0.773661 -0.0383906 0.122309
22.8802 15.8648 11.3879 -0.992425 -0.970145 0.448157
20.6781 16.3745 9.60307 0.199451 2.55012 -1.41409
24.628 18.0163 12.1694 -0.669347 -3.49482 -2.75939
25.153 14.35 10.4747 -1.05669 0.740302 -0.0017812
26.9009 16.5015 11.2562 -1.49018 -2.29969 -1.39526
24.6988 17.0111 9.47137 -2.02098 0.153924 -0.462348
31.3758 14.477 12.1278 1.28099 0.361156 -0.912382
29.1738 14.9867 10.343 -0.846238 -0.795809 0.253263
30.9216 17.1381 11.1245 0.94514 -2.89336 0.555684
28.7195 17.6478 9.33966 -1.90737 -1.57071 -1.22585
35.3966 15.1137 11.9961 1.85211 -1.17628 0.519384
33.1945 15.6233 10.2113 0.0579428 0.94903 -1.6337
34.9423 17.7748 10.9928 0.941328 -2.42603 -3.05682
32.7403 18.2844 9.20796 -2.08692 -1.20413 -0.400911
5.81811 19.6456 12.606 1.06104 0.769948 -1.40641
5.36388 22.3067 11.6027 1.52962 -0.374584 0.617441
5.88889 18.6405 9.90806 -0.106 -0.473784 -0.259234
7.63674 20.7919 10.6895 0.979543 1.23664 1.09879
9.83882 20.2822 12.4743 -1.76447 0.689477 -0.0774731
12.1117 18.7674 11.5612 -0.442831 -2.01304 -2.26732
9.9096 19.2771 9.77636 0.223076 2.6385 -0.385863
11.6575 21.4285 10.5578 0.671176 0.0719657 1.66748
13.8595 20.9189 12.3426 0.168719 -1.22929 0.222468
16.1324 19.4041 11.4294 0.132669 0.0515557 0.413251
13.9303 19.9138 9.64466 -0.971191 0.32356 -0.345101
15.6782 22.0652 10.4261 2.2378 -1.24896 1.08115
17.8803 21.5555 12.2109 -1.82577 -0.682876 0.628574
20.1531 20.0407 11.2977 -1.15724 -0.247112 -0.0637968
17.951 20.5504 9.51295 -0.660503 -0.698836 -0.808581
21.901 22.1922 12.0792 -0.651989 2.35172 -0.971427
22.426 18.5259 10.3846 -0.138375 -1.8126 -0.799808
24.1738 20.6774 11.166 -0.966128 1.40807 0.944111
21.9717 21.187 9.38125 0.434013 -0.782192 -0.401656
26.4467 19.1626 10.2529 -0.627653 -0.721878 0.42998
28.1945 21.314 11.0343 -0.637015 -0.400572 1.5507
25.9925 21.8237 9.24955 0.86038 0.704769 -1.42998
28.6488 18.6529 12.0377 0.331048 0.665728 -0.461089
30.3966 20.8043 12.8191 -0.590499 0.624382 -0.271133
30.4674 19.7992 10.1212 -0.49561 -1.46991 -0.623506
32.2153 21.9507 10.9026 0.00099283 -0.765205 0.00404245
30.0132 22.4603 9.11785 -1.10346 -0.871146 -0.221347
32.6695 19.2895 11.9059 -0.779838 0.381152 1.97386
34.4173 21.441 12.6874 0.848683 0.0265409 0.424326
34.4881 20.4359 9.98945 -2.71914 0.152733 -0.313691
7.11174 24.4581 12.3842 1.71066 -0.529288 0.563892
4.90966 24.9678 10.5994 -0.332032 -2.26053 0.201008
7.18252 23.453 9.68624 -0.685723 -0.154454 -0.137574
9.3846 22.9433 11.471 0.456897 0.430021 -0.711062
11.1325 25.0948 12.2525 0.327111 2.52238 -1.12706
8.93037 25.6044 10.4677 0.778791 -0.362416 1.77154
11.2032 24.0896 9.55454 -0.217082 1.10443 -1.38665
13.4053 23.58 11.3393 1.17479 -0.123273 0.188756
15.1532 25.7314 12.1208 0.692539 0.724455 1.76577
12.9511 26.2411 10.336 -0.0407053 1.24918 1.17374
15.2239 24.7263 9.42284 0.613239 -1.76271 -2.0069
17.426 24.2166 11.2076 -1.95912 0.688803 0.23595
19.1739 26.3681 11.9891 -0.431017 -0.0894588 -0.421067
19.6989 22.7018 10.2944 -0.100424 0.0722634 -0.76545
19.2447 25.3629 9.29114 -0.941442 -0.224 0.85894
21.4467 24.8533 11.0759 -2.4907 1.82999 -1.15577
23.7196 23.3385 10.1627 -0.338239 0.55446 -1.19062
23.2654 25.9996 9.15944 0.176746 -0.380166 -1.06542
25.9217 22.8288 11.9475 -1.07365 -0.652128 0.17162
27.6695 24.9802 12.729 0.918003 0.534785 1.77716
25.4675 25.4899 10.9442 -1.83718 1.07236 0.923053
27.7403 23.9751 10.031 -1.2157 -1.64532 -1.16073
29.9424 23.4654 11.8158 -0.135391 -1.04704 0.322596
31.6902 25.6169 12.5973 -1.52018 0.894366 -0.10823
29.4882 26.1265 10.8125 -0.780839 0.591102 0.232935
31.761 24.6118 9.89934 0.252284 -1.96585 -2.05202
33.9631 24.1021 11.6841 0.355 -1.07468 -2.72037
6.65752 27.1192 11.3809 1.40676 -0.443121 -1.24548
8.40537 29.2707 12.1624 0.805049 0.364869 -0.216153
10.6782 27.7559 11.2492 -2.37893 -1.90048 -1.64717
12.4261 29.9073 12.0307 -0.5606 1.43097 2.67213
8.47615 28.2655 9.46444 0.261207 -1.58734 -0.716955
10.224 30.417 10.2459 -0.797962 0.624492 -0.566876
14.6989 28.3925 11.1175 -0.304026 1.06596 0.612342
12.4969 28.9022 9.33274 1.64699 -1.08935 -0.681337
16.4468 30.544 11.899 -0.2319 0.296424 -0.866769
16.9718 26.8777 10.2043 -0.320955 -0.402773 0.525413
18.7197 29.0292 10.9858 -0.364451 -2.19313 0.958595
16.5176 29.5388 9.20104 -1.66231 -0.716491 1.92961
20.9217 28.5195 12.7706 -1.09347 -0.949471 -0.797095
23.1946 27.0047 11.8574 -0.0975925 -0.717376 -1.38469
20.9925 27.5144 10.0726 0.476722 1.08658 1.14428
22.7404 29.6658 10.8541 -0.673595 1.42308 -0.101346
20.5383 30.1755 9.06934 1.4778 -2.37863 -0.0345757
24.9425 29.1561 12.6389 -0.899318 1.21392 -0.753189
27.2153 27.6413 11.7257 0.07574 0.555859 0.172369
25.0132 28.151 9.94093 1.25567 0.806025 0.242781
26.7611 30.3024 10.7224 -0.125481 0.754673 -1.91007
28.9632 29.7928 12.5072 -0.30409 1.30619 -0.840438
31.236 28.278 11.594 -0.414678 -0.382009 0.945458
29.0339 28.7877 9.80923 0.0760692 -1.08611 1.78564
32.9839 30.4294 12.3755 -0.299869 -0.974178 0.583513
33.5089 26.7632 10.6808 0.727755 -0.71411 -1.74675
33.0547 29.4243 9.67753 -0.812257 -1.60349 0.577583
11.9719 32.5684 11.0274 -0.609944 -2.06098 -0.686078
14.1739 32.0587 12.8122 1.51744 -1.1997 -0.554837
13.7197 34.7198 11.8089 0.161152 -0.673794 -0.158124
14.2447 31.0536 10.1142 0.952346 0.625069 -0.861113
15.9926 33.2051 10.8957 -0.439004 0.415596 0.256737
18.1947 32.6954 12.6805 0.350168 -1.33819 0.0723866
18.2654 31.6903 9.98253 -0.318972 -0.310282 -0.0928068
20.0133 33.8417 10.764 -0.947262 -0.15659 -0.625101
20.4675 31.1806 11.7673 -0.562007 0.431609 0.747292
22.2154 33.332 12.5488 0.215023 0.123642 0.670115
22.2861 32.3269 9.85083 0.11083 -0.663355 -1.00815
24.034 34.4783 10.6323 -2.59556 -0.530873 0.420466
24.4882 31.8172 11.6356 0.559026 1.07079 0.309891
26.2361 33.9687 12.4171 -0.637065 -0.66888 0.416565
26.3069 32.9635 9.71913 1.58127 0.84166 -1.2152
28.5089 32.4539 11.5039 -0.218214 0.451397 0.213826
30.7818 30.9391 10.5907 0.446913 0.599132 -1.47087
15.4676 36.8713 12.5904 -0.270377 -0.604233 1.44266
17.7404 35.3565 11.6772 1.16146 0.161412 1.38367
19.4883 37.5079 12.4587 -0.0547438 2.3669 1.24743
21.7611 35.9931 11.5455 1.15584 1.64701 0.881655
8.16001 5.33496 14.9246 -1.3859 -0.476067 -0.603011
14.3828 5.46193 16.5777 2.1877 0.185772 -0.376769
7.70578 7.99606 13.9213 0.563098 0.245265 0.286911
9.90786 7.48639 15.7061 0.987403 -1.44805 -1.67907
11.6557 9.63783 16.4875 -1.25534 -0.517971 -1.88029
12.1807 5.9716 14.7929 0.247611 -1.2757 0.76954
9.97864 6.48127 13.0081 -0.469044 0.690251 -1.43693
11.7265 8.6327 13.7896 3.05176 -0.684244 0.388623
13.9286 8.12303 15.5744 0.0753343 -0.152359 -0.335004
16.2014 6.60824 14.6612 -1.53085 0.950551 1.44115
13.9994 7.11791 12.8764 1.85655 1.10465 1.67787
15.7472 9.26934 13.6579 1.48659 -0.505339 -2.00094
17.9493 8.75967 15.4427 -0.529277 1.47023 -0.519508
20.2221 7.24488 14.5295 0.68352 -0.456171 1.74935
19.7679 9.90599 13.5262 -0.347447 0.276593 -0.516586
18.4035 6.09857 16.446 0.111763 0.649129 -0.101504
21.97 9.39632 15.311 0.935006 0.140011 0.963994
24.2429 7.88152 14.3978 1.03365 1.01485 -0.135266
22.4242 6.73521 16.3143 -1.89906 -0.423876 1.49321
25.9907 10.033 15.1793 0.0933331 -0.734117 1.37596
28.2636 8.51817 14.2661 -0.228616 -1.13042 0.813043
26.4449 7.37185 16.1826 -2.44705 -0.389064 0.335365
32.2843 9.15481 14.1344 0.537662 -0.640338 0.773404
30.4657 8.0085 16.0509 1.24855 0.490712 -0.385335
36.305 9.79145 14.0027 -0.31912 2.05902 0.10443
34.4864 8.64514 15.9192 0.800302 -0.839292 -2.63576
7.18078 11.6623 15.6159 0.0973165 1.72996 2.09164
7.25156 10.6572 12.918 1.47959 -0.588571 -0.896479
8.92864 13.8137 16.3974 0.8015 -0.234281 0.422084
9.45364 10.1475 14.7028 -2.49185 0.575308 0.832395
11.2015 12.2989 15.4842 0.114032 0.205717 -1.51689
8.99941 12.8086 13.6995 2.00303 -1.5129 -1.648
15.6764 10.2745 16.3558 -0.81782 -0.136423 1.7897
13.4744 10.7841 14.5711 0.465575 0.938106 0.245233
15.2222 12.9356 15.3525 -0.412399 -2.43945 -2.43021
13.0201 13.4452 13.5677 -1.15374 -1.82164 -1.21034
19.6971 10.9111 16.2241 0.673823 0.238717 -1.26355
17.4951 11.4208 14.4394 0.159542 0.392148 -0.667437
19.2429 13.5722 15.2208 1.43184 0.12939 -1.17036
17.0408 14.0819 13.436 0.733176 1.10789 0.0614924
23.7179 11.5478 16.0924 3.55627 -0.659757 0.433838
21.5158 12.0574 14.3077 0.228806 0.520824 -0.0126852
23.7886 10.5426 13.3945 0.20943 1.64434 -0.490206
27.7386 12.1844 15.9607 0.755684 0.722532 1.13882
25.5365 12.6941 14.1759 -0.702581 -2.19112 -0.28111
27.8094 11.1793 13.2628 0.682053 0.896571 -0.610095
30.0114 10.6696 15.0476 -0.306325 -0.322529 0.245003
31.7593 12.821 15.829 1.09512 0.420387 0.883557
29.5572 13.3307 14.0442 1.53095 2.11654 1.14089
31.8301 11.8159 13.1311 -0.602039 -2.02436 -1.60548
34.0321 11.3062 14.9159 -1.06898 -0.53831 0.340487
35.78 13.4577 15.6973 -0.379784 -0.133609 2.86647
33.5779 13.9673 13.9125 -1.28351 1.08084 -1.20762
35.8508 12.4526 12.9994 -0.483908 2.59568 0.605998
6.20155 17.9896 16.3073 2.60552 -0.377508 0.518123
6.72656 14.3234 14.6126 1.2117 0.484059 0.911847
6.27233 16.9845 13.6093 -1.65108 0.693103 2.95372
8.47441 16.4748 15.3941 -1.72133 -0.495259 0.242979
10.7473 14.96 14.4809 0.676541 -0.0199545 1.86799
10.293 17.6211 13.4776 0.570168 1.64634 -0.0793092
12.9494 14.4504 16.2657 -1.02401 0.359846 -0.490597
12.4951 17.1115 15.2624 -0.021962 -0.36213 -0.564301
14.768 15.5967 14.3492 0.961044 0.0204153 1.96421
14.3138 18.2578 13.3459 0.2338 0.121072 0.611172
16.9701 15.087 16.134 -0.497812 -0.815483 -0.445966
16.5158 17.7481 15.1307 1.42579 0.662734 0.0645777
18.7887 16.2333 14.2175 -1.597 0.461106 0.584648
20.9908 15.7236 16.0023 -1.45666 0.262274 -1.16221
23.2636 14.2089 15.0891 1.02385 -1.17274 -0.0985321
21.0616 14.7185 13.3043 -3.25419 -1.03526 0.420815
22.8094 16.87 14.0858 1.6126 1.6813 -1.56112
25.0115 16.3603 15.8706 -0.380941 -0.558694 1.82346
27.2844 14.8455 14.9574 1.4405 -0.262857 0.409329
25.0823 15.3552 13.1726 -1.66606 0.285893 -1.51208
26.8301 17.5066 13.9541 -0.751048 -0.557401 2.22678
29.0322 16.9969 15.7389 0.714361 -0.127667 0.97163
31.3051 15.4821 14.8257 1.67729 -0.895617 0.726541
29.103 15.9918 13.0409 0.826196 -1.50963 -0.861423
30.8508 18.1432 13.8224 1.69041 -0.146625 -0.666833
33.5071 14.9725 16.6105 -0.0686349 2.30643 0.191771
33.0529 17.6336 15.6072 -0.95898 -0.603099 -0.31229
35.3258 16.1188 14.694 1.36837 0.134264 -0.0942938
33.1237 16.6284 12.9092 -0.314307 -0.164335 -0.932301
5.74733 20.6507 15.304 -1.51371 0.468262 2.06046
8.02019 19.1359 14.3908 0.279213 0.605906 1.05757
7.56597 21.797 13.3875 -0.562301 -2.99946 -0.32988
10.2223 18.6263 16.1756 -1.22655 0.65792 -1.19674
9.76805 21.2874 15.1723 1.05934 -1.74851 -0.347791
12.0409 19.7726 14.2591 0.366107 -0.790545 0.0240973
11.5867 22.4337 13.2558 -0.147855 1.2984 -0.14025
14.243 19.2629 16.0439 0.0964586 -0.490878 -0.809307
13.7888 21.924 15.0406 -0.883558 0.245972 -1.70922
16.0616 20.4092 14.1274 1.90277 -0.431281 -0.813785
18.2637 19.8995 15.9122 0.673707 -2.20802 1.51844
18.3345 18.8944 13.2142 -0.329548 0.207657 -0.0986836
20.0823 21.0459 13.9957 0.455021 1.05007 -0.660825
20.5366 18.3848 14.999 -0.575233 -1.1481 -0.796453
22.2844 20.5362 15.7805 0.552051 -0.442414 1.40036
22.3552 19.5311 13.0825 -0.871339 0.00276498 0.00320192
24.103 21.6825 13.864 -0.505595 1.59231 -0.702766
24.5573 19.0214 14.8673 1.21637 -0.652145 -0.11818
26.3051 21.1728 15.6488 0.567509 -1.56848 0.595675
26.3759 20.1677 12.9508 -2.68648 -0.19393 -1.71015
28.1238 22.3191 13.7323 1.52158 -0.150998 -1.55866
30.7801 19.1484 16.5204 0.130611 -0.934492 0.693613
28.578 19.658 14.7356 -0.337216 0.642612 0.0884822
30.3258 21.8095 15.5171 -2.17108 0.231638 -0.571551
34.8008 19.785 16.3887 -2.26469 -2.03501 1.20014
32.5987 20.2947 14.6039 -0.346377 0.468023 -0.542167
34.3466 22.4461 15.3854 -0.171677 3.52713 -0.567795
34.8716 18.7799 13.6907 0.975505 0.475098 -1.12446
7.49519 22.8022 16.0855 1.242 -0.454516 1.39875
5.29311 23.3118 14.3007 -0.263204 0.114014 2.06647
7.04096 25.4633 15.0822 -0.397408 -1.94694 0.100139
4.83888 25.9729 13.2974 -0.964196 1.84151 -1.1408
11.5159 23.4388 15.9538 0.907926 -0.900858 2.86004
9.31382 23.9485 14.169 0.270401 1.45422 0.558771
11.0617 26.0999 14.9505 1.87329 1.86805 -0.623324
15.5366 24.0754 15.8221 0.0574446 -1.78065 -0.874791
13.3345 24.5851 14.0373 -2.23491 -0.362376 1.25479
15.6074 23.0703 13.1241 0.458475 1.51656 0.0965391
17.2845 26.2269 16.6036 -0.924987 0.367143 0.0282401
17.8095 22.5606 14.9089 0.943409 0.446352 -0.970044
19.5573 24.7121 15.6904 0.311063 0.526722 -0.740178
17.3552 25.2217 13.9056 -1.13293 -0.0441901 -1.55968
19.6281 23.707 12.9924 -1.9033 1.06153 0.610205
24.0323 22.6876 16.562 0.180692 2.16193 -0.825374
21.8302 23.1973 14.7772 -0.585995 0.135385 -1.63129
23.578 25.3487 15.5587 -0.609628 -2.10274 -0.764724
21.376 25.8584 13.7739 1.74936 -0.781721 -1.27152
23.6488 24.3436 12.8607 1.12773 1.27803 1.56063
28.053 23.3243 16.4303 -0.959703 -1.10075 -0.728223
25.8509 23.8339 14.6455 -0.0919428 0.203814 -1.07318
27.5988 25.9854 15.427 0.550018 -0.18264 1.6714
25.3967 26.495 13.6422 1.17304 1.24397 0.498797
32.0737 23.9609 16.2986 -0.0337284 0.749258 -1.51309
29.8716 24.4706 14.5138 -1.17232 -0.665189 0.670642
32.1445 22.9558 13.6006 1.3761 0.113829 -0.846779
33.8923 25.1072 14.3821 -1.62295 1.4118 1.68392
4.76811 26.978 15.9954 -0.201399 0.0972408 -1.83789
6.58674 28.1244 14.0789 0.0864275 0.0743807 -0.784916
8.3346 30.2758 14.8604 -1.03651 -0.47605 -1.70228
8.78882 27.6147 15.8637 -0.653372 0.366951 -2.0465
8.8596 26.6096 13.1657 1.15905 -1.36946 0.00501315
10.6075 28.761 13.9472 0.110878 0.785906 2.13669
12.8095 28.2513 15.732 -0.642569 -0.809413 0.0172394
14.5574 30.4028 16.5135 -0.703796 -0.794462 0.499727
15.0824 26.7365 14.8188 0.314616 0.609866 0.962686
12.8803 27.2462 13.034 -0.25445 0.68817 -1.67744
14.6282 29.3976 13.8155 -0.569335 2.31674 0.823153
16.8302 28.888 15.6003 0.488876 -1.2765 -1.09183
19.1031 27.3732 14.6871 -1.14 1.40751 -0.435134
16.901 27.8829 12.9023 -0.758332 1.09312 -2.01131
18.6489 30.0343 13.6838 1.97361 -0.920187 0.251148
21.3052 26.8635 16.4719 0.219606 0.627251 -2.56377
20.851 29.5246 15.4686 0.856701 0.725501 1.45743
23.1238 28.0098 14.5554 -0.619325 1.20252 1.94493
22.6696 30.6709 13.5521 -0.310744 0.762264 1.8873
25.3259 27.5002 16.3402 -0.27901 -1.35072 -0.693127
24.8717 30.1613 15.3369 -0.571315 0.349565 0.780077
27.1445 28.6465 14.4237 -0.870816 -0.208336 0.495838
29.3466 28.1368 16.2085 0.0177549 1.2142 2.14168
31.6195 26.622 15.2953 -0.372951 0.62835 0.786996
29.4174 27.1317 13.5105 0.90298 0.25648 1.57284
31.1652 29.2831 14.292 -1.16329 -0.771341 0.603163
33.3673 28.7734 16.0768 0.820888 1.21818 -0.877835
33.4381 27.7683 13.3788 -0.460882 -0.10633 0.590496
10.0825 32.4272 15.6419 -0.35049 -1.85581 -0.0380837
11.8303 34.5787 16.4234 1.96331 -0.355119 -1.46044
12.3553 30.9124 14.7287 1.0432 -0.80877 -0.548929
10.1532 31.4221 12.9439 1.74907 -1.92472 0.0599639
11.9011 33.5735 13.7254 1.0008 -1.10084 -1.81904
14.1032 33.0639 15.5102 0.855836 0.440244 -0.200751
16.376 31.5491 14.597 -0.230276 -0.119933 3.21039
15.9218 34.2102 13.5937 -1.11357 1.86212 -0.333692
18.5781 31.0394 16.3818 -1.04301 3.14797 -2.40501
18.1239 33.7005 15.3785 0.168108 1.20631 -1.05079
19.9425 34.8468 13.462 0.666028 1.36465 -1.33167
22.5988 31.6761 16.2501 2.23734 -0.219812 0.0526919
20.3967 32.1857 14.4653 1.7149 0.678812 0.584668
22.1446 34.3372 15.2468 -0.857709 -2.48803 3.01503
26.6195 32.3127 16.1184 -1.86077 -2.31673 1.7686
24.4175 32.8224 14.3336 -0.439484 -0.34348 0.722768
26.6903 31.3076 13.4204 -0.124695 1.04264 0.923586
28.8924 30.7979 15.2052 0.672868 0.872025 0.328635
30.6402 32.9493 15.9867 -2.62283 -0.498258 1.36631
28.4382 33.459 14.2019 -1.12957 -2.10106 -0.330065
30.711 31.9442 13.2887 0.412766 0.313335 -0.725384
32.9131 31.4345 15.0735 0.819116 -0.195605 -1.20293
15.851 35.2153 16.2917 0.50737 0.626302 -0.0529582
13.6489 35.725 14.5069 -2.41648 1.08499 -1.79386
15.3968 37.8764 15.2884 -0.579471 -1.41311 1.93399
19.8717 35.8519 16.16 -0.910529 0.0691423 -1.05493
17.6697 36.3616 14.3752 0.557818 2.98005 -0.310999
19.4175 38.5131 15.1567 1.25364 0.353793 -0.0364824
17.2154 39.0227 13.3719 1.35351 0.503979 -1.24276
23.8924 36.4886 16.0283 -3.42261 0.163814 -1.06601
21.6904 36.9983 14.2435 0.82498 0.709879 -1.79847
23.9632 35.4835 13.3303 0.25836 0.60696 -0.8072
26.1653 34.9738 15.1151 0.529109 0.058815 1.41494
10.3621 4.82529 16.7094 1.20583 0.690851 0.537908
10.2913 5.83041 19.4073 0.477333 -0.640511 -0.616138
12.5642 4.31562 18.4942 2.24251 -0.310099 0.761348
14.7662 3.80595 20.2789 -0.507802 0.206802 0.269856
16.5849 4.95226 18.3625 -1.56086 0.435464 -3.00875
18.787 4.4426 20.1472 1.62265 0.106933 0.690726
20.6056 5.5889 18.2308 0.260245 1.15406 0.200512
22.8077 5.07924 20.0155 0.993679 2.68322 0.588427
26.8284 5.71588 19.8838 0.101202 0.0201252 -3.28942
7.63501 9.00118 16.6192 0.775111 -0.895425 1.77798
7.56423 10.0063 19.3172 -1.15834 -1.05785 -1.19957
8.08923 6.34008 17.6226 1.03236 1.55921 -0.656449
8.01845 7.3452 20.3205 -0.514359 0.275616 1.66935
9.83709 8.49152 18.404 1.18635 -0.189036 1.32301
12.1099 6.97672 17.4909 -0.942779 0.865063 -1.32776
12.0392 7.98185 20.1888 0.880111 0.396488 0.665231
13.8578 9.12816 18.2723 -0.825429 0.468997 -1.07345
16.1307 7.61336 17.3592 -0.098825 0.0236872 -0.19365
14.312 6.46705 19.2756 1.02024 1.21533 -0.618276
16.0599 8.61849 20.0571 -0.595743 1.09755 -1.07288
17.8785 9.7648 18.1406 -0.617913 -1.01043 0.262566
20.1514 8.25001 17.2274 0.466181 0.517812 0.891122
18.3327 7.1037 19.1439 -0.474185 1.72662 0.303878
20.0806 9.25513 19.9254 0.685219 -1.61745 -0.481262
24.1721 8.88665 17.0957 1.09786 0.161209 0.821654
22.3535 7.74034 19.0122 -0.212218 0.243752 0.152665
24.1013 9.89177 19.7937 -0.9627 -1.0556 -0.370151
28.1928 9.52329 16.964 0.362656 -1.08695 -2.03802
24.6263 6.22554 18.0991 -0.560688 -2.72014 -1.36939
26.3742 8.37698 18.8805 -0.46867 -0.755712 0.643593
28.647 6.86219 17.9674 1.20112 3.77397 0.0514988
30.3949 9.01362 18.7488 -0.440631 -0.22925 -1.9572
30.8491 6.35252 19.7521 -1.99324 -0.842737 -0.288256
32.6677 7.49883 17.8357 -0.155496 -0.339956 -0.624795
34.4156 9.65026 18.6171 -0.411325 -0.800621 2.24417
7.11 12.6674 18.3139 0.0912233 0.330706 1.28652
9.38286 11.1526 17.4007 1.71906 -0.63354 0.075227
11.1307 13.3041 18.1822 2.45171 -1.0737 -0.481382
9.31208 12.1577 20.0987 -0.963744 -0.0160695 1.22492
11.5849 10.643 19.1855 -1.14693 0.290699 -0.00929293
13.4036 11.7893 17.269 0.246073 0.793878 -1.02591
15.1514 13.9407 18.0505 -1.16555 0.556882 0.574156
13.3328 12.7944 19.967 0.389003 -0.260401 1.0676
15.6057 11.2796 19.0538 0.410899 1.85246 0.020905
17.4243 12.4259 17.1373 0.292798 -0.561275 -0.135395
17.3535 13.431 19.8353 0.789665 -0.953686 -0.421303
19.6264 11.9162 18.9221 -2.17884 -0.849104 0.838239
21.445 13.0625 17.0056 -0.293291 -0.643287 -1.38941
21.3742 14.0677 19.7036 1.73036 1.01069 2.05409
21.8992 10.4014 18.0089 -0.809236 0.317754 0.700136
23.6471 12.5529 18.7904 -0.817812 -0.942061 -0.530406
25.4657 13.6992 16.8739 0.410655 0.732713 0.452177
25.9199 11.0381 17.8772 0.661927 -1.44101 1.08155
27.6678 13.1895 18.6587 -1.10233 -0.584208 -0.240668
28.122 10.5284 19.662 0.860169 0.682387 0.0467709
29.9407 11.6747 17.7455 -1.19006 -0.860899 0.834317
31.6885 13.8262 18.527 0.522526 1.35853 0.685749
32.2135 10.1599 16.8323 0.0238728 1.60999 -0.101689
32.1427 11.1651 19.5303 3.07763 0.532942 0.838713
33.9614 12.3114 17.6138 -0.986109 -0.259907 0.675619
36.2342 10.7966 16.7006 0.0664854 2.11448 -0.102283
33.8906 13.3165 20.3118 -1.04617 -0.256079 -1.8447
36.1635 11.8017 19.3986 1.72114 -0.257555 -0.705359
6.585 16.3336 20.0086 1.08442 -0.149396 0.883955
6.65578 15.3285 17.3106 -1.44388 -1.28971 0.277293
8.40364 17.48 18.0921 0.114378 -1.74249 -0.504978
8.85786 14.8188 19.0954 -0.415603 -1.19821 0.0299964
10.6057 16.9703 19.8769 -2.74167 -1.77443 -0.230944
10.6765 15.9652 17.1789 0.808185 -1.18533 0.438466
12.4243 18.1166 17.9604 0.756382 2.08042 -0.479982
12.8786 15.4555 18.9637 0.352334 -1.86286 0.253986
14.6264 17.6069 19.7452 1.11741 1.59111 -1.76478
14.6972 16.6018 17.0472 0.568132 -1.0769 1.16297
16.8993 16.0921 18.832 -1.15674 -0.567439 -1.15779
18.6471 18.2436 19.6135 0.612153 0.198537 1.82859
19.1721 14.5773 17.9188 0.278465 0.894393 1.32957
18.7179 17.2384 16.9155 -0.364821 -2.54587 1.2835
20.92 16.7288 18.7003 0.305476 -0.167567 0.904658
23.1929 15.214 17.7871 -0.335614 -0.00917291 0.889073
22.7386 17.8751 16.7838 1.15824 0.83809 -0.302346
24.9407 17.3654 18.5686 -1.11266 -0.410306 -1.42061
27.2136 15.8506 17.6554 1.53182 1.00149 0.44981
25.3949 14.7043 19.5719 -0.197777 0.443072 -0.451619
27.1428 16.8557 20.3534 1.55545 -0.590571 -1.75402
28.9614 18.0021 18.4369 -0.910306 -0.450694 1.97689
29.4864 14.3358 16.7422 1.14549 -0.0812321 -0.0506717
31.2343 16.4873 17.5237 -0.388762 0.206071 -0.0587196
29.4157 15.341 19.4402 1.72034 1.37488 -0.0433704