ITEM: TIMESTEP
0
ITEM: NUMBER OF ATOMS
17
ITEM: BOX BOUNDS ss ss ss
1.8106374447868880e+01 2.2836300093044514e+01
1.7432440610408385e+01 2.3307917488888410e+01
1.7396551342024587e+01 2.3240100161359415e+01
ITEM: ATOMS x y z vx vy vz
18.1105 20.2573 20.5616 1.13423 -0.0558444 1.11753
21.2685 17.4365 19.9371 1.0791 -0.242489 0.0803379
21.3106 20.0887 23.236 2.08591 -1.20994 -0.547142
18.8052 19.2527 22.8182 -0.568851 1.7917 -2.15762
20.032 23.2552 18.3666 -2.71595 1.04441 0.122403
22.4551 22.2481 18.9318 0.189921 0.123836 -1.67832
22.4237 21.2631 21.2503 1.02345 1.0677 0.279184
22.1721 19.7017 19.1897 1.64821 0.141856 0.622199
19.4992 21.62 22.1694 -2.24345 1.18439 0.933243
18.3441 22.7443 20.2593 -0.525912 0.111626 -0.186347
20.7743 17.5967 22.4492 -2.11211 -0.789985 0.786429
22.8322 18.8132 21.5072 0.842202 -0.587673 -0.115092
20.8819 21.0035 17.4006 0.730404 -0.790898 0.580745
18.4143 21.2243 18.1773 -0.213644 -1.1262 1.27998
19.6872 19.1237 18.7705 0.351447 -0.720881 -0.542075
18.7852 17.7822 20.7675 -1.57267 0.739642 -1.232
20.919 23.3038 20.9227 0.867728 -0.681245 0.656544
ITEM: TIMESTEP
1000
ITEM: NUMBER OF ATOMS
17
ITEM: BOX BOUNDS ss ss ss
1.8322806541924557e+01 2.2441678966742828e+01
1.7432939514386913e+01 2.3456802145490702e+01
1.7260020850351200e+01 2.3290216219678150e+01
ITEM: ATOMS x y z vx vy vz
20.3993 20.4266 20.2504 0.541894 0.119882 -0.177467
21.2137 17.2471 19.8324 -0.490055 -0.201567 1.93991
21.0538 20.3555 23.4537 3.09609 -1.96583 -0.470195
18.6497 19.4228 22.9376 -1.22832 5.78892 0.0776534
19.7303 22.7686 18.76 1.67806 -1.18206 1.42657
22.2789 22.0127 19.207 1.04292 0.395501 0.630475
22.5689 21.7955 21.8099 -0.252634 2.05957 2.02217
22.5148 19.3215 18.5936 1.72005 -2.50669 -1.34908
19.2845 21.7014 22.5243 -0.655571 -0.753138 0.290127
18.25 22.5966 20.5148 -1.64616 -0.0500629 2.52067
20.2724 17.8383 22.0878 0.119674 2.87486 -3.45817
22.5402 19.0676 21.3203 0.963213 -0.11375 0.276623
20.5789 20.8125 17.1561 -0.0978902 2.15967 -0.525398
18.1925 20.6647 18.7496 -2.00421 -2.27496 1.37375
19.8111 18.5601 17.9886 0.618778 -2.3575 -2.07958
18.4699 18.6375 20.3861 -0.768568 1.52947 -1.53728
20.9061 23.4861 21.143 -2.63726 -3.52232 -0.960782
ITEM: TIMESTEP
2000
ITEM: NUMBER OF ATOMS
17
ITEM: BOX BOUNDS ss ss ss
1.8136121905798241e+01 2.3546055071976824e+01
1.7565943240001708e+01 2.3471139342180674e+01
1.7320340849408733e+01 2.2610097408938568e+01
ITEM: ATOMS x y z vx vy vz
20.3017 20.6789 20.3778 -3.72436 0.155378 0.727896
21.6815 17.9984 20.3408 1.00112 -1.68842 0.899471
20.7894 19.2745 22.772 0.00391995 -2.11768 0.0137666
18.3514 19.8136 22.8045 0.786944 1.30785 1.06847
19.7229 22.7415 18.793 1.50978 -0.289792 -1.61547
22.362 22.0077 19.0656 -1.51902 1.34721 -0.559
22.2697 21.7863 21.8196 -1.89562 3.74313 1.44259
22.6937 19.436 18.3253 0.73162 -0.886837 -0.741245
19.794 22.2877 22.8372 -0.580746 -1.83415 -1.82774
18.2896 21.9025 20.8196 1.71349 0.53773 1.14621
18.7871 17.3671 22.6258 -0.222737 1.58961 -0.647648
23.1481 19.8335 20.665 -0.207509 -2.35042 -0.626425
20.679 20.8972 17.1278 -0.50412 1.85329 0.667543
18.3006 20.494 18.5725 -0.590089 0.106254 0.662224
19.9714 18.2667 18.2834 0.876112 -1.52225 -0.800986
18.5138 18.4944 20.4584 2.79442 2.34049 0.0669783
21.059 23.4349 21.0267 -0.173195 -2.29139 0.123369
ITEM: TIMESTEP
3000
ITEM: NUMBER OF ATOMS
17
ITEM: BOX BOUNDS ss ss ss
1.7887281244975387e+01 2.2716948635897051e+01
1.7537693009446222e+01 2.3438129870147431e+01
1.7755452315383813e+01 2.3023611786875694e+01
ITEM: ATOMS x y z vx vy vz
20.3053 20.5204 20.3793 -5.91182 -0.00200954 -1.95938
21.4956 17.3903 19.9083 -0.366938 -1.39043 0.933896
20.7656 19.8386 23.035 -0.427897 0.404238 0.557707
18.3211 19.7809 22.9409 1.53577 -0.400885 -1.9261
19.442 23.0116 19.0335 -1.98426 -0.366426 1.395
22.625 21.8393 19.2453 1.65658 2.01508 -0.293487
22.2729 21.749 22.0307 2.23773 1.14657 -0.647754
22.5229 19.5289 18.3881 -1.23125 2.45722 0.746953
19.7532 22.4243 22.3053 -2.07451 0.737572 -1.29352
18.1827 21.6379 20.7988 3.49641 -1.44594 -0.377137
19.9235 17.563 22.1658 0.816352 -0.411547 -1.26766
22.6866 19.2307 21.178 -0.400389 -2.71702 1.42462
20.6378 21.0721 17.8361 1.09219 0.298563 -0.175959
18.2173 20.417 18.391 0.727597 -1.58418 -0.909425
19.8071 18.465 18.1728 -1.30605 -0.344497 0.0767563
18.4956 18.8631 20.547 -0.513017 0.813213 2.6737
21.2608 23.3829 20.3592 2.6535 0.790487 1.04178
ITEM: TIMESTEP
4000
ITEM: NUMBER OF ATOMS
17
ITEM: BOX BOUNDS ss ss ss
1.7748272279788559e+01 2.3088436695877547e+01
1.7337059737310298e+01 2.3282339132480164e+01
1.7940651289660988e+01 2.3427288534434965e+01
ITEM: ATOMS x y z vx vy vz
20.1933 20.3228 20.2272 -0.461953 0.328558 0.64324
21.0896 17.2434 19.6634 0.684204 0.058337 -1.99536
21.2238 20.0719 23.3316 0.352287 -2.79225 -2.02933
18.6352 19.8326 22.9496 -1.03512 1.71613 0.106863
18.9351 23.12 18.5481 -0.527622 1.68367 -0.887184
23.311 21.5902 19.6053 2.9921 -2.85453 2.26067
22.3056 21.8814 21.8787 -3.46416 -0.967825 -0.145408
22.4779 19.4509 18.8714 1.94902 -1.62268 0.826728
19.7655 22.062 22.0797 2.0163 1.22151 -1.72728
17.7596 21.409 20.8515 -0.770366 -0.585046 0.622673
20.3167 17.9928 22.3091 1.15162 2.94594 -0.710241
22.5578 19.0466 21.2323 0.211716 0.636844 0.859443
20.937 21.4715 17.9677 -1.38329 0.041001 0.198716
18.1275 20.8361 18.6885 1.35491 -1.29411 0.717303
19.6975 18.6365 18.0173 -2.54886 2.41125 0.73213
18.3498 18.5119 20.5908 3.30145 0.631247 0.776572
21.0321 23.2353 19.9028 -3.82226 -1.55804 -0.249534
ITEM: TIMESTEP
5000
ITEM: NUMBER OF ATOMS
17
ITEM: BOX BOUNDS ss ss ss
1.7798806273074170e+01 2.2824502316921496e+01
1.7417485860889844e+01 2.2989023948644320e+01
1.7735912185944169e+01 2.3551303705717995e+01
ITEM: ATOMS x y z vx vy vz
20.2143 20.3496 20.5509 -0.357021 1.16418 1.37973
20.9122 17.4986 20.0303 -0.387768 2.82443 0.453467
22.1346 20.0451 23.5018 0.0420464 0.725826 -1.47961
17.7053 19.918 22.5557 -2.20426 -0.945833 0.454766
18.8694 22.7879 18.0758 -1.50862 0.705075 -0.0785915
22.4345 21.6444 19.6238 0.412886 -3.39944 -0.386674
22.3944 21.7518 21.8349 -1.40725 0.0709706 0.412235
22.797 19.1752 18.608 1.43799 0.411726 -2.9469
20.0095 21.5623 22.7561 2.0564 -0.552307 1.28115
18.2223 21.8999 20.7499 0.372235 0.72052 -0.280414
20.1744 18.5609 22.3235 -0.150451 0.497828 -0.769521
22.796 18.9971 21.1868 -1.20554 -1.5896 0.468845
20.934 21.401 17.6963 2.60653 0.23241 -1.39954
18.2754 20.561 18.5104 0.16194 -0.950687 3.01462
20.153 18.9288 18.038 3.17016 -1.57142 -0.221156
18.3569 18.5481 20.3994 -1.90028 -1.75772 0.242954
20.3316 23.0855 20.2734 -1.13901 3.41404 -0.145362
ITEM: TIMESTEP
6000
ITEM: NUMBER OF ATOMS
17
ITEM: BOX BOUNDS ss ss ss
1.7796653114095037e+01 2.3006424130401236e+01
1.7520065239785179e+01 2.3078323117352696e+01
1.7865307169552661e+01 2.3513548134835727e+01
ITEM: ATOMS x y z vx vy vz
20.158 20.1496 20.4143 2.2931 -2.65535 1.3203
21.2724 17.7243 20.0541 0.0773458 -1.13371 0.414854
22.0926 20.1374 23.7758 0.239876 2.24138 -0.505416
17.8429 19.8942 21.6299 -3.64081 1.95703 1.10973
19.2138 23.1689 18.4407 -0.0133413 -1.01583 -1.699
22.5907 21.703 19.3323 2.30939 1.81352 0.884339
22.1145 21.8648 22.1169 0.103095 0.528264 -0.553285
22.1191 19.1575 18.3302 -3.88923 -1.33098 0.111913
19.5788 21.3628 22.7959 0.549043 -2.07638 -0.0316076
18.2888 22.2312 20.7958 0.0787785 -1.77069 -0.045889
20.496 18.6634 22.5083 -0.60806 1.45904 -1.32691
22.6417 19.4732 21.0727 2.87317 0.159052 -0.537257
20.8475 21.1798 17.9648 -0.0188095 -0.348502 1.17449
18.3777 20.6193 18.6358 -1.0799 -0.808191 -1.2583
19.5114 18.4229 17.9396 -0.202434 1.03768 -0.163166
18.7335 17.9145 20.4008 0.975044 1.88373 -2.15694
20.8358 23.0483 20.5071 -0.0462592 0.0599371 3.26215
ITEM: TIMESTEP
7000
ITEM: NUMBER OF ATOMS
17
ITEM: BOX BOUNDS ss ss ss
1.7680633719554585e+01 2.3095559865480510e+01
1.7288384179469841e+01 2.3076963049023725e+01
1.7991732273301544e+01 2.3556488464785915e+01
ITEM: ATOMS x y z vx vy vz
20.3483 20.2202 20.4011 1.70258 -0.329313 1.51142
21.1648 17.3833 19.8025 -1.96016 2.31486 1.62192
20.8457 20.1588 23.4698 -2.07167 -1.17397 -1.60979
18.624 19.7489 22.2384 0.517809 -1.12342 2.32215
18.8185 22.8095 17.9468 -0.882549 2.06488 -1.22172
23.0849 21.4834 19.6796 1.8088 -0.0203028 1.40682
22.2458 21.5513 22.4488 0.515357 0.64909 -0.409794
22.1883 19.2685 18.4096 2.3595 0.629004 -1.72307
19.7099 22.3789 22.5817 0.378534 2.14579 0.206401
18.401 22.5551 20.2678 1.00644 -0.581203 -1.54078
20.8049 17.9909 21.9917 1.05787 -1.63129 -2.22491
23.0004 19.4016 21.1804 -2.98837 -0.595109 0.228924
20.7648 21.5513 18.2625 0.0953379 -1.82277 -0.705255
17.6362 20.3763 19.4435 -0.41049 -0.759562 2.79031
19.5659 18.9027 18.078 1.12823 0.874835 -2.56422
18.6566 17.8856 20.2414 -0.223969 -0.154308 2.259
20.8551 23.0489 20.2713 -2.03325 -0.487198 -0.347426
ITEM: TIMESTEP
8000
ITEM: NUMBER OF ATOMS
17
ITEM: BOX BOUNDS ss ss ss
1.6659412734611333e+01 2.3254299467835711e+01
1.7613325687861767e+01 2.3105412655930198e+01
1.7633071523079618e+01 2.3276641686716765e+01
ITEM: ATOMS x y z vx vy vz
20.7757 20.4492 20.4631 2.6518 -0.166255 0.141075
20.9021 17.6232 19.4029 0.525547 1.16418 1.76351
21.1239 20.3087 23.2674 -0.447384 -1.43497 -1.03605
18.5136 20.0263 22.0544 0.940519 1.41382 -1.12673
18.4442 21.0072 18.6264 0.572511 -2.6171 -0.456654
23.2498 21.4912 19.8654 -0.135775 1.24646 1.8676
22.4057 22.1692 22.2338 -1.16294 -0.724492 1.10093
22.8905 19.3913 18.798 0.438037 0.976415 1.1748
19.9218 22.3358 22.566 2.58733 0.155047 -0.579209
18.1317 22.2732 20.8553 -1.03451 0.715638 -2.96149
20.3376 17.8343 21.8076 -0.363154 -1.86296 -1.07776
22.519 18.9772 21.3362 -2.8005 -1.02326 -2.58347
21.2294 21.4645 17.8039 1.52176 0.26601 -1.67266
16.6535 20.2894 20.1892 -2.07089 0.788159 4.25741
20.1989 19.232 17.6461 -1.11846 0.208371 1.82681
18.5511 18.7238 19.9842 0.198921 -2.45607 -0.238197
20.8665 23.1187 19.8152 -0.302802 3.35101 -0.399907
ITEM: TIMESTEP
9000
ITEM: NUMBER OF ATOMS
17
ITEM: BOX BOUNDS ss ss ss
1.7165498968830669e+01 2.3023800087113489e+01
1.7825495665198066e+01 2.3061977028556310e+01
1.7887452445551371e+01 2.3158386395791048e+01
ITEM: ATOMS x y z vx vy vz
20.541 20.3687 20.3437 0.464147 1.02769 0.891813
20.9939 17.6328 20.0257 -1.17994 -0.566119 1.16214
21.3552 19.916 22.9129 -0.885178 0.769774 -0.731864
18.3851 20.128 21.7408 -0.403397 0.0976006 1.32389
18.6002 20.5678 18.3059 2.41621 -2.59505 -0.400422
23.2504 21.8633 19.8478 -1.21368 0.682314 -0.573205
22.6286 21.7225 22.3951 0.360079 -3.49547 0.77668
22.3683 19.739 18.5918 2.06718 2.51326 -0.181405
20.0992 22.3084 22.5601 1.51488 0.681786 1.59672
18.4882 22.4639 20.2002 -0.330224 0.0621073 -0.146412
19.9805 17.9365 22.175 1.47755 0.679294 -2.70119
23.0636 19.2546 21.1831 -0.864921 -2.55066 0.607621
20.7446 22.1598 18.3135 -0.0904819 0.152574 -0.333225
16.6517 20.342 20.1265 -0.897602 -0.957927 0.612146
20.0175 18.5644 17.9423 -0.175997 -1.06119 1.01078
18.4597 18.5197 19.7257 -1.13644 1.38224 -0.601148
21.0871 23.2277 20.3248 -1.12219 3.17777 -2.31293
ITEM: TIMESTEP
10000
ITEM: NUMBER OF ATOMS
17
ITEM: BOX BOUNDS ss ss ss
1.6745963454491964e+01 2.3203218603565404e+01
1.7422565084707916e+01 2.3110383989797402e+01
1.7869424215340882e+01 2.3322857759798339e+01
ITEM: ATOMS x y z vx vy vz
20.4313 20.3302 20.4252 -0.266533 1.0473 0.833263
20.9273 17.6414 19.458 0.574043 1.10913 1.14878
20.9165 20.0545 23.3337 1.07342 1.20059 -0.11713
18.5081 19.9309 22.2456 2.89862 1.21189 -1.44594
18.2926 20.3829 18.0683 0.156309 -1.61701 2.25777
22.7416 21.4099 19.511 -0.570977 0.464702 -1.36632
22.3904 21.9592 22.2358 -2.9362 -2.60753 0.0338527
22.8918 18.8077 18.6243 -0.398001 0.279231 0.79562
19.8625 22.3405 22.511 -0.303454 1.73685 0.844699
18.7418 22.2419 19.998 2.83897 2.73466 1.7006
20.5658 18.2532 21.8473 -1.68383 -2.4206 -0.11025
22.8621 19.4009 21.3838 0.319767 -0.329239 -1.74279
20.6599 21.8807 18.2891 -2.02858 -0.609701 1.8543
16.7793 20.6739 20.5022 1.42352 -0.177405 -2.19208
20.6307 19.3681 17.6717 2.60052 -0.712601 -2.23199
18.4538 18.6484 19.9164 -1.13517 0.989188 0.349551
21.0595 23.3908 20.6935 -2.56243 -2.29946 -0.611944
ITEM: TIMESTEP
11000
ITEM: NUMBER OF ATOMS
17
ITEM: BOX BOUNDS ss ss ss
1.6618105879058884e+01 2.2908188086691329e+01
1.7816809160205917e+01 2.3199002521513940e+01
1.7556743239424790e+01 2.3167425845409777e+01
ITEM: ATOMS x y z vx vy vz
20.3519 20.4678 20.5606 -0.195414 -0.532964 1.90806
20.6745 18.1919 18.9629 -1.5386 1.44382 -0.270473
20.8863 20.0231 23.3407 -1.79751 -0.167841 -1.57501
18.1981 19.937 22.1624 -0.23583 -0.554262 1.08223
18.5311 19.8234 18.4563 0.986836 -0.888795 -1.0742
22.6649 21.8038 18.3874 -0.30732 -0.524049 1.8961
22.7551 21.3986 21.7809 -0.598551 -1.07485 1.12408
22.6795 19.5074 19.8048 0.462626 -0.337332 -1.80174
20.0687 22.3461 22.4282 0.223608 -1.83404 0.0311396
18.6861 22.4018 20.3228 2.48085 -0.514756 -0.816413
20.525 18.0406 21.8338 1.53582 -0.65665 -0.00761486
22.8248 18.6228 22.0878 -1.10976 2.74728 -0.288745
20.1648 22.4609 18.0052 0.417179 0.949846 -0.790535
17.0104 20.6366 20.069 1.06472 1.95263 0.164503
21.1518 20.0257 17.7024 -0.871947 -0.388108 -0.15689
18.1115 17.9734 20.4914 1.36927 0.314006 1.91941
21.4307 23.0541 20.3183 -1.88599 0.0660618 -1.3439
ITEM: TIMESTEP
12000
ITEM: NUMBER OF ATOMS
17
ITEM: BOX BOUNDS ss ss ss
1.6735363360151723e+01 2.3255932120741477e+01
1.7924508620257093e+01 2.2890922017603323e+01
1.7678329346584256e+01 2.3177878867211568e+01
ITEM: ATOMS x y z vx vy vz
20.7207 20.5777 20.4429 -0.313844 2.13992 1.55439
20.0048 18.098 18.767 2.51129 0.260772 0.366665
20.9904 20.0979 23.3024 0.196802 -2.22098 0.554978
18.5165 20.11 21.9647 -2.15114 0.762713 2.16067
18.5227 20.0778 18.5496 0.497834 0.0251644 0.692599
23.3119 21.0563 19.3849 -1.07286 1.05358 -2.92402
22.365 22.0748 22.4735 -0.815277 -3.71883 0.209476
22.5558 18.5274 19.42 1.52299 -1.13814 0.726906
20.1373 22.4693 22.0282 0.408313 2.58817 -4.41119
18.332 22.1235 20.2708 -1.81928 0.0883371 1.78581
20.5021 18.262 21.4533 -0.713412 0.418071 -0.872407
23.0145 19.4821 21.6781 -0.301895 -1.70683 0.864295
19.9824 22.5187 18.3769 0.472169 1.53835 -0.160392
16.5794 20.0998 20.188 0.278592 -0.341921 -0.146553
21.3887 20.2357 17.7288 0.0168723 -0.903036 0.839787
17.9029 18.0579 20.5802 1.45605 0.267106 -0.268375
21.888 22.8464 20.1059 -0.173202 0.887562 -0.972642
ITEM: TIMESTEP
13000
ITEM: NUMBER OF ATOMS
17
ITEM: BOX BOUNDS ss ss ss
1.6591126938110087e+01 2.3132428759653838e+01
1.7979788253759175e+01 2.3278718141628993e+01
1.7814851575529531e+01 2.3231758063003905e+01
ITEM: ATOMS x y z vx vy vz
20.512 20.4454 20.2813 0.770318 -0.414528 0.835816
20.1524 17.8668 19.085 1.02044 2.79391 0.747589
20.3736 19.9745 22.934 0.518053 -1.88212 -0.375031
18.1318 20.9477 22.5692 -1.97916 0.10274 0.881333
18.6569 20.0795 18.1547 1.86051 0.120713 -0.529
22.8596 21.2631 19.3475 0.576772 -3.48795 0.647859
22.1599 21.5464 22.0529 0.76474 -2.01974 -1.69118
22.5152 18.6283 19.2353 -1.16284 2.05856 1.13536
19.8619 22.5524 22.404 -0.886298 0.446552 1.54864
18.543 22.159 20.1515 1.46154 0.398617 -1.07088
21.0524 17.5008 21.656 0.135963 -0.242983 -0.236327
23.095 19.2284 21.5326 0.304492 0.690506 -0.97238
20.579 22.5102 18.4119 -1.85326 -1.32377 -2.01728
16.9375 20.0709 19.9841 -0.190627 2.63024 -0.0976415
21.0489 19.9491 17.4475 0.232175 1.10315 1.63273
18.605 18.6956 21.1334 1.66441 -0.246296 0.802092
21.6308 23.2969 20.334 -3.23723 -0.727596 -1.2417
ITEM: TIMESTEP
14000
ITEM: NUMBER OF ATOMS
17
ITEM: BOX BOUNDS ss ss ss
1.6937048029356124e+01 2.3096216665692570e+01
1.7518202491243855e+01 2.3285893586193414e+01
1.7507591723247813e+01 2.2929704140092969e+01
ITEM: ATOMS x y z vx vy vz
20.4539 20.4995 20.4251 1.80873 0.273457 -1.09459
20.1585 18.1896 19.0612 0.130427 2.96267 2.18054
20.7476 19.9516 23.0197 -0.817211 -1.57693 -2.82739
18.0182 20.6446 22.3368 1.78305 1.06622 0.272525
18.5052 20.172 18.2816 -1.95144 1.05757 -2.25426
22.7019 21.5516 19.2477 0.86714 0.350166 0.722392
22.7301 21.3452 21.7488 2.02793 -0.730297 -1.40989
22.696 18.8464 19.5654 -0.189936 0.33991 0.952881
19.9088 22.4363 22.3429 -0.888784 2.23432 1.64573
18.5006 22.5467 20.0714 2.7494 0.460965 -0.132426
20.8872 17.5561 21.4932 -0.520775 0.473646 0.136171
22.9699 18.8323 21.8543 0.184593 -0.421984 1.06045
20.2565 22.0844 18.2739 -2.2674 -1.39556 -0.246057
17.0237 20.2766 19.8913 0.492986 -1.94536 -1.11656
21.2734 19.9313 17.468 -0.574588 0.499177 1.7351
18.5215 18.5842 21.1836 0.389868 -0.391614 -0.0504765
21.362 23.2666 20.4502 -3.22399 -3.25636 0.425858
ITEM: TIMESTEP
15000
ITEM: NUMBER OF ATOMS
17
ITEM: BOX BOUNDS ss ss ss
1.7238414957546190e+01 2.3039563655743393e+01
1.7590491647316423e+01 2.3080304418800079e+01
1.7652627869056854e+01 2.2876923712758849e+01
ITEM: ATOMS x y z vx vy vz
20.3702 20.4079 20.4066 0.744413 2.8171 -1.43824
19.3649 18.1374 18.9031 2.30721 -0.143152 0.468426
20.6968 19.5787 23.1765 -0.773926 0.847695 0.606588
18.255 20.7736 22.3962 1.3113 -1.56113 -0.00993569
18.7693 20.4288 17.9931 -0.139311 1.6786 1.55755
23.1309 21.498 19.0145 -2.90827 -0.00485932 0.0943247
22.4961 21.52 21.658 -0.741171 -1.89062 0.208526
22.5799 19.0084 19.6714 -1.59817 -1.43958 1.19478
19.8163 22.4261 22.4544 -2.22848 -0.327709 -1.3239
18.4729 22.4485 20.1516 -1.08071 1.36227 0.106992
21.0725 17.7492 21.133 1.12371 0.701938 -1.85635
23.0128 19.147 22.3339 0.303779 -1.13758 0.711698
20.3978 22.2866 18.1906 0.239738 -2.59452 0.948196
17.1216 19.9097 20.0432 2.75598 1.54165 -0.0992802
21.2302 19.8992 17.5807 -0.736938 -0.90175 -1.15374
18.6133 18.3159 21.4194 1.02604 0.59028 0.297078
21.3146 23.1802 20.1889 0.39481 0.461372 -0.312723
ITEM: TIMESTEP
16000
ITEM: NUMBER OF ATOMS
17
ITEM: BOX BOUNDS ss ss ss
1.7238414957546190e+01 2.3039563655743393e+01
1.7590491647316423e+01 2.3080304418800079e+01
1.7652627869056854e+01 2.2876923712758849e+01
ITEM: ATOMS x y z vx vy vz
20.3656 20.4419 20.4069 -1.34904 -1.41299 -0.645633
19.5769 18.1012 19.079 -1.32204 -1.55251 -0.229367
20.6181 19.7304 23.1217 -1.40392 -0.0196715 2.79314
18.4089 20.931 22.2069 0.414903 -1.04873 0.552109
18.6114 20.3669 17.7615 0.796621 1.20761 1.17401
22.6553 21.4695 19.0914 0.60658 -0.911704 1.14444
22.4096 21.1364 21.9818 -2.20492 0.731091 0.558073
22.9352 19.2999 19.6474 0.414751 1.04972 1.02162
20.2368 22.5051 22.6763 0.992032 0.968931 0.987789
18.5068 22.473 19.9082 2.7286 1.11827 0.813605
21.2077 17.8087 20.8523 3.09789 -1.63125 -2.71297
23.0716 18.7772 22.3514 -0.0626378 0.770778 -0.0739505
20.208 22.3277 17.9741 -2.72544 -0.670351 -1.06556
17.5343 19.9566 19.9482 -0.675459 0.699949 -1.88623
20.8706 19.8546 17.5589 0.0357308 0.640861 -1.6073
18.6285 18.4499 21.7326 -0.0484006 0.32421 1.50011
20.8697 23.0853 20.4163 0.704737 -0.264218 -2.32387
ITEM: TIMESTEP
17000
ITEM: NUMBER OF ATOMS
17
ITEM: BOX BOUNDS ss ss ss
1.7254968211179346e+01 2.3369209877547927e+01
1.7707513627156150e+01 2.3134236587726225e+01
1.7914031503516899e+01 2.3565679168349938e+01
ITEM: ATOMS x y z vx vy vz
20.5167 20.3161 20.3577 -3.75308 0.00625527 -0.139065
19.2249 18.2282 19.2733 -0.0219177 -0.468304 1.08
20.6514 20.3706 23.522 2.55837 -0.990128 -0.408634
18.4153 20.8498 22.1117 1.59607 0.624148 0.222468
18.5323 20.4875 18.0242 -0.192702 0.845742 -1.47813
22.4371 21.5951 19.3304 0.89713 2.46093 -0.818785
22.4666 21.2035 21.9873 1.41218 -0.298899 -2.35616
23.2105 19.2512 19.851 -0.488425 -0.0708908 2.16356
20.0232 22.8608 22.5849 -0.69592 0.847158 0.684278
18.3985 22.3477 19.8962 -1.33715 0.249743 0.688824
21.4792 17.4303 19.6156 1.36948 -1.65162 0.116736
21.9925 18.5778 22.0898 -0.117714 -0.0771962 1.13773
20.4167 22.0996 17.8796 2.29852 0.567531 1.21885
17.5112 19.9096 20.0804 1.21434 -2.05864 -0.614424
21.0665 19.6321 17.7265 -1.25503 0.0248489 0.299025
19.5579 18.2763 21.8861 -3.14328 -0.502626 -0.981656
20.8143 23.2788 20.4983 -0.340859 0.491948 -0.814613
ITEM: TIMESTEP
18000
ITEM: NUMBER OF ATOMS
17
ITEM: BOX BOUNDS ss ss ss
1.7577120337021455e+01 2.3099920591845571e+01
1.7407154912516177e+01 2.3324749792093247e+01
1.8040054626471637e+01 2.3218451279379806e+01
ITEM: ATOMS x y z vx vy vz
20.379 20.315 20.3433 -1.77172 -1.83187 -1.58705
19.1784 18.3815 19.0464 0.580858 -0.101836 -1.05937
20.5425 20.3502 23.3279 2.41162 2.15088 0.290645
18.0712 20.8927 22.3375 0.0204144 -0.566561 0.262919
18.4081 20.7262 17.8137 -1.40893 -0.483822 -0.92171
22.5155 21.5071 19.1167 0.0382779 1.1245 -2.08052
22.4811 21.0694 21.8614 0.430759 1.88756 -0.472455
23.3942 19.3042 20.0146 -1.41304 0.365988 2.07913
19.9402 22.5867 22.6026 0.0217431 -1.25201 -0.158494
18.4447 22.2766 20.026 1.29276 -0.814877 2.39478
21.6825 17.7282 19.725 -0.226037 -1.23449 -0.146075
22.1784 18.4282 22.1926 -1.90405 1.37825 -0.818876
20.2554 22.072 17.9799 0.621312 -0.805449 0.765182
17.5228 19.7514 20.2335 -0.191901 0.216283 1.88172
21.3273 19.5537 17.7342 2.25106 0.702858 2.08406
19.4774 18.5772 22.0782 -2.36502 -1.55351 -2.47794
20.9163 23.1947 20.2817 1.61189 0.818103 -0.0359559
ITEM: TIMESTEP
19000
ITEM: NUMBER OF ATOMS
17
ITEM: BOX BOUNDS ss ss ss
1.7259716906011239e+01 2.3000846494199450e+01
1.7609565842995917e+01 2.3552357502306581e+01
1.7927811836521219e+01 2.3551762126323094e+01
ITEM: ATOMS x y z vx vy vz
20.4883 20.3799 20.2935 0.714978 0.677661 0.0983555
19.0665 18.2444 18.7904 -0.263649 -0.740992 0.146378
20.8836 20.8185 23.8556 -1.91132 0.40321 1.80702
18.8712 20.2167 22.4387 -1.60625 0.711103 -0.666209
18.3584 20.7463 17.7219 0.173655 0.0407691 3.50075
22.6265 21.2508 19.1338 -0.707495 1.65827 2.26867
22.5184 21.5385 21.8841 -1.30536 -1.41367 -0.149664
23.3532 19.3872 20.5249 0.748553 0.059856 -0.700015
20.0292 22.5241 22.2176 1.04279 -2.47838 -2.73243
18.5288 22.2363 20.17 1.70301 -0.681858 0.469667
21.4286 17.8817 19.9768 1.96511 -0.395048 0.0747754
21.4159 18.6919 22.542 2.6517 0.579942 -0.0581992
20.2934 22.1328 18.0475 -0.225718 1.06011 -2.1095
17.6156 19.8056 20.0196 -1.6499 -0.0968022 0.00095742
20.8532 19.6469 17.6483 -1.82642 -2.24076 -0.0159469
19.2486 17.9479 21.3464 -1.56592 -0.145082 -1.76467
21.1357 23.2656 20.1038 2.06223 3.00168 -0.169929
ITEM: TIMESTEP
20000
ITEM: NUMBER OF ATOMS
17
ITEM: BOX BOUNDS ss ss ss
1.7259716906011239e+01 2.3000846494199450e+01
1.7609565842995917e+01 2.3552357502306581e+01
1.7927811836521219e+01 2.3551762126323094e+01
ITEM: ATOMS x y z vx vy vz
20.4117 20.4294 20.1677 -0.376955 -1.12899 -1.69209
19.1509 18.2178 18.6807 -0.872904 -0.523457 -1.17425
20.895 20.6808 24.0124 -1.40548 -0.477846 -0.0939409
18.5967 20.3814 22.3243 0.434415 -0.209099 1.78758
18.5042 20.4978 17.9381 -0.0398394 0.24314 0.57133
22.8133 21.4064 19.0337 1.44742 1.17734 0.372253
22.4391 21.584 21.7398 -0.650997 -1.86775 0.586923
23.2382 19.1874 20.08 0.873867 1.25368 1.71211
19.9674 22.4054 22.2457 1.31811 -0.140444 -0.864095
18.5167 22.4595 20.1107 0.753206 2.28056 0.00275348
21.1915 17.4367 20.0553 -0.327616 0.405082 -0.126947
21.5547 19.0234 22.3591 -2.68975 1.764 -1.15822
20.3074 22.3386 18.0434 -1.16468 -2.54337 1.32937
17.5605 19.9515 20.1756 -0.45708 0.157877 -0.548851
21.3551 19.5334 17.9799 -1.35705 0.76688 -0.818101
19.0825 17.9569 21.4694 3.61647 -1.02527 1.18854
21.1301 23.2248 20.2992 0.898871 -0.132332 -1.07436
ITEM: TIMESTEP
21000
ITEM: NUMBER OF ATOMS
17
ITEM: BOX BOUNDS ss ss ss
1.7259716906011239e+01 2.3000846494199450e+01
1.7609565842995917e+01 2.3552357502306581e+01
1.7927811836521219e+01 2.3551762126323094e+01
ITEM: ATOMS x y z vx vy vz
20.3056 20.2089 20.2236 -1.12402 -0.138357 0.577492
19.004 18.1206 18.5936 1.35339 -1.61463 -0.0328582
21.0124 20.7491 23.8757 0.311956 -1.85916 0.95314
18.6633 20.2456 22.4564 0.148512 -0.458776 -2.57167
18.5814 20.5531 17.9084 1.06848 1.0179 2.37503
22.8824 21.9548 19.2526 0.352289 2.60053 1.02773
22.3953 21.5137 21.7952 -0.41939 -0.242952 0.46519
22.9314 19.3489 20.2229 -0.962693 0.163105 1.61203
19.9962 22.4607 22.1763 -0.448737 1.23468 -0.560205
18.7221 22.3364 19.9602 -0.874372 1.67755 -0.532941
21.1957 17.4638 20.0516 -1.50238 0.337203 -0.888003
21.4404 18.9629 22.3644 -0.10946 -0.14624 -0.725803
20.5399 22.1408 17.9464 -0.440836 -0.4066 -2.12909
17.4635 19.7797 20.4635 -0.343162 -0.377252 1.46764
21.255 19.5822 17.9752 -0.364398 0.218299 -1.57324
18.9955 18.0224 21.282 1.31184 -0.120677 1.84333
21.3309 23.2713 20.1669 2.04298 -1.88463 -1.30777
ITEM: TIMESTEP
22000
ITEM: NUMBER OF ATOMS
17
ITEM: BOX BOUNDS ss ss ss
1.7259716906011239e+01 2.3000846494199450e+01
1.7609565842995917e+01 2.3552357502306581e+01
1.7927811836521219e+01 2.3551762126323094e+01
ITEM: ATOMS x y z vx vy vz
20.4948 20.4522 20.3426 -0.435218 -0.992636 1.76225
18.9129 18.2174 18.7974 1.27801 2.27995 1.52479
20.8226 20.8067 23.6867 0.540557 -0.248529 -0.0734992
18.6479 20.2676 22.7097 -2.46211 -1.08985 -1.58318
18.5725 20.4109 17.9728 0.493477 0.237199 2.23366
22.9996 21.6889 19.102 -0.377202 -0.0874786 0.625349
22.3432 21.5501 21.8511 -1.09938 0.805397 0.348026
22.9458 19.2876 19.9749 1.27759 -1.78304 -0.778121
19.9938 22.6387 22.2462 0.921138 0.722108 -1.39322
18.7422 22.2903 20.0269 1.33357 0.547431 -0.842785
21.1072 17.639 19.9347 -0.950237 1.26181 -1.42524
21.3674 18.8634 22.2351 2.38027 -0.733437 -0.0589088
20.5566 22.1696 17.9653 -0.967299 -1.10448 0.476137
17.6945 19.7466 20.4264 -1.42617 -0.299035 -0.162401
21.3419 19.6709 17.9584 1.59284 -1.49521 -2.12808
19.0004 17.673 21.3426 0.138362 2.39919 0.487426
21.1717 23.3421 20.1423 -2.23821 -0.419391 0.987787
ITEM: TIMESTEP
23000
ITEM: NUMBER OF ATOMS
17
ITEM: BOX BOUNDS ss ss ss
1.7520697535330235e+01 2.3308666134773215e+01
1.7480262213527023e+01 2.3165517206070795e+01
1.7741225833448610e+01 2.3449614893389576e+01
ITEM: ATOMS x y z vx vy vz
20.2895 20.42 20.4909 -1.0862 -0.571119 -1.02335
19.2192 18.2329 19.1723 0.270756 1.56583 -0.362966
20.1463 20.0147 23.2768 1.43958 2.13592 0.963073
18.0193 20.8953 22.2961 1.44479 -1.67181 -1.82591
18.5588 20.5862 18.1438 0.784216 2.34668 0.12365
22.835 21.652 19.0447 -0.176721 -3.10651 0.176406
22.4957 21.4236 21.68 0.35484 -0.354537 0.387056
23.1324 19.193 19.7932 1.74059 1.07592 0.595156
20.1732 22.6841 22.3992 -1.65419 -0.940878 0.502773
18.6406 22.4101 20.2333 -3.02855 -0.0649806 1.76426
21.3588 17.435 19.9149 0.36822 -2.11395 -2.83818
22.0443 18.8348 22.1102 -0.825101 0.806416 1.06153
20.6507 22.2237 18.0282 0.464743 -2.96096 -0.212909
17.3924 19.768 20.2272 0.726342 1.68321 0.759033
21.2414 19.449 18.0556 -0.856381 0.619411 1.72361
19.4391 18.1213 21.7588 0.575801 0.615372 -0.408436
21.0785 23.3712 20.0899 -0.542741 0.935964 -1.3848
ITEM: TIMESTEP
24000
ITEM: NUMBER OF ATOMS
17
ITEM: BOX BOUNDS ss ss ss
1.7520697535330235e+01 2.3308666134773215e+01
1.7480262213527023e+01 2.3165517206070795e+01
1.7741225833448610e+01 2.3449614893389576e+01
ITEM: ATOMS x y z vx vy vz
20.4149 20.377 20.3071 0.0671425 0.385286 0.582359
18.9334 18.0565 18.9183 -1.30149 2.44387 -0.535134
20.3826 20.2276 23.1016 -1.62575 -0.978195 -0.193813
18.1428 21.0066 22.2171 -2.50978 1.64708 -0.510252
18.656 20.3904 18.1826 0.00286613 0.506956 -0.267535
22.6544 21.3044 19.0171 0.881489 -1.48254 -0.131505
22.5101 21.2709 21.8976 -0.307705 -0.388852 -1.83555
23.3427 19.2509 19.9029 0.0376496 0.318828 -0.373026
19.9728 22.6832 22.3919 0.43193 0.971229 0.556346
18.5466 22.5578 20.073 0.793903 -2.92455 0.25476
21.3524 17.731 19.8358 -0.741618 1.85971 0.101293
22.2308 18.6406 22.3628 2.37225 0.347387 -0.20884
20.2433 22.2953 18.2493 -0.1419 -0.204926 -0.177753
17.398 19.7717 20.2265 -0.440053 0.858136 0.861588
21.2505 19.3159 17.9341 2.89161 -0.473815 -0.566632
19.3672 18.4672 21.6838 1.15878 -1.20035 1.89472
21.3164 23.3677 20.4135 -1.56932 -1.68525 0.548978
ITEM: TIMESTEP
25000
ITEM: NUMBER OF ATOMS
17
ITEM: BOX BOUNDS ss ss ss
1.7520697535330235e+01 2.3308666134773215e+01
1.7480262213527023e+01 2.3165517206070795e+01
1.7741225833448610e+01 2.3449614893389576e+01
ITEM: ATOMS x y z vx vy vz
20.3411 20.4149 20.5177 -0.574509 0.707212 0.305401
19.1756 18.249 18.8488 1.12838 -2.14919 1.48972
20.6725 20.2426 23.4091 -1.41177 -0.815901 0.438822
17.9952 21.0223 22.3388 -1.85659 0.744905 -0.374316
18.3893 20.4563 17.7367 -1.57542 -1.04926 -1.4847
23.0383 21.2785 18.9428 0.214128 1.31788 -1.01866
22.6242 21.3729 21.7151 0.198381 0.0702681 0.467282
23.3157 19.0994 19.9393 -0.763595 -0.0279879 -2.07532
19.8645 22.6391 22.3688 -0.380171 -1.22608 -1.28659
18.427 22.284 20.0509 1.01911 2.09197 0.442547
21.2344 17.5956 20.0931 -0.274937 0.0884306 0.753651
22.1606 18.8013 22.1425 -0.375004 -0.0445203 0.362285
20.3684 22.177 18.2364 -0.10739 1.22671 1.0747
17.5307 19.8799 20.1896 1.94994 -2.2596 1.23778
21.2423 19.6342 18.0639 0.255882 0.514355 -1.20404
19.1258 18.5139 21.7623 -0.708294 0.646952 0.17696
21.2094 23.0542 20.3592 3.26186 0.163857 0.694487
ITEM: TIMESTEP
26000
ITEM: NUMBER OF ATOMS
17
ITEM: BOX BOUNDS ss ss ss
1.7520697535330235e+01 2.3308666134773215e+01
1.7480262213527023e+01 2.3165517206070795e+01
1.7741225833448610e+01 2.3449614893389576e+01
ITEM: ATOMS x y z vx vy vz
20.3252 20.4481 20.3749 1.05789 -1.58653 1.08659
18.9672 18.2682 19.0053 0.600742 -1.37191 -0.648745
20.5567 20.1673 23.2163 -1.00741 0.130841 1.06946
18.0968 20.8826 22.3929 -0.248853 0.249795 -1.73922
18.5902 20.5474 17.9753 -0.359807 2.20087 2.47958
23.1639 21.9502 19.0697 0.150952 1.08534 0.559486
22.4093 21.3468 21.7233 -2.33861 -0.303286 0.198178
22.9075 19.4885 19.9524 1.90816 0.0325315 -2.34675
20.0453 22.6019 22.3036 0.27491 -1.2506 0.570376
18.6257 22.3263 19.9736 0.128397 0.518335 -1.95369
21.1152 17.602 20.0242 -1.40314 0.211642 0.994607
21.9943 18.4354 22.3926 0.38293 0.983299 -1.36981
20.7836 21.8969 17.9993 0.53022 0.452911 0.955968
17.3134 19.7882 20.3116 -0.78278 -1.64282 -1.16864
21.0772 19.3863 17.8502 -1.75646 -0.292965 0.0401933
19.3376 18.3936 21.8313 0.273544 -0.948247 2.86588
21.4059 23.1853 20.3184 2.58931 1.53079 -1.59345
ITEM: TIMESTEP
27000
ITEM: NUMBER OF ATOMS
17
ITEM: BOX BOUNDS ss ss ss
1.7520697535330235e+01 2.3308666134773215e+01
1.7480262213527023e+01 2.3165517206070795e+01
1.7741225833448610e+01 2.3449614893389576e+01
ITEM: ATOMS x y z vx vy vz
20.4456 20.3223 20.4931 1.61049 -0.197735 0.118149
19.0192 18.3576 19.0431 -0.698527 -0.130203 -1.05416