ITEM: TIMESTEP
0
ITEM: NUMBER OF ATOMS
19
ITEM: BOX BOUNDS ss ss ss
1.8105976574624020e+01 2.2835902219799657e+01
1.7430055406817537e+01 2.3305532285297559e+01
1.7396389740185146e+01 2.3239938559519977e+01
ITEM: ATOMS x y z vx vy vz
18.1101 20.2549 20.5615 1.12446 0.0666752 1.0495
21.2681 17.4341 19.9369 1.09159 -0.0943239 -0.0116372
21.3102 20.0864 23.2359 2.10714 -1.0626 -0.656545
18.8048 19.2503 22.8181 -0.57657 1.95242 -2.26894
20.0316 23.2528 18.3664 -2.81812 1.192 0.0190067
22.4547 22.2457 18.9316 0.138509 0.284639 -1.81702
22.4233 21.2607 21.2501 1.00704 1.24831 0.16932
22.1717 19.6994 19.1895 1.64161 0.301068 0.523704
19.4988 21.6176 22.1692 -2.29957 1.34168 0.849306
18.3437 22.7419 20.2592 -0.582819 0.237509 -0.281191
20.7739 17.5943 22.449 -2.12628 -0.645033 0.706183
22.8318 18.8108 21.507 0.848516 -0.423654 -0.224292
20.8815 21.0011 17.4005 0.688075 -0.66217 0.485521
18.4139 21.2219 18.1771 -0.265304 -1.02274 1.20881
19.6868 19.1213 18.7704 0.330955 -0.597992 -0.637735
18.7848 17.7798 20.7673 -1.5924 0.879584 -1.32622
20.9186 23.3015 20.9226 0.827706 -0.538719 0.554204
20.2813 21.3612 19.7147 0.797033 -1.46008 1.16258
20.5155 19.4694 21.078 -0.341564 -0.996582 0.495428
ITEM: TIMESTEP
1000
ITEM: NUMBER OF ATOMS
19
ITEM: BOX BOUNDS ss ss ss
1.7387392476942544e+01 2.3174757838481220e+01
1.7271792656952812e+01 2.3977811842643668e+01
1.7123302751867097e+01 2.3796664730311456e+01
ITEM: ATOMS x y z vx vy vz
17.8387 20.4876 20.6909 1.31234 0.359716 1.2062
21.386 17.0955 19.8138 1.48047 -7.77246 0.637866
21.5544 19.1569 23.9475 1.54489 -1.10096 5.0207
18.7736 18.7213 23.169 1.75307 -1.28982 -0.426033
21.0331 23.4108 18.1605 0.783879 -1.89403 1.03519
23.098 22.009 18.1189 -2.6227 -1.55693 -0.111087
22.7956 21.6176 21.1105 -0.978631 2.60127 0.159636
22.0874 19.4455 18.7931 2.77233 -0.0480585 -1.08334
19.0727 22.0043 22.4146 -0.160973 -3.59924 -0.21689
17.4144 22.637 19.9853 1.25261 1.20017 -5.84096
20.7729 17.2499 22.1173 -2.76482 -0.911078 -1.2547
23.0362 19.0692 21.1472 -1.94417 -0.086878 -2.28179
21.1582 20.8992 17.136 -2.60657 1.46285 0.343157
18.6654 21.7086 17.9245 -0.0952576 5.71532 0.582309
19.2482 19.0804 18.9842 1.60416 1.99466 1.73341
18.5295 17.3058 21.1681 1.86288 0.0943978 3.19987
20.2016 23.9518 20.9093 -2.02659 -1.07723 1.65923
20.0533 21.7372 19.9471 0.583133 1.65111 -3.15016
20.7857 19.9173 21.9671 -1.75004 4.25718 -1.2126
ITEM: TIMESTEP
2000
ITEM: NUMBER OF ATOMS
19
ITEM: BOX BOUNDS ss ss ss
1.7199822288975493e+01 2.2940249910469472e+01
1.6811634426058106e+01 2.4007484327242921e+01
1.7282675411177166e+01 2.3583795838146461e+01
ITEM: ATOMS x y z vx vy vz
17.6435 19.466 20.8045 -3.70108 3.13072 -0.167242
21.5901 16.9913 19.6172 0.685703 0.723609 -0.846939
20.9392 18.7157 23.1751 -0.311392 -0.268938 0.472167
18.603 19.8205 23.2861 -3.8765 -0.20575 0.959531
21.5971 23.4708 19.4809 3.10047 -3.10569 4.77066
21.5616 21.0401 17.5911 0.341277 -0.289374 -0.666905
22.1875 21.265 19.889 -1.86973 0.220785 -3.2626
23.1626 18.909 19.0632 2.98926 0.29029 2.17237
17.1832 22.1247 20.9392 2.17903 2.0095 0.417277
18.8543 24.1299 20.1132 2.48739 0.791531 0.208238
22.7978 17.1935 21.7285 1.86388 -0.0326921 -1.29852
23.058 19.6558 21.7725 1.47178 5.46934 0.543091
19.522 20.2582 17.4767 -2.38436 -0.194356 0.262716
19.9881 23.1981 17.5998 -3.6983 -0.100938 -3.59547
19.8911 18.8208 19.8597 0.213634 1.21176 1.43079
19.4094 17.6506 21.9597 0.0665155 -2.74383 -0.289277
20.158 22.7666 21.9187 -1.40791 -2.81238 -2.52274
19.098 21.5605 19.6056 2.07558 -1.8197 3.18494
20.2606 20.468 21.6242 -0.225274 -2.27389 -1.77208
ITEM: TIMESTEP
3000
ITEM: NUMBER OF ATOMS
19
ITEM: BOX BOUNDS ss ss ss
1.7754410422758248e+01 2.4125772645583773e+01
1.6978880948151499e+01 2.4052845552027179e+01
1.7487350554431888e+01 2.3636032769424695e+01
ITEM: ATOMS x y z vx vy vz
17.8084 19.1142 19.6853 0.310497 4.68592 -2.99833
22.1736 17.665 19.7788 0.642456 0.436851 -0.517013
20.1574 18.7654 23.533 -0.604839 -3.7358 -3.1311
17.8265 18.3113 22.0779 2.78907 0.342417 -0.740372
20.7825 23.6368 19.4772 -1.99288 -1.73338 -3.03833
20.6615 21.6646 18.1807 0.589417 1.74913 0.357407
21.7995 20.1043 19.8912 -1.47774 0.587891 1.86067
24.0983 19.3081 20.7869 -1.36096 3.48833 2.89013
21.2888 22.5807 21.7767 1.61974 -0.0260808 -1.45052
18.1443 24.1319 19.7181 0.841008 2.68662 -0.518585
22.0142 18.291 22.2912 -1.24335 0.745246 4.62798
21.8978 20.9761 22.9496 2.00876 0.0505022 2.73538
18.5478 20.1603 17.5689 1.03144 0.144019 1.77201
18.5942 23.0199 17.5994 -2.63676 -2.31197 4.01473
20.1606 18.7146 18.6177 -2.84709 -2.34635 0.114311
19.8306 16.9205 21.3526 2.27954 -1.05801 -0.294395
23.4021 22.1231 20.5171 3.2299 -2.79873 -2.99827
18.7091 21.7195 20.0393 -1.61877 1.98281 -2.36259
19.6079 20.2977 21.6634 -1.55944 -2.88943 -0.323127
ITEM: TIMESTEP
4000
ITEM: NUMBER OF ATOMS
19
ITEM: BOX BOUNDS ss ss ss
1.7016736781194041e+01 2.3725738255344151e+01
1.6523663123540793e+01 2.4332810131879363e+01
1.7683046929398969e+01 2.2778989634177822e+01
ITEM: ATOMS x y z vx vy vz
16.9482 19.2839 20.8564 -1.63386 -2.34049 -0.0549828
23.4267 18.2966 21.8647 -1.49238 0.144298 -2.41687
20.2587 16.4709 22.4337 2.14574 0.373712 -1.18304
17.9424 16.995 21.3673 2.00478 -1.1394 -0.664447
20.8193 24.3588 17.6455 0.913258 1.15838 -3.17627
20.4724 21.5675 18.7111 1.19334 4.52594 1.93633
21.7382 19.3643 20.4909 2.60918 -5.24581 2.34682
23.6539 20.9788 22.1019 -1.64293 1.58931 -1.93739
22.3163 23.6486 19.079 4.61358 -1.19063 -2.87893
20.4368 23.7942 20.2036 1.70086 -3.36269 0.0536147
21.508 18.8732 22.945 -1.68385 0.609671 3.95797
21.1955 21.6621 21.4273 -3.40709 1.67368 -1.87275
17.3511 21.0131 18.6979 -0.970663 0.592997 -0.852699
18.5979 23.6346 18.3673 -2.62093 -0.811044 4.40294
18.9342 19.1673 19.0668 -0.793922 1.77385 -1.12913
20.4905 17.0158 20.2919 -2.09741 1.19524 2.41529
23.4334 21.0072 19.6213 1.77943 0.927018 1.50382
18.7024 21.3414 20.5528 -0.205124 -0.368698 1.66279
19.279 19.0317 21.7808 -0.412014 -0.105347 -2.11307
ITEM: TIMESTEP
5000
ITEM: NUMBER OF ATOMS
19
ITEM: BOX BOUNDS ss ss ss
1.6841128155533365e+01 2.3708178710691111e+01
1.7042299447045909e+01 2.3742255296195747e+01
1.7676474201708345e+01 2.2963263651531996e+01
ITEM: ATOMS x y z vx vy vz
16.9829 19.3081 20.1908 2.92837 2.11652 -3.69623
22.8135 18.1042 22.8009 -2.3525 2.28548 -3.05669
20.5374 17.3395 21.8169 -1.17777 -0.884 -0.0155662
18.428 17.1557 20.0687 1.55632 2.71534 -0.228501
22.3219 18.6221 20.3309 2.18064 -5.08489 -5.00227
20.8694 19.8677 22.5182 -0.0476103 2.03576 0.766464
19.746 19.5398 20.1589 0.993641 -2.22822 2.20079
20.9406 17.306 19.3072 -0.728228 -0.78059 0.059744
18.2471 18.6635 22.3351 -2.92857 -2.30731 1.72452
20.2292 23.5098 17.4289 -2.65689 0.330371 -5.54064
20.4629 21.4408 18.7132 -0.831572 -1.53408 0.324775
23.6562 20.2814 21.9 -1.19077 2.1532 2.98404
22.7809 22.7771 17.8725 -1.67453 -1.91738 0.899129
21.3088 23.7315 19.7604 2.52113 0.49195 0.0929043
20.4339 22.1067 21.693 2.20373 0.147624 3.69182
17.5716 21.1566 18.8669 0.671523 -2.5967 1.05807
18.6564 23.1807 19.911 0.374091 5.00888 -0.178854
23.3089 21.987 20.1351 -0.596833 2.49372 1.17606
18.2092 21.4269 21.6961 0.755844 -2.44566 2.74043
ITEM: TIMESTEP
6000
ITEM: NUMBER OF ATOMS
19
ITEM: BOX BOUNDS ss ss ss
1.7290429470815575e+01 2.3288633716926551e+01
1.6399482684427891e+01 2.4377955723605186e+01
1.7559120398580156e+01 2.2947731596736464e+01
ITEM: ATOMS x y z vx vy vz
17.1558 20.0818 20.55 -0.847899 0.564104 0.917057
22.3377 18.2805 22.0011 2.84302 -1.95402 -0.555438
20.2799 16.8147 22.3822 0.285608 -2.56883 0.0258961
19.0589 15.9523 20.0394 -0.74434 -2.61627 -1.62402
22.5459 19.6245 19.6398 -0.531239 1.67846 1.47257
19.6616 19.0722 22.6224 -2.79807 2.84924 -1.16817
19.7457 18.6594 20.0307 -0.331773 -3.16207 1.93892
21.6736 16.7206 20.4267 0.615552 -0.173654 -2.13344
17.9231 17.4208 21.5447 2.57837 -2.44156 0.145657
19.8532 23.1193 17.6605 -1.33485 -5.21471 1.44031
20.6063 21.3182 19.4851 0.24857 2.4377 0.811938
21.7865 20.7593 22.2329 -3.23871 2.59377 0.346038
21.7722 21.9769 17.4709 -0.0118025 1.30432 2.04263
21.8919 24.5963 18.7853 3.05163 -1.3735 -2.26277
21.5324 23.4328 21.1638 -1.23409 -2.95374 1.87604
17.9072 22.1114 19.3802 1.76093 2.50385 -1.98555
19.4312 24.212 20.4475 -0.437751 4.176 0.530885
23.234 21.9083 19.8375 -0.718043 0.455675 -2.91543
19.108 21.4439 21.8042 0.844889 3.89524 1.09687
ITEM: TIMESTEP
7000
ITEM: NUMBER OF ATOMS
19
ITEM: BOX BOUNDS ss ss ss
1.7622821581576851e+01 2.2741463199815175e+01
1.6199087597185137e+01 2.4429898575667782e+01
1.7186921784160546e+01 2.3101646747227221e+01
ITEM: ATOMS x y z vx vy vz
18.1741 20.7116 21.5015 -2.65874 2.38909 -1.3789
21.9443 18.282 22.1083 1.36419 -0.575935 1.39612
20.1884 16.2648 21.8793 -0.902303 -0.357114 -0.32928
20.4836 16.7628 19.2957 1.28937 1.75276 -0.755754
22.4823 18.8918 18.9788 -3.27877 -3.81772 -2.12887
19.4407 18.5172 23.0195 -0.19181 2.12765 -0.21789
20.6086 19.3345 20.6728 2.83673 0.48945 0.489904
22.7362 16.3394 20.0395 4.26566 3.36521 -0.189378
18.6301 17.6783 20.8783 0.275849 -0.269165 -2.96481
19.808 22.8835 17.1676 0.450862 -1.06976 1.12867
19.6331 21.7277 19.4358 -2.15656 -1.13755 0.795688
20.7227 21.4038 22.4593 -0.610134 1.7968 -1.1326
21.2754 20.6196 17.7967 -0.0531857 1.44928 1.65014
21.9851 23.0863 18.7363 -3.59619 -4.64392 2.58003
21.3663 23.3925 21.0192 0.68256 -2.60763 -1.02736
17.6288 22.878 20.2526 -2.05792 0.743063 -0.18671
19.5509 24.3987 19.7118 1.63142 -0.341704 0.371197
22.3964 21.0718 20.2319 1.79446 -2.02553 0.355528
18.45 23.2606 22.32 0.914516 2.73271 1.54428
ITEM: TIMESTEP
8000
ITEM: NUMBER OF ATOMS
19
ITEM: BOX BOUNDS ss ss ss
1.7084069772427927e+01 2.3543629867500915e+01
1.6438594501909201e+01 2.4113269499125188e+01
1.7907512215565820e+01 2.2674006025667417e+01
ITEM: ATOMS x y z vx vy vz
21.4202 18.7389 22.2839 1.72182 2.04802 -0.973998
20.6087 16.5263 21.5401 -1.10689 -1.9034 0.0316829
22.1227 16.1848 19.5332 1.81561 -0.619252 -0.782914
22.6504 18.6463 18.4782 -2.70765 -0.879054 2.72427
18.5774 19.1405 21.7808 0.258731 3.19651 -1.20821
20.2903 18.198 19.7215 -1.02311 -3.48908 1.4098
23.8759 17.9812 20.3799 0.641763 1.59346 -1.23995
17.6662 19.8645 19.6432 -3.18993 -0.274839 -5.45317
17.9311 21.2638 22.3881 2.62503 -2.29194 -3.00205
18.7064 23.0176 18.3377 -3.75931 -1.14867 2.83481
19.8365 21.2405 20.235 0.675567 1.52865 0.477997
20.6384 21.0122 22.7608 -1.73647 1.30385 0.493754
20.4886 19.9695 18.239 2.21691 -1.42809 -0.787237
21.8038 22.4475 18.6881 -0.885634 -3.91006 1.53121
21.9544 22.8633 20.9922 -0.647627 1.97075 2.0911
17.3026 22.5253 20.3879 3.31004 1.37103 3.27034
20.0184 24.2692 19.7434 0.654729 3.21145 -1.56163
22.3966 20.2113 20.6334 -0.0896073 0.814215 0.248904
19.2165 23.4045 21.7387 1.226 -1.09355 -0.104704
ITEM: TIMESTEP
9000
ITEM: NUMBER OF ATOMS
19
ITEM: BOX BOUNDS ss ss ss
1.7668441655286259e+01 2.3586389685820119e+01
1.6668961497989798e+01 2.3931640340741879e+01
1.7544040868615301e+01 2.2854242948632599e+01
ITEM: ATOMS x y z vx vy vz
21.2995 18.9501 21.9107 -2.05213 0.305031 -0.655333
20.2724 16.6302 22.0485 2.39525 -0.792179 1.69739
21.852 16.8731 19.9366 0.684619 0.490073 1.87652
21.8224 19.698 18.595 -0.335747 1.87074 -3.36295
18.1125 18.1601 21.8196 2.75005 0.222912 -4.68828
19.6765 18.1824 19.6802 1.83822 0.915757 1.84907
23.4469 18.6216 19.9517 -3.54063 -2.95621 -0.801481
17.6785 19.6907 19.5587 -0.0658798 0.193864 0.0786513
19.3146 19.7927 17.6339 -0.0756569 -1.43986 2.733
17.8647 20.3877 22.093 1.21246 -1.00552 1.65293
19.6458 22.4911 17.6734 -0.315848 0.59146 0.815825
20.2681 21.1292 20.2153 -2.57343 4.12399 3.44551
21.3575 21.6617 22.8126 -1.02888 0.353964 -1.61955
22.2588 22.4962 18.763 -1.26226 1.27674 1.00511
22.0823 23.369 21.1533 -2.40241 -2.98684 0.621903
17.9274 22.1271 20.329 1.1615 0.380228 -3.53746
20.1101 23.9125 19.7056 3.21598 -0.939559 -1.0444
23.3473 20.4358 21.4977 -0.776499 -0.822852 -0.130587
19.1679 22.8956 22.1272 1.17128 0.218268 0.0641456
ITEM: TIMESTEP
10000
ITEM: NUMBER OF ATOMS
19
ITEM: BOX BOUNDS ss ss ss
1.7587964646007560e+01 2.3023765406254157e+01
1.6411849428902560e+01 2.4261119829122954e+01
1.7692463113301649e+01 2.2974008065364419e+01
ITEM: ATOMS x y z vx vy vz
21.4503 18.5692 22.382 -1.16388 2.234 -1.42011
19.5573 16.7851 22.5539 -0.957439 0.93751 2.46953
21.683 16.509 20.2872 -2.18752 1.29872 1.99798
21.9393 19.971 18.1105 -1.79592 -2.31771 -1.46148
19.0935 18.3466 20.5675 1.09495 -0.801886 -3.42468
20.4337 17.7856 18.5329 2.67095 4.08475 -1.43758
22.7392 18.8181 20.219 -0.241716 1.35916 -2.86213
17.4673 20.481 20.8238 0.282512 -2.63108 -0.529247
18.8851 19.661 17.9598 -0.0679115 -1.58522 -1.67065
19.2245 19.8471 22.5991 0.397161 -0.143842 -1.18086
20.1007 21.8805 17.8811 -0.861162 -2.50644 -2.5725
20.4751 20.5825 20.226 -4.02216 -2.73268 5.6602
21.2931 21.4992 23.4244 -0.263995 -0.403981 2.67684
22.1721 22.7959 19.1647 0.308519 0.091018 -0.870271
21.2511 23.3796 21.0415 3.23771 2.51226 1.63734
18.1588 22.5627 19.5058 2.86597 0.918038 0.578053
19.7263 24.314 18.9735 -0.607424 -0.900528 0.487668
22.793 21.1169 21.3485 -0.37196 1.78783 0.389508
19.0615 22.6001 21.9037 1.68332 -1.1999 1.53239
ITEM: TIMESTEP
11000
ITEM: NUMBER OF ATOMS
19
ITEM: BOX BOUNDS ss ss ss
1.7505672161144485e+01 2.3986112902027518e+01
1.7732236162748329e+01 2.3146556106085153e+01
1.7193615097484333e+01 2.4049259618932766e+01
ITEM: ATOMS x y z vx vy vz
22.3674 19.3241 22.1894 -0.194226 2.30795 -1.86781
19.7106 19.4246 22.5921 0.384086 -0.47741 -0.900231
21.2825 17.7487 20.7286 2.20288 -1.06487 2.3371
21.8702 20.1798 17.2678 -0.47255 1.80575 0.575049
18.93 18.2044 20.2229 -3.38235 2.21499 0.0669115
21.1749 17.8905 18.3631 2.10733 -0.554846 2.16997
23.0672 19.2287 19.4545 0.525943 -1.24206 2.37238
17.4385 20.3495 20.9496 -0.988473 -2.08582 0.18221
19.1539 19.7413 17.8585 -1.92622 -1.78774 0.0283977
17.583 20.3458 23.6423 -2.95062 -1.44826 -2.72948
19.4324 21.7861 17.2211 -1.37777 2.90958 0.553812
20.5806 20.4163 19.9614 -3.15957 2.06709 -0.804848
20.8505 20.9736 24.1332 0.753044 0.873333 0.867788
22.1155 22.085 18.9732 -0.0819916 -1.51896 -3.74181
21.5416 21.7071 21.6433 2.90282 -0.871321 1.71738
17.8379 21.7988 19.219 1.48774 -0.541644 -1.44085
19.8792 23.2391 19.9356 1.71976 1.02525 2.26707
24.0927 20.8346 20.9009 1.28438 -0.237281 -1.78005
18.5966 22.227 22.2485 1.1658 -1.37374 0.126991
ITEM: TIMESTEP
12000
ITEM: NUMBER OF ATOMS
19
ITEM: BOX BOUNDS ss ss ss
1.7641089608884272e+01 2.4168215486424447e+01
1.7128708171121126e+01 2.3605318451621642e+01
1.7552436646866617e+01 2.3503841522022444e+01
ITEM: ATOMS x y z vx vy vz
22.2235 19.4529 22.1842 0.212794 -3.16376 2.59995
19.4507 18.4221 22.191 -1.75842 -0.16502 -0.483461
21.1613 17.7121 20.1423 -2.78251 1.79258 0.333325
20.8574 20.1358 17.9711 1.04279 0.0700534 1.72926
18.8257 17.0007 20.2414 -1.21318 -2.78437 0.0364804
20.4961 17.7272 17.7639 0.13159 -0.0731013 1.95283
22.7196 19.7262 19.5105 -1.3591 3.76357 3.37789
17.7341 19.943 20.8492 2.8709 -0.159388 -2.65529
18.6121 18.7631 18.8538 -0.777277 -3.93107 -2.41194
18.191 21.0747 23.469 0.25171 -0.217046 1.30034
20.562 22.5473 17.5415 -0.286822 0.113637 -2.07226
20.5996 20.6094 20.6918 1.60685 -0.683179 -1.4585
20.4279 20.6669 23.6796 2.47206 1.59452 -1.62653
22.6719 22.1942 18.8763 -1.00774 2.15203 -0.839533
21.7296 22.8014 21.9811 2.72736 -1.33692 1.52727
18.5484 21.6061 18.7638 -0.747734 1.06244 0.251948
20.4741 23.4275 19.8929 1.75339 2.05365 -0.0156481
23.544 21.3536 21.2406 -3.88677 0.899021 -2.33936
18.676 22.341 21.6609 0.750111 -0.987652 0.79323
ITEM: TIMESTEP
13000
ITEM: NUMBER OF ATOMS
19
ITEM: BOX BOUNDS ss ss ss
1.8038766222513743e+01 2.3428239799914493e+01
1.7142678452784889e+01 2.3487883094346298e+01
1.7650896819194820e+01 2.3822136190997735e+01
ITEM: ATOMS x y z vx vy vz
22.352 18.7768 21.6415 1.22749 -1.37199 -2.79273
19.8239 18.5707 22.2185 0.878095 0.33156 -0.162046
21.4416 17.4268 19.998 0.809828 0.485503 2.14853
21.7122 18.9031 17.8161 3.18412 -0.214969 -0.414989
18.8155 17.6126 20.2151 -0.059518 0.510474 -1.02831
19.2704 17.62 17.8114 -0.574838 -0.304918 1.50378
22.9133 20.3068 19.5597 -2.80319 1.61935 -0.809843
17.3295 19.6405 20.9482 0.297283 2.67381 -1.94679
18.9401 19.686 18.7655 -3.09956 -1.49548 3.01934
18.52 20.6183 23.3111 0.241698 -1.542 -1.83845
20.72 21.297 17.869 2.00717 -0.615941 -0.0587814
20.6851 20.67 20.5228 1.80909 0.386451 1.53894
20.9899 21.0671 23.199 -0.534461 -1.35454 1.76478
22.5511 22.6245 19.4091 0.676449 -1.41728 -0.596824
21.5777 23.2249 21.8361 -0.842121 -1.44893 0.248364
18.0761 22.2254 19.004 0.458029 -1.09497 2.42324
19.6737 23.7122 19.7789 -1.3103 1.92955 0.782466
23.1948 21.2671 21.9405 -2.51989 -0.0121197 -1.52465
18.9179 22.2553 21.6604 0.15462 2.93644 -2.25604
ITEM: TIMESTEP
14000
ITEM: NUMBER OF ATOMS
19
ITEM: BOX BOUNDS ss ss ss
1.7938959767432394e+01 2.3108052404326656e+01
1.7281691073133210e+01 2.3326634334218120e+01
1.7415142506950421e+01 2.3722771784877846e+01
ITEM: ATOMS x y z vx vy vz
22.8915 18.8 22.0494 2.26499 -1.99714 -4.51293
20.1206 18.8027 22.4134 -2.27857 -0.370078 0.190278
21.2387 17.9538 20.0962 0.858044 1.30267 -0.829194
20.817 18.9007 17.8096 0.484341 -0.864221 1.66964
18.7878 17.2244 19.8888 -0.401694 2.2274 -1.3492
19.2815 17.6002 17.3647 -1.78712 -0.439736 0.429573
23.0075 19.9492 19.6274 -0.367926 0.0871813 2.5744
18.0132 19.794 21.2577 0.255077 -0.113066 -1.63945
18.5605 19.7304 18.8109 1.73673 1.70519 0.537255
18.8962 21.2207 23.1182 2.81761 3.08143 0.524144
20.7563 21.4864 18.0022 -2.2456 2.39964 0.732402
20.6949 20.6973 20.4842 -0.939699 1.82036 2.953
21.5996 20.5452 23.6037 0.277415 1.80871 -0.0785968
22.4563 22.837 19.6539 -1.74916 -2.47878 0.506978
20.9728 22.7399 22.2546 -0.668189 -0.609619 0.679615
18.1616 21.8475 18.4172 2.74935 -3.2123 -1.14433
20.1774 23.5409 19.8698 -1.3762 0.574785 -1.65941
23.0536 21.4402 21.7752 0.874455 -1.33101 1.47786
18.018 22.3946 21.0079 -0.503849 -3.59141 -1.06204
ITEM: TIMESTEP
15000
ITEM: NUMBER OF ATOMS
19
ITEM: BOX BOUNDS ss ss ss
1.7827401547000942e+01 2.3476779186043803e+01
1.7382143108812638e+01 2.3570437027825704e+01
1.7685407179475344e+01 2.3288614022396793e+01
ITEM: ATOMS x y z vx vy vz
22.4825 19.1846 21.7545 0.427431 -0.0330695 -2.41999
20.0514 18.4471 22.4752 2.95531 -1.9163 3.93503
20.9431 18.029 19.9846 -1.65497 -2.84705 -1.23537
20.9012 19.2987 17.8007 3.63404 2.11525 -1.67857
18.6609 16.878 20.637 -2.79847 -0.585021 1.61939
18.909 17.2755 18.219 1.26985 0.169227 -2.33313
23.0519 20.4264 19.2268 1.11443 -0.577053 0.549536
18.4542 19.3994 21.0387 -0.111061 1.49646 -0.77149
18.3985 19.5451 18.6013 -3.14162 0.259315 -0.597469
18.6928 20.7621 23.2983 -0.648603 -1.66084 0.144728
21.2062 21.6621 17.7388 -2.62441 -0.953784 -1.15724
20.6098 20.7238 20.2963 0.973513 -0.899701 3.00927
21.2903 20.5645 23.3088 -1.49154 2.62186 2.41286
22.8488 22.7468 19.8344 0.656965 -0.583229 1.23073
20.4454 22.6875 22.1601 -0.540638 -0.131935 -1.98075
18.855 22.3225 18.4205 1.06233 -0.243733 -1.67912
20.6106 23.5916 19.8279 0.603284 1.88994 -0.14087
23.0764 21.7459 21.9725 0.893524 1.64098 -0.90548
18.0171 22.2145 20.9095 -0.579375 0.238695 1.99795
ITEM: TIMESTEP
16000
ITEM: NUMBER OF ATOMS
19
ITEM: BOX BOUNDS ss ss ss
1.7602636960532060e+01 2.3309298905817304e+01
1.6953475044615772e+01 2.3247355972482971e+01
1.7244696029774108e+01 2.3510461568310607e+01
ITEM: ATOMS x y z vx vy vz
22.1426 18.8523 21.8962 -0.853603 1.26367 1.79372
19.7336 18.7457 22.2689 -0.36167 -0.084525 0.0765158
20.9773 17.5347 19.9282 -1.39735 0.157575 2.9822
21.6329 18.9999 17.1307 0.918331 0.883212 -1.66761
18.6607 17.3601 20.3248 1.18378 -2.69982 0.29138
20.0915 17.0397 17.3663 -2.17938 0.220802 -1.29005
22.6262 19.9034 19.2322 -0.842927 2.54938 2.6025
17.884 19.8524 20.9882 2.27988 -0.0947409 -0.889938
19.1544 19.1898 18.6182 -0.16556 2.12418 -0.609601
18.72 21.2171 23.1646 -0.314087 -1.86117 1.43686
20.9502 21.4888 17.7936 2.03966 -0.269022 0.76454
20.5235 20.6933 20.6738 0.851538 -1.25204 -1.24279
21.2411 21.0004 23.5789 0.499208 0.088981 -2.42009
22.6217 22.5951 19.9296 0.50124 -1.53178 -1.70283
20.7653 23.1066 22.112 0.496324 -1.82157 -1.39703
18.1154 21.9148 19.7335 2.16584 -0.0249347 4.2837
20.1204 23.3989 19.4814 -0.979426 1.55883 -2.27768
23.1538 21.32 21.5815 -2.97036 -0.0863831 0.133376
18.3903 23.292 21.7027 -0.871433 0.879361 -0.867164
ITEM: TIMESTEP
17000
ITEM: NUMBER OF ATOMS
19
ITEM: BOX BOUNDS ss ss ss
1.7602636960532060e+01 2.3309298905817304e+01
1.6953475044615772e+01 2.3247355972482971e+01
1.7244696029774108e+01 2.3510461568310607e+01
ITEM: ATOMS x y z vx vy vz
22.6789 18.692 21.8938 1.56644 2.18033 2.60008
19.6247 18.5133 22.0132 2.78871 -0.155827 -0.513044
21.2818 17.7826 20.1065 0.0391389 1.72976 4.07699
21.493 18.9373 17.8387 0.70831 -2.12312 -4.33185
18.491 17.3524 19.9848 -2.22078 -0.52584 0.860436
19.9453 17.0747 18.0087 -3.2474 3.2065 0.257543
23.1016 19.9713 19.5523 -0.954262 -0.134957 1.76694
17.3055 19.7539 20.7171 -1.52641 -1.50798 -1.94858
19.0824 19.6048 18.7969 1.49758 0.880317 -2.40982
18.9399 21.301 22.4305 -0.0589361 -0.819191 -0.242401
20.7485 21.6691 17.8849 2.36401 2.59555 -1.78715
20.7095 20.5687 20.6442 0.247768 -2.66818 2.22089
21.065 20.5698 23.3438 -0.41825 0.687097 -2.35793
22.4859 22.629 19.3916 -1.00696 -1.70827 -0.682482
20.9669 23.0674 22.121 2.26136 -0.0855125 -0.414151
17.9403 21.8168 19.708 -0.0705991 -0.00803251 1.04787
20.0787 23.4684 19.6785 0.370726 -1.13711 -0.475472
23.2346 21.1645 21.7996 -1.61831 1.34354 -0.284213
18.3315 23.5682 21.5909 -0.722146 -1.74907 2.61635
ITEM: TIMESTEP
18000
ITEM: NUMBER OF ATOMS
19
ITEM: BOX BOUNDS ss ss ss
1.8090518792127813e+01 2.3209093838026352e+01
1.6861982004623425e+01 2.3522563789682376e+01
1.6976676680259104e+01 2.3317840242329716e+01
ITEM: ATOMS x y z vx vy vz
21.9223 18.9998 22.0166 -2.45283 0.461302 0.882729
19.2486 18.6164 22.6909 0.732143 0.507435 0.354803
21.0182 18.5665 19.2757 1.85888 0.164024 -1.47469
20.5662 18.9083 16.8231 -0.969548 -0.605296 -2.17989
20.3003 16.9171 21.2341 2.54674 1.46013 0.854197
19.0078 17.4854 18.2993 2.52607 0.908832 -0.0449229
23.2886 19.9494 19.9966 -0.418143 0.712656 -1.64266
18.2829 19.2269 20.0224 -0.104538 2.9478 0.823265
18.5806 20.1692 17.7983 -2.79296 -0.722585 0.215742
18.1276 20.593 22.4784 -0.806738 -1.67046 -0.934142
21.1049 20.9768 18.1421 -0.209715 -2.66392 0.0174501
20.3868 20.8307 20.6108 -0.926788 0.569632 2.07117
20.5811 21.0605 23.3684 -1.38513 -0.61831 -0.395862
22.7158 22.2737 19.6178 1.18301 -1.68176 1.31142
21.5356 23.3114 21.9206 1.02622 0.885629 -2.67514
18.445 22.0604 19.2725 -1.46476 -0.602313 -1.0292
20.2832 23.7144 19.7483 1.92271 0.819635 3.3667
23.1518 21.1068 22.2453 -0.00619165 -1.25296 0.661383
18.9576 22.7382 21.9439 -0.258444 0.380533 -0.182356
ITEM: TIMESTEP
19000
ITEM: NUMBER OF ATOMS
19
ITEM: BOX BOUNDS ss ss ss
1.8141455497238955e+01 2.3122435411087345e+01
1.6850877638166693e+01 2.3559217270353031e+01
1.6680880783342563e+01 2.3499883771763940e+01
ITEM: ATOMS x y z vx vy vz
22.2476 18.3122 21.3676 -2.01515 0.430041 -1.63988
20.2784 19.1199 22.9699 2.04293 1.07336 1.37871
21.0044 18.4677 19.1975 -1.5063 0.801426 -1.5798
20.5927 18.7707 16.8955 1.55765 -0.827987 0.378962
20.0144 17.0667 21.2214 0.657153 0.910644 3.36889
18.8137 17.4652 18.0858 -1.3588 -1.97526 -0.972052
23.2654 19.9638 19.7545 3.02891 -1.00609 -1.95009
18.5668 19.0511 20.235 -0.797801 -0.180778 1.36019
18.4585 20.1045 17.6089 2.08093 3.65786 -0.163476
18.0365 20.5311 22.2755 0.542707 -0.476205 -1.19536
20.9868 21.1302 18.2303 1.98604 1.10592 0.00319646
20.421 20.9467 20.8424 -2.8225 -0.16214 1.28829
20.0052 21.6652 23.4314 0.0451752 0.630285 -1.3761
22.927 22.4626 20.1627 0.952698 1.19417 -2.08211
21.5751 23.1914 22.1017 -0.828634 -1.71809 0.830702
18.4434 21.7969 19.4925 -2.02072 -2.11244 -0.856771
20.4217 23.2659 19.531 -0.585353 -0.529595 1.09641
22.6165 21.0884 22.2458 -1.62158 -0.864821 1.078
18.8299 23.1047 21.8556 0.662648 0.0496963 1.0323
ITEM: TIMESTEP
20000
ITEM: NUMBER OF ATOMS
19
ITEM: BOX BOUNDS ss ss ss
1.7773754299129223e+01 2.2947507372939384e+01
1.7768616879431232e+01 2.3484577480405751e+01
1.6654979008656937e+01 2.3616461668344943e+01
ITEM: ATOMS x y z vx vy vz
22.1211 18.2026 21.3191 2.69744 0.481549 1.14869
20.6409 19.4076 23.2355 -0.955558 0.678052 -2.99381
21.7023 18.452 18.9132 -0.59692 -1.0473 -1.05092
20.3942 19.0243 16.6531 1.20445 0.769193 -1.46138
19.6551 18.0025 20.9807 2.80583 3.04894 0.601247
18.86 17.8049 18.4443 -0.876363 -2.52917 2.68444
23.4471 19.8171 19.9841 -0.0963716 0.350261 -2.41281
17.3031 19.0754 19.9911 -0.0331505 1.82231 0.594418
19.1982 20.3806 18.3985 0.801324 -2.81274 -0.65339
18.272 20.1553 22.0193 -1.00003 2.38688 -2.39702
21.7478 20.8049 18.0689 -2.01692 1.32697 1.18422
20.7093 20.6079 20.6638 0.0511809 -0.834998 1.95476
20.4312 21.8478 23.5362 -0.808267 -1.93067 -0.467922
22.8314 22.4421 19.9816 -1.45173 -0.0303379 0.177826
21.3463 23.2073 21.5439 -0.670054 -0.0131413 1.40563
17.8343 21.6893 19.8269 -0.53758 1.73416 1.37949
20.0131 23.0174 19.5569 1.62452 -0.721155 -0.719852
22.5781 20.8372 22.4342 -1.42706 -1.9193 1.37303
18.4194 22.7287 21.9537 1.28526 -0.759507 -0.346645
ITEM: TIMESTEP
21000
ITEM: NUMBER OF ATOMS
19
ITEM: BOX BOUNDS ss ss ss
1.7233206680283619e+01 2.3374023851029460e+01
1.7788552852205324e+01 2.3514263917307105e+01
1.6708851934308981e+01 2.3510849352775129e+01
ITEM: ATOMS x y z vx vy vz
22.2463 18.0972 21.549 -1.98491 -0.645625 -0.255993
20.3227 19.2335 23.0529 -1.46763 1.7425 -1.41154
21.7831 18.2277 18.89 2.49081 -1.48246 1.13944
20.6613 19.025 16.3942 -0.00530272 -2.30394 -2.61431
19.6633 17.7081 21.0974 1.63552 -0.719046 1.61994
19.4969 17.6563 18.3512 0.675646 1.17316 0.539326
23.0701 20.0811 19.982 0.773975 1.42726 -2.45463
17.9074 19.1714 20.1303 0.498015 -1.25612 1.49217
18.3853 20.3148 18.0015 -2.14355 1.6312 1.63218
18.2638 20.6993 22.3862 -0.771156 1.47551 -0.25518
21.507 20.8732 17.8346 -0.738651 0.685685 -0.57002
20.3493 20.2133 20.2773 0.152829 -0.743141 0.141112
20.0675 21.7839 23.695 1.06537 -1.67681 1.02411
22.0145 22.527 20.3923 -0.0989015 1.40556 1.35544
21.8361 23.3496 22.8816 -1.75896 0.367389 0.932326
17.834 21.9715 20.2582 1.47542 0.0855308 0.493751
19.804 22.4838 18.6459 1.36669 2.03837 0.0566976
22.4599 20.9869 22.3333 -1.57204 -2.19754 0.0198185
19.8323 23.1014 21.3521 0.406816 -1.00748 -2.88463
ITEM: TIMESTEP
22000
ITEM: NUMBER OF ATOMS
19
ITEM: BOX BOUNDS ss ss ss
1.7787461942111982e+01 2.3297263901277852e+01
1.7514663039865834e+01 2.3399782326378393e+01
1.6824966133412026e+01 2.3810685360996072e+01
ITEM: ATOMS x y z vx vy vz
22.2858 18.46 21.3267 2.35925 2.51158 0.320651
20.3 19.2037 23.0469 -0.712343 -2.12146 -2.04029
21.7614 18.0462 18.8968 -2.68078 2.28527 1.43041
20.3915 19.0508 16.8859 -0.0270553 -0.0684618 -2.01484
19.9152 17.4771 20.8501 1.18355 -0.931647 0.603395
18.7899 18.477 18.6214 -1.24018 -2.55971 0.83193
23.4812 20.0842 19.8514 -0.905564 -2.00314 -1.81253
17.8685 18.7529 21.021 0.757572 1.61756 -3.92488
19.0706 20.9959 17.4589 1.15264 -0.224657 1.62375
18.2042 20.9499 22.5052 0.0495482 2.58816 0.0559916
21.6602 20.7877 17.9686 1.08005 -0.825049 0.245263
20.3022 20.2166 20.2884 1.70721 -2.28166 4.24074
20.1999 21.8353 23.6371 0.0705695 -1.23814 -2.09211
22.1526 22.4146 20.393 -0.653946 1.07896 -0.539808
21.636 23.5336 22.4178 -1.24853 0.966918 0.857994
17.7554 20.9453 19.8173 0.231844 0.980724 1.37176
20.0801 22.8029 18.7771 -0.865791 -0.396511 0.327578
22.1699 20.8259 22.4415 -0.872318 -0.420453 0.131173
19.4804 22.6455 21.2997 0.614281 1.0417 0.383813
ITEM: TIMESTEP
23000
ITEM: NUMBER OF ATOMS
19
ITEM: BOX BOUNDS ss ss ss
1.7500828513047860e+01 2.3308828833223949e+01
1.7354243517104891e+01 2.3362571143063164e+01
1.6646794944030709e+01 2.3264138723206457e+01
ITEM: ATOMS x y z vx vy vz
21.8881 19.0096 21.7635 0.412884 0.820163 -0.684808
19.1304 18.8543 22.8654 -0.893082 -0.0626314 2.20523
21.5803 18.3009 19.0962 0.547031 -2.40931 1.01135
20.9989 19.0499 16.8584 -0.474878 -0.564357 -0.675952
19.6114 17.5858 20.6308 1.01094 0.80242 -0.77864
19.316 17.3 17.8965 -1.76766 1.302 -1.60196
23.4057 19.9974 19.7988 -0.813935 2.02745 -0.701703
17.7126 19.1027 20.7644 1.09927 0.93786 2.11178
19.0546 19.9493 18.2098 1.51608 0.0939654 -1.09519
18.4128 21.3535 22.7889 1.83999 -0.469338 -0.367459
21.6286 21.1976 17.7415 -0.548388 -0.176464 -0.920656
20.0825 20.4486 20.5632 -0.00126996 -1.13014 1.67955
20.8637 21.0703 23.3898 -0.0840957 1.11512 -1.20116
22.0928 22.3541 20.178 2.13646 -0.575189 1.46762
21.6439 23.2626 22.657 0.0960293 -0.166375 1.74632
17.695 21.6037 20.0601 -0.510612 1.11343 -0.253927
19.7312 22.6159 18.8043 0.36432 -0.155941 -2.43043
23.1694 21.3557 22.0409 -1.2154 -0.196499 1.01918
19.4872 23.0929 21.3975 -2.71368 -2.30616 -0.52915
ITEM: TIMESTEP
24000
ITEM: NUMBER OF ATOMS
19
ITEM: BOX BOUNDS ss ss ss
1.7500828513047860e+01 2.3308828833223949e+01
1.7354243517104891e+01 2.3362571143063164e+01
1.6646794944030709e+01 2.3264138723206457e+01
ITEM: ATOMS x y z vx vy vz
22.1469 18.267 21.7938 -0.245428 1.07762 -0.149115
19.9463 18.7673 22.8578 1.99674 -0.334076 0.583734
21.3295 18.3411 19.1663 -0.964791 0.264502 4.27398
20.7134 19.1519 16.7015 0.439975 -0.027422 0.309236
19.9959 17.1071 21.0105 -1.28797 2.7251 -2.74099
18.8714 17.976 18.3558 1.22345 -0.5669 0.354813
23.123 20.2522 19.8913 -1.02025 0.627246 -2.63971
18.3044 18.9973 20.6866 1.54331 -0.306462 0.580029
18.9273 20.4366 17.904 0.0673525 1.11746 -1.37224
18.1744 20.9104 22.4608 1.9173 -0.234103 -0.114822
21.8174 20.9343 17.8675 -0.883649 -0.792744 1.61389
20.5305 20.6862 20.6692 2.36624 -1.41134 0.923859
20.4195 21.405 23.3744 -0.766858 -1.51878 0.616464
21.988 22.7438 20.0613 0.219577 -1.40987 0.250497
21.5639 23.3414 22.6015 -2.01564 0.509007 -1.93015
17.7542 21.5537 19.9195 -1.89049 1.50393 -0.0123338
19.6732 22.6487 18.5953 -0.398766 0.987601 -2.69722
22.7819 20.8687 22.3186 -0.707482 -2.10731 1.1388
19.4438 23.1164 21.2692 0.407363 -0.103445 1.01128
ITEM: TIMESTEP
25000
ITEM: NUMBER OF ATOMS
19
ITEM: BOX BOUNDS ss ss ss
1.7825188457140786e+01 2.3261171088861836e+01
1.7242868280733742e+01 2.3426153711156509e+01