ITEM: TIMESTEP
0
ITEM: NUMBER OF ATOMS
192
ITEM: BOX BOUNDS ss ss ss
1.1832660805307123e+01 2.8791263731566911e+01
1.1367118970490534e+01 2.9414878944745137e+01
1.2539310609212855e+01 2.8250689638804030e+01
ITEM: ATOMS x y z vx vy vz
15.1421 14.9925 15.3529 0.101175 0.558308 -0.940246
17.7626 14.4409 16.4192 1.32885 2.20341 -0.677765
17.4915 15.6119 13.802 -0.0886007 -1.54144 -0.478016
19.5976 13.7131 14.3189 0.299304 -0.401562 -1.4716
22.4004 14.5796 14.4162 0.849156 2.11548 0.449719
25.2033 15.4461 14.5135 -0.0981026 -0.819467 1.34729
15.8388 17.7578 14.9334 1.13324 0.588323 -1.23903
14.1861 19.9038 16.0647 0.752518 2.3344 -0.679178
19.156 19.9716 15.5801 0.85534 2.23862 -0.398916
18.4593 17.2063 15.9997 -0.36625 -0.557676 -1.63453
18.1882 18.3772 13.3825 -0.397376 0.169656 0.77722
20.2943 16.4784 13.8994 0.0581649 -1.67255 -0.775393
24.065 18.9393 16.1943 1.02935 -0.052424 0.106833
23.7939 20.1103 13.5771 0.281926 1.44442 0.669776
21.2622 18.0728 16.097 -0.279849 -0.331169 -0.0883403
20.991 19.2437 13.4798 0.659618 -0.748596 0.944175
23.0972 17.3449 13.9967 -0.995793 -1.21075 1.50877
25.9 18.2115 14.094 -2.21029 1.60805 -0.347746
28.0857 18.9942 15.8023 -0.56375 -0.809762 -0.603308
14.8828 22.6691 15.6451 -0.497202 0.494355 2.1163
19.8527 22.7369 15.1606 0.495226 0.678304 -1.10837
19.5816 23.9079 12.5434 1.15628 1.30384 0.36847
17.2322 23.2885 14.0943 0.831396 0.199561 0.594862
18.8849 21.1425 12.9629 0.792363 -0.75845 1.74757
16.6643 24.8619 16.4417 0.118904 -0.115131 -0.369651
16.5355 20.5232 14.5138 -1.25497 -0.0783757 2.12774
21.7673 24.6905 14.2517 -1.47453 -0.513795 -2.22007
21.9589 20.8381 15.6775 -1.92416 0.530159 -0.309792
21.6877 22.0091 13.0603 -1.79439 -1.03852 1.20768
23.8735 22.7917 14.7686 -0.869198 -0.0419462 1.82848
25.9796 20.8929 15.2855 -0.00459895 0.879439 1.38493
19.0137 25.4813 14.8908 0.0222619 -0.347223 0.544048
23.953 25.4732 15.9601 0.28555 1.37695 0.601563
15.4132 13.8216 17.9701 1.47961 -0.445228 -2.36099
18.0337 13.27 19.0364 -0.855191 0.503428 -0.175546
16.3811 15.4159 20.1678 1.55884 -1.6345 0.785664
20.1399 11.3712 19.5533 -0.977808 -1.86247 -0.0578748
19.8687 12.5422 16.9361 0.290249 0.176718 -0.293339
23.6394 15.003 19.2311 -0.0960544 -1.26998 -0.954564
20.8366 14.1365 19.1338 -0.883621 -0.410828 -0.837791
20.5654 15.3075 16.5166 -1.58927 -1.26004 0.0227155
22.9427 12.2377 19.6506 0.446152 0.279548 -1.05569
22.6716 13.4087 17.0334 0.343353 0.921295 0.465883
26.4423 15.8696 19.3284 0.829244 0.521028 0.789002
25.7456 13.1042 19.7479 -0.480977 -2.69062 1.07238
25.4744 14.2752 17.1307 -0.221014 -0.484083 1.03831
14.4573 18.7328 18.6819 0.793587 -1.15277 0.261742
13.7605 15.9675 19.1014 -1.60003 0.355751 -1.44671
13.4894 17.1385 16.4842 1.15552 1.02194 -0.522682
12.1079 18.1135 20.2328 0.129215 0.32655 0.568668
11.8367 19.2844 17.6156 0.695921 -0.735251 -0.813447
19.4271 18.8006 18.1973 1.15625 -0.473176 -1.28511
18.7304 16.0353 18.6169 0.634721 0.304971 -1.52482
17.0778 18.1813 19.7482 0.0466525 -0.345882 -0.646689
16.8066 19.3522 17.131 -0.362531 -0.977024 0.740286
16.1099 16.5869 17.5506 -0.2902 -0.610453 2.57959
22.23 19.6672 18.2947 -2.29321 -0.32875 -0.447628
24.3361 17.7684 18.8115 0.254145 -0.158666 0.782767
21.5333 16.9018 18.7142 0.84745 1.59692 -0.209828
23.3683 16.174 16.6139 0.592236 0.740095 -1.7655
26.2507 19.722 17.9027 -1.4366 -0.800346 -0.805664
26.1711 17.0405 16.7112 -1.23905 -0.0526499 0.503297
28.3569 17.8232 18.4195 -0.487434 -2.57517 -2.70649
15.154 21.4982 18.2623 1.1322 1.77214 -1.9804
12.8046 20.8788 19.8132 0.945037 0.216407 0.915645
12.5334 22.0498 17.196 3.70726 -0.559998 0.381933
14.3149 24.2425 17.9925 -0.707035 0.142469 0.479099
11.9655 23.6232 19.5434 -0.13783 -1.30039 1.38824
20.1239 21.566 17.7778 -1.74321 1.496 0.389423
17.7745 20.9466 19.3287 -1.48048 -0.284054 0.456931
17.5033 22.1175 16.7115 0.875616 -0.0992674 -0.170709
19.5559 23.1394 20.1252 1.10444 -0.125552 0.824466
19.2848 24.3103 17.508 0.968728 -0.646036 1.17884
16.9354 23.691 19.0589 1.64739 0.164055 -0.931548
22.3096 22.3486 19.4861 -0.638042 0.0508588 -0.21866
22.0384 23.5196 16.8689 1.075 0.653889 1.18054
24.2242 24.3023 18.5773 0.642567 2.48795 -2.99362
24.4157 20.4498 20.003 0.22162 -1.36137 0.714086
24.1446 21.6208 17.3858 0.0542097 -0.120985 -0.421995
26.3303 22.4035 19.0941 -0.332232 -1.59281 0.352786
26.0592 23.5744 16.4769 -0.0268114 -1.6645 -0.261977
28.2449 24.3571 18.1853 0.228664 0.557048 -0.95701
28.4365 20.5047 19.611 -0.522993 0.671931 -1.59737
28.1653 21.6756 16.9938 3.18259 -0.707198 0.339398
13.747 25.816 20.3399 -2.94153 0.753206 -1.71524
18.7169 25.8837 19.8554 1.03642 -1.4919 -1.76139
18.4457 27.0547 17.2382 -1.30232 -0.454184 -1.95014
16.0963 26.4353 18.789 0.107563 -0.703754 1.48795
17.8778 28.6281 19.5855 1.47797 -1.20958 -2.145
21.4705 25.093 19.2163 0.627702 0.241858 1.89275
21.1994 26.264 16.5991 0.515219 0.712935 1.68233
20.6314 27.8374 18.9465 1.16672 0.470908 1.02088
23.3851 27.0467 18.3074 -1.10457 -0.545081 0.453603
26.4099 25.085 20.2856 -0.125187 -0.947785 0.227506
26.1388 26.2559 17.6684 -1.03184 -0.839 1.58947
25.5708 27.8293 20.0158 1.28894 2.50967 -0.56232
15.6844 12.6506 20.5873 1.85434 1.18087 1.47477
14.0317 14.7966 21.7186 1.41593 0.154067 -1.47753
19.2727 13.6934 23.8513 -1.70387 0.92683 1.2671
19.0016 14.8644 21.2341 -0.640248 1.53415 -0.766798
18.3049 12.099 21.6536 -0.595474 0.553108 0.719496
16.6522 14.245 22.785 2.22822 -1.30104 2.1374
22.0756 14.5599 23.9486 1.24273 0.506151 1.10368
21.8044 15.7309 21.3314 -0.391327 -0.550558 -1.738
23.9106 13.8321 21.8483 0.809278 -0.187747 -0.0068986
21.1077 12.9656 21.751 -0.666877 1.59684 -0.963633
24.8784 15.4265 24.0459 0.214334 -0.696207 -0.352497
26.7134 14.6986 21.9456 -0.050727 -0.359426 1.95772
15.6962 19.1563 23.4968 2.50497 -1.14715 -0.679021
15.4251 20.3272 20.8795 0.316586 -1.91242 0.114443
13.0757 19.7079 22.4304 0.668041 -0.471145 1.71699
14.9995 16.3909 23.9163 0.0215707 1.77989 1.95091
14.7284 17.5619 21.2991 0.773318 -0.217714 0.22229
12.379 16.9425 22.85 -2.30517 0.947669 0.380061
18.0456 19.7756 21.9459 -0.0508168 0.638474 0.100208
19.9694 16.4587 23.4318 -1.29214 0.347283 0.363761
19.6983 17.6297 20.8145 -0.209887 0.267217 1.57473
17.3489 17.0103 22.3654 0.667431 -0.667939 2.28424
20.6661 19.224 23.0122 1.90259 -0.797934 -0.439207
22.7723 17.3253 23.5291 -0.518634 -1.32839 -0.178067
22.5011 18.4962 20.9119 -2.94476 -1.87036 -0.429447
24.6869 19.2789 22.6202 1.81981 -0.564101 -0.464893
24.6073 16.5974 21.4287 0.212561 0.892702 1.20611
26.793 17.3801 23.1371 1.53993 2.15988 0.524017
26.5219 18.551 20.5199 -0.140076 -1.04715 -2.19288
28.7076 19.3337 22.2282 -0.457173 -2.49187 -0.986504
28.628 16.6522 21.0367 0.420052 0.904605 0.07702
14.8572 21.9006 23.2269 1.5637 1.03756 0.395641
14.586 23.0716 20.6097 -0.984144 -0.423048 2.01939
12.2367 22.4522 22.1606 -0.771484 -0.214833 0.816762
14.0181 24.645 22.9571 1.81497 -1.00109 0.72203
19.8271 21.9684 22.7424 -1.08525 1.0372 -1.03377
17.4777 21.3491 24.2933 -0.0308004 0.892103 -0.962623
17.2065 22.52 21.6761 -0.761967 -0.0392295 -1.92209
18.988 24.7128 22.4726 -1.46576 -0.53489 -0.655177
16.6386 24.0934 24.0234 -0.863338 -2.24251 -0.315644
20.395 20.395 20.395 -0.197472 1.75176 -1.67978
22.5807 21.1777 22.1033 -0.828301 2.16719 -2.55914
21.7417 23.9221 21.8335 -1.24062 -0.62376 -1.26139
24.4953 23.1313 21.1945 -1.88205 2.04821 0.380247
23.9274 24.7047 23.5419 -1.09863 -1.35407 1.1405
24.7665 21.9604 23.8117 -1.72337 0.0104361 -1.09418
26.681 23.914 22.9028 -0.350781 2.04906 0.158191
26.6015 21.2325 21.7113 -1.06026 -0.39648 0.840432
28.7872 22.0152 23.4197 -1.52106 -0.195969 -3.35255
28.516 23.1862 20.8025 1.38547 0.0146944 1.88551
15.7995 26.8378 23.7536 0.696364 2.07406 -1.87336
15.5284 28.0087 21.1364 0.609936 0.27344 0.330388
16.3675 25.2644 21.4062 1.08043 1.06809 -0.119163
18.1489 27.4572 22.2028 -0.405248 0.199937 0.00261529
20.0635 29.4108 21.2939 -1.05071 0.364012 -0.45122
21.1737 25.4955 24.1809 -0.248016 -1.2801 0.902387
20.9026 26.6664 21.5637 -0.316252 -0.370526 0.328945
23.6562 25.8757 20.9246 0.567081 -0.714406 0.885338
20.3347 28.2398 23.9111 0.129513 0.140048 -1.54979
23.0883 27.4491 23.272 1.3686 -1.14665 -0.689086
22.8172 28.6201 20.6548 -0.401958 1.7565 0.0345341
25.842 26.6584 22.633 -1.64372 0.0238559 -0.968591
20.2406 15.2878 26.049 1.13125 -0.514726 0.154143
17.6201 15.8394 24.9826 -1.26263 -0.498829 -1.70494
15.9674 17.9853 26.114 1.72338 -0.747865 -0.117568
13.3469 18.5369 25.0476 -0.276567 1.44618 0.997318
18.5879 17.4337 27.1803 1.43957 0.432835 0.38104
18.3168 18.6047 24.5631 -1.42086 1.21673 0.841339
17.7488 20.1781 26.9105 -0.347319 -0.955265 -0.347085
21.2084 16.8821 28.2466 1.08698 0.335012 0.881345
20.9373 18.0531 25.6294 0.908316 0.139608 -0.169728
20.3693 19.6265 27.9768 0.0603586 -0.325695 1.131
23.123 18.8358 27.3377 2.13272 -0.469221 0.447845
22.8519 20.0067 24.7205 0.897215 0.442867 -1.03842
23.0434 16.1543 26.1463 -0.000375109 0.212679 1.1174
24.958 18.1079 25.2374 -1.05677 -0.149725 0.922795
26.8726 20.0616 24.3285 -0.819797 -0.746029 0.217792
15.1283 20.7297 25.8441 0.374652 0.693358 0.375852
12.5078 21.2813 24.7778 -0.98162 0.618795 -1.46435
14.2892 23.4741 25.5743 -0.868213 -1.39249 -1.21295
20.0982 20.7975 25.3596 0.423734 -0.0569143 -0.441105
19.5303 22.3709 27.707 -2.10561 -0.438757 -2.0871
19.2591 23.5418 25.0898 -0.558787 0.393242 -2.03691
16.9098 22.9225 26.6406 -1.0086 0.113614 0.494496
22.2839 21.5802 27.0679 0.204012 0.679224 -1.16763
22.0128 22.7511 24.4507 -1.26312 0.493008 0.532658
21.4449 24.3245 26.7981 -1.01461 -0.0870377 1.41516
24.1985 23.5338 26.1591 -0.106532 2.26605 0.206949
25.0376 20.7894 26.4289 -0.190503 -0.738085 -0.726216
26.9522 22.7431 25.52 -0.434608 -0.303451 3.0142
16.0707 25.6668 26.3708 1.14291 -0.529277 0.824191
18.6912 25.1153 27.4372 0.768434 0.616907 1.21395
18.4201 26.2862 24.82 1.19049 -0.163688 -0.0112165
20.6058 27.0689 26.5283 -2.61658 0.465319 0.89168
23.3595 26.2782 25.8892 0.581601 -1.26595 1.21951
26.1131 25.4874 25.2502 -0.245366 -0.744266 0.417718
ITEM: TIMESTEP
1000
ITEM: NUMBER OF ATOMS
192
ITEM: BOX BOUNDS ss ss ss
1.1832660805307123e+01 2.8791263731566911e+01
1.1367118970490534e+01 2.9414878944745137e+01
1.2539310609212855e+01 2.8250689638804030e+01
ITEM: ATOMS x y z vx vy vz
15.0924 15.4358 15.6816 -1.33836 -2.41539 -2.10289
17.7587 14.5325 16.5302 0.263887 -2.0909 -0.441025
17.4964 15.9289 14.2264 -1.33665 -4.44873 0.530879
19.7238 14.0098 14.5722 -1.41803 -1.45521 -1.77571
22.3928 14.7474 14.5663 -0.295159 -0.132084 0.437639
25.0484 15.7606 14.7614 1.37485 -0.0253068 -0.689207
15.7897 18.0331 15.0889 1.81677 -0.912608 -0.643177
14.3252 20.061 15.8964 -1.1273 1.22168 -2.93131
19.2314 20.1513 15.447 0.142335 -1.19513 -0.655349
18.6064 17.4373 15.9888 -0.0274279 -1.24617 1.88999
18.2308 18.5267 13.3467 -0.103662 0.0173339 -1.38929
20.2664 16.578 13.7762 -0.114786 2.02981 -2.23037
24.0717 19.0857 16.1638 1.15332 -1.1599 2.0417
23.5393 20.2367 13.6455 -0.686534 0.0455604 -0.125106
21.3057 18.1808 15.976 -1.43872 1.78895 -1.32352
20.9616 19.2768 13.2019 -1.28863 -0.25032 1.04897
22.9297 17.6256 13.9028 0.196108 0.902973 -0.624878
25.5973 18.5066 14.1076 0.211256 0.697484 -1.45608
27.4486 19.3293 15.8677 0.244216 0.243559 -2.46408
15.138 22.7735 15.4744 -0.860171 -0.279678 -1.48399
19.7493 22.7076 15.2026 -0.852182 0.827278 2.238
19.711 23.6751 12.5921 0.350742 -1.81353 1.03402
17.3152 23.3536 13.9129 1.17488 0.986388 -0.176719
18.8615 21.1058 12.8742 -0.00236466 1.11422 -0.521239
16.8009 24.9938 16.1526 0.450677 0.227481 1.8985
16.4632 20.7034 14.2657 -0.191616 0.184811 0.819845
21.7712 24.6378 14.1882 -1.20341 -0.372431 -1.75911
21.8542 20.879 15.4378 -0.157123 0.419496 -1.48531
21.6686 22.0991 12.9656 -0.0198487 0.753721 0.0830567
23.7445 22.9581 14.4196 1.37355 0.0656799 0.0375693
25.7046 21.1512 15.1016 0.229566 -0.240554 -1.55786
19.0412 25.4191 14.8654 -0.449403 -1.62538 -1.70489
23.883 25.4967 15.8702 0.580289 0.52332 -1.97101
15.5466 14.1547 18.1305 0.045425 -1.57685 -0.309033
18.0953 13.5773 18.8471 0.0420454 -0.0605206 -1.69548
16.6601 15.6143 20.3058 -1.12332 1.17845 -0.549121
20.0592 12.068 19.66 -1.87112 0.239628 0.94663
20.1206 12.9548 17.0713 -0.0108309 -2.94972 -0.328208
23.6077 15.2625 19.2232 0.0549311 1.89822 -0.29324
20.891 14.4574 19.2551 0.0236213 3.34958 0.546815
20.6079 15.6273 16.6919 0.58104 -0.386965 0.967964
22.9076 12.4274 19.4668 0.419205 -0.85766 -1.26163
22.6806 13.6288 17.0416 1.46453 -1.38143 -3.13869
26.3624 15.8706 19.3218 -0.234426 0.301441 -0.877884
25.2219 13.3485 19.7814 1.50999 0.0773466 0.472317
25.1003 14.3315 17.1955 1.45173 0.0257172 -0.413783
14.8475 18.814 18.6653 -0.447678 -0.695006 1.03366
14.044 16.0879 19.1324 -2.10689 -1.25667 -0.594496
13.6955 17.416 16.7759 -1.59926 -1.51866 -0.79583
12.628 17.972 20.0124 -0.615096 -0.0353221 0.0777372
12.2919 19.3683 17.7508 -2.11505 2.06614 1.81633
19.6388 18.9261 18.2411 -0.263396 -1.50373 -1.87945
18.7106 16.3024 18.6974 -0.311245 -0.816664 -0.523195
17.2968 18.4969 19.8367 -2.91949 -0.474281 1.03021
16.8869 19.5701 16.9253 -0.615146 -0.303405 0.32036
16.3604 16.8016 17.6606 0.497295 -1.39196 0.643874
22.237 19.5456 18.2061 3.00185 -1.05655 0.579676
24.2433 17.822 18.8917 -0.0921403 -1.6787 -1.03508
21.4847 17.0569 18.9741 0.979623 -1.58547 -1.08966
23.2844 16.4758 16.7535 0.406348 -0.284697 1.57166
26.0088 19.6708 17.9429 -0.580399 -0.0440606 -0.00214178
26.1589 17.0714 16.8844 0.954766 -2.93297 2.19596
28.1012 18.125 18.5451 1.79511 -1.68064 -1.70303
15.3277 21.626 18.1642 0.585489 -1.55658 1.18742
12.9258 20.9089 19.7411 -0.567479 -0.346611 1.52682
12.8157 22.0589 17.2253 -1.1273 -0.343585 -0.06474
14.5007 24.3503 17.6452 -0.861931 2.07522 -1.59011
12.552 23.5251 19.4165 -1.2444 0.674568 0.463488
20.2403 21.561 17.9252 -1.95369 0.539542 -0.717394
17.9125 21.0501 19.2125 -0.177315 0.527127 -2.10847
17.5501 22.1783 16.679 0.241836 -0.120833 -1.54408
19.6279 23.0283 20.1789 -1.22875 2.89276 -0.580211
19.2563 24.179 17.2707 0.532244 0.790072 -0.858466
16.9868 23.6533 18.8191 1.60601 -0.0752953 -0.405903
22.1728 22.2718 19.5821 -0.197776 1.62408 -2.54029
21.9655 23.5201 16.7065 -1.86447 0.0346812 -0.683835
24.1583 24.4025 18.5664 -0.571041 -1.57114 0.659593
24.1466 20.3885 19.9483 2.80138 -0.932054 1.56795
23.973 21.7531 17.0721 -1.02236 0.313935 1.9312
25.9794 22.2896 19.0161 1.41439 -1.03896 0.0925423
25.6529 23.53 16.2474 0.195691 0.916019 1.59838
27.5771 24.1254 18.1987 0.765216 0.500708 -1.73494
28.2774 20.5074 19.8061 1.24619 0.347861 0.0310573
27.9737 21.6943 17.2291 4.31652 1.21245 -0.574718
13.9596 25.6878 20.1819 -2.89248 1.47701 -0.406248
18.5627 25.7616 19.7173 -1.73688 1.39793 0.698192
18.5465 26.8114 17.0351 -0.230531 0.0852423 -0.90033
16.1648 26.4325 18.5383 -1.0385 -0.319837 -0.654955
18.0725 28.1971 19.5945 -1.61655 -0.107734 0.167208
21.3779 24.9736 18.9389 1.57838 -0.284442 -0.656621
21.054 26.2662 16.2262 0.663244 1.1143 -0.440503
20.6081 27.4959 18.9305 -0.354438 -2.06748 -1.16728
23.2458 26.8948 18.0756 -0.145526 -0.591027 -1.46631
26.2667 25.1141 20.3034 0.591858 -0.213587 2.90634
25.8961 26.1607 17.6423 2.27378 4.06381 -0.494687
25.0629 27.7107 20.0203 3.27413 0.281757 -0.526134
16.1289 12.965 20.7383 0.763823 -2.51215 1.882
14.319 15.0124 21.7713 -0.193271 -0.383256 -0.212254
19.323 13.7809 24.0365 -0.114568 -0.0593749 0.562406
19.0543 14.9802 21.3461 -1.06052 0.510442 -0.70451
18.4848 12.4432 21.8573 -0.00970038 -2.85761 -1.85969
16.7135 14.2279 23.0573 -0.49921 -0.884294 0.844487
21.982 14.5151 24.187 -0.50575 1.66802 1.31269
21.771 15.7688 21.7171 -0.0322713 0.401297 -0.761976
23.6719 13.9989 21.9583 -0.482538 -2.47248 2.31416
21.087 12.9488 21.8138 -1.63096 0.544661 0.327576
24.7566 15.5528 24.1917 1.8851 -1.26482 -0.524208
26.3886 14.8698 21.9852 1.30541 -2.54202 -0.433231
15.7682 19.0207 23.5363 -0.474497 0.822783 -0.856622
15.5859 20.431 20.8517 0.987261 -0.309832 1.78477
13.3789 19.7365 22.2934 -2.60245 0.748524 -2.43012
15.1541 16.2859 24.2456 -0.457316 -1.31962 -0.368081
15.0317 17.7092 21.2334 2.16925 0.588345 -2.59447
12.9495 16.9853 22.6952 -2.83865 0.820987 1.94136
18.0399 19.933 21.8936 -2.11179 -2.49934 1.37812
19.9261 16.4 23.6833 -0.362045 -0.238093 0.380229
19.663 17.6462 20.8486 -2.46948 -1.28232 1.66362
17.4607 17.0056 22.4859 -0.0065123 0.487677 0.337934
20.6365 19.1204 23.0752 1.71231 -0.905809 0.302812
22.6621 17.3635 23.6871 -1.08842 -0.210512 2.37359
22.5066 18.5619 20.9982 1.7764 -0.281988 0.284085
24.716 19.2543 22.7966 -1.92602 -0.227907 -0.0295397
24.6119 16.59 21.5465 0.707085 -0.23417 -1.60988
26.6133 17.2804 23.4599 0.408136 -0.132276 1.00246
26.1921 18.8021 20.586 -0.830408 1.99273 -1.10036
28.345 19.1713 22.3017 3.81262 -2.40694 2.7193
28.0676 16.9 21.0552 2.78583 0.366797 -0.540634
15.2227 21.6772 23.2834 2.14044 -0.374472 -2.39958
14.9133 23.0207 20.5141 0.881393 0.803695 -0.543797
12.8247 22.3831 22.1153 -3.96812 -0.204713 0.127428
14.3077 24.5431 22.8092 -0.261829 -0.066096 1.35423
19.9398 21.9585 22.6989 1.12112 0.498578 1.17517
17.5772 21.1002 24.4734 2.35653 -1.76636 -1.30147
17.4333 22.3987 21.5464 -0.0571111 2.22136 0.896634
18.9891 24.5167 22.4467 0.283066 1.2599 2.53743
16.9615 23.864 24.0107 -0.204255 0.488411 -0.560714
20.3063 20.3225 20.4629 0.428192 2.27659 -0.145678
22.4948 21.0802 22.1001 0.576855 2.60176 -2.16752
21.6667 23.6787 21.6235 0.15216 -0.235728 2.73454
24.2724 23.0821 21.1034 2.45444 0.715252 0.0541847
23.7322 24.5058 23.4684 -1.50556 0.938703 1.17963
24.6107 21.8334 23.847 0.461824 0.554397 -0.028627
26.5031 23.8652 22.8598 1.28873 0.913408 -2.28975
26.3175 21.3433 21.6909 -1.19907 -1.82489 0.165147
28.1931 21.7949 23.3457 -0.631218 0.872094 1.70139
28.2831 22.7361 20.5607 2.19196 0.554004 0.299376
15.8968 26.5366 23.5574 0.129227 0.750281 -0.549027
15.7573 27.598 20.9657 -1.72216 1.37835 -0.207396
16.5428 25.0526 21.3968 -1.04229 -2.68628 -0.565496
18.2107 27.4497 22.233 -0.740018 1.39706 3.5357
20.3447 28.9049 21.0979 -0.76388 1.18603 -1.13752
21.1319 25.3875 24.0764 0.0209103 1.61823 -0.487781
20.8753 26.3386 21.4937 -0.514527 -0.659501 1.44798
23.4412 25.7479 20.8643 1.88661 -0.562432 1.19565
20.4418 27.9166 23.7165 1.24682 1.8826 0.853116
23.0361 27.3594 23.1884 -0.161793 3.88846 0.536845
22.6635 28.38 20.6056 -0.0890722 1.67057 0.541507
25.4843 26.4814 22.6418 0.663034 0.361913 -1.47539
20.3165 15.18 26.2475 -1.6443 1.00488 0.358182
17.79 15.75 25.3484 0.167534 -0.0969739 0.701751
16.1641 17.864 26.2441 -1.71663 -0.136548 1.31254
13.7043 18.5558 24.9405 -3.68885 -0.458255 -0.79916
18.4968 17.4076 27.3705 0.26961 -0.671273 -0.965272
18.3444 18.3748 24.6187 1.36066 0.742829 1.35774
17.8049 20.0895 27.0618 -0.632092 0.834961 -0.934704
21.2805 16.9917 28.2355 2.30785 -0.392111 0.229692
20.8661 18.0738 25.6056 0.436582 1.188 -0.616186
20.3153 19.6504 28.1165 2.20146 -0.0142124 -1.18419
22.9725 18.7462 27.4697 0.226631 -0.265541 -0.521647
22.9042 19.8839 24.8836 -1.1195 0.258889 0.0662579
22.9461 16.0648 26.2935 -0.49375 0.816291 0.160998
24.7947 17.8669 25.4334 0.182165 -0.412558 -1.08564
26.5925 19.9443 24.5665 1.23644 0.418936 0.834062
15.2552 20.5058 26.0369 -1.25346 -1.05527 1.70087
13.1632 21.1898 24.8163 -1.1969 0.347961 -0.698329
14.4341 23.4606 25.2275 -1.87091 2.92484 0.844014
20.0995 20.7168 25.4088 -1.31974 -1.66348 -0.209223
19.6259 22.3245 27.5965 -0.447344 -0.520317 1.73256
19.2788 23.489 25.0919 0.231945 0.857478 1.16082
16.9721 22.6012 26.8291 0.914318 -0.715184 -0.422014
22.2717 21.3892 27.3416 0.739642 -0.990503 -0.392814
22.067 22.6954 24.5387 -1.56718 -0.0775286 -0.700952
21.5641 24.0428 26.846 -1.17821 -0.881119 1.05243
24.208 23.2953 26.2794 -0.0488866 -1.03383 1.81284
24.7122 20.6966 26.5035 1.53633 1.29166 1.5899
26.6386 22.4829 25.2576 0.850745 -0.240755 0.269676
16.2896 25.056 26.1353 1.53494 0.907333 2.06265
18.7565 24.8173 27.1015 -0.0848832 -0.660903 2.07023
18.4188 26.2232 24.7173 0.290227 1.09079 0.0731497
20.588 26.5552 26.3567 -1.46158 2.50463 3.34024
23.3553 26.1873 25.6066 0.669759 0.0628002 -0.165716
25.7903 25.1961 25.1689 2.30006 0.304532 1.12776
ITEM: TIMESTEP
2000
ITEM: NUMBER OF ATOMS
192
ITEM: BOX BOUNDS ss ss ss
1.1832660805307123e+01 2.8791263731566911e+01
1.1367118970490534e+01 2.9414878944745137e+01
1.2539310609212855e+01 2.8250689638804030e+01
ITEM: ATOMS x y z vx vy vz
15.3413 15.3329 15.5659 1.51389 2.31889 0.740836
17.698 14.506 16.4577 1.01382 1.68838 0.354339
17.5797 15.5954 14.1146 1.09426 -0.858798 -1.01763
19.8 13.9259 14.4998 0.0383889 -0.121004 0.717028
22.4745 14.5475 14.6683 -1.77753 -0.619371 1.05497
25.1894 15.8789 14.9067 2.04706 0.329347 -1.76515
16.0863 17.9791 14.9807 -2.94242 0.525711 0.161107
14.2777 19.9152 16.1301 -0.515657 1.50788 -0.54204
19.0537 20.146 15.5414 -0.88014 0.104833 -0.0807927
18.4656 17.247 16.0069 2.33249 1.76083 -1.54859
18.3855 18.2534 13.5326 -0.540286 1.16605 2.01317
20.3247 16.4096 13.8903 -0.490932 1.09886 -1.08929
24.1389 18.7286 16.2641 -0.833871 -0.405371 -0.251686
23.6826 19.8017 13.8176 -0.818928 1.55193 -1.16029
21.258 18.0579 15.9863 0.670684 0.558733 -0.449637
20.8898 19.2702 13.5883 -1.61594 -0.236483 -2.14866
22.9627 17.2458 13.9711 -0.237686 0.57082 3.21648
26.0695 18.3998 14.3015 -2.41723 -2.46122 -1.02564
27.7906 19.1534 15.8704 -1.67898 0.633226 0.212156
14.9251 22.4442 15.8546 1.13537 1.37612 -0.818419
19.933 22.7871 15.01 1.2631 0.384655 -0.363092
19.6819 23.9326 12.653 -0.0608859 0.0762466 0.0105152
17.4888 23.4148 13.9225 1.77999 -0.708355 0.867239
18.8934 21.1766 12.8708 0.296584 -1.04683 1.29731
16.6112 24.9801 16.2643 1.42114 -0.835667 -1.04201
16.6504 20.6064 14.5233 1.60696 -0.133395 -0.194698
21.8347 24.8552 13.8713 -0.198787 -1.28587 1.83506
21.8461 20.8979 15.47 1.20583 1.31672 1.9656
21.6646 22.1716 12.9156 -0.740381 -0.212286 0.714121
23.8012 22.9985 14.8651 -2.11281 0.966205 -1.08571
25.7913 21.0371 15.1677 1.77719 1.25724 0.500552
19.2476 25.5385 14.7049 0.526377 -0.909282 -0.681354
23.7694 25.3684 16.1355 -2.38732 0.295083 -0.305063
15.4532 14.2628 17.8737 0.409723 0.16707 0.491945
17.8476 13.5136 18.8984 -0.114515 1.05113 1.95832
16.4464 15.7381 20.2245 1.68225 1.28078 -1.3027
20.0528 11.9218 19.3087 1.40888 0.334894 0.226907
19.7565 12.9867 17.01 0.12777 1.61064 -0.386096
23.5018 15.1193 19.2604 -1.67785 -0.630186 2.72069
20.8327 14.4122 19.2583 -0.362325 1.78852 0.173705
20.6408 15.3375 16.4209 0.313849 -0.0188549 2.1666
22.6923 12.6061 19.7176 -0.848139 1.28748 1.63733
22.5258 13.5446 17.1826 -0.896788 2.10886 -1.33959
26.5495 15.7114 19.2079 -1.24644 -0.314815 1.81432
25.4491 13.2368 19.8133 -0.199942 0.566995 2.23706
25.2382 14.2479 17.373 -0.742486 2.52717 -0.600691
14.5704 18.743 18.7548 1.74259 -0.0676789 -0.445246
13.8841 16.0779 19.1682 1.29565 1.02222 0.8181
13.635 17.346 16.4573 -0.0540013 1.3208 -2.49582
12.3698 17.9791 20.3384 -0.650587 -0.47477 0.0251849
12.1098 19.0763 17.7335 2.09306 -0.574467 1.5883
19.3524 19.0126 18.3138 0.916151 1.23316 1.05748
18.8542 16.3461 18.6053 0.766733 -0.0843652 -2.29226
17.3101 18.4026 20.0182 2.00473 -0.867298 -0.375774
16.7986 19.4798 17.159 2.77382 -0.149394 -1.038
16.1242 16.8499 17.6364 0.405154 2.92283 -0.836602
22.1824 19.8725 18.0979 1.63598 0.286352 0.826048
24.3465 17.7321 18.743 -1.18214 -0.616539 0.51203
21.6591 17.3615 18.7932 0.0855029 -0.343399 0.0571066
23.2019 16.0748 16.6279 -0.667495 -0.56082 0.07217
26.2555 19.7612 17.9508 -2.394 0.0579374 -0.513859
26.1804 17.0645 16.8318 1.44058 2.67753 1.18536
27.9741 17.9655 18.4974 -0.718328 -2.90825 -1.48253
14.8884 21.4342 18.3096 0.183241 -2.30751 0.247936
12.5822 20.5965 19.7372 -0.347789 0.578174 1.34004
12.4923 21.7508 17.1233 1.90007 0.829985 1.63651
14.4724 24.2341 17.9123 0.587071 0.782399 -0.078525
12.4053 23.0726 19.3602 0.337562 -1.34848 -0.531177
19.9905 21.7147 17.7659 -0.883487 -0.859212 2.59758
17.5563 21.1118 19.3234 0.835272 -0.435034 -1.0729
17.5938 22.4181 16.4409 -0.39439 -0.61501 -0.216019
19.4448 23.0995 20.3811 0.0968843 0.899021 1.00068
19.1263 24.3227 17.5055 -0.936177 -0.916517 1.45259
16.9339 23.7808 18.984 -0.939206 -0.302723 -0.828767
22.2126 22.1669 19.5297 -0.453597 -0.697316 1.59086
21.9803 23.4423 16.7945 0.148883 0.0182714 0.71448
24.2918 24.288 18.5734 -1.90444 0.727764 -2.13047
24.2874 20.5354 19.8973 0.139173 -0.447338 3.09691
24.296 21.6794 17.3636 0.0382921 0.483001 0.468212
26.3567 22.3665 19.1229 -1.63514 -1.33177 -0.988262
25.9775 23.6233 16.4294 -2.27246 -0.962315 -1.78825
27.9892 23.9572 18.3109 -2.96828 1.44317 1.78758
28.3828 20.6524 19.3943 -2.05927 -1.63776 -0.172983
27.7182 21.7383 16.9071 -1.8977 0.667209 2.76714
13.8698 25.4267 20.2495 -1.41222 2.46423 -0.292313
18.5578 25.7861 19.9655 -0.222345 1.14358 -1.15032
18.425 26.7648 17.4315 -0.216904 -0.98251 -0.70051
16.0407 26.5371 18.85 1.79986 -1.37081 -0.570407
17.9597 28.4195 19.7918 1.49451 0.694034 -1.03843
21.3386 24.8008 19.1033 -0.520619 0.520637 0.127147
21.2097 26.1917 16.5405 0.0866579 -0.0278007 -1.04908
20.4608 27.552 19.0059 1.24095 -0.967053 -0.639212
23.3992 26.8277 18.4145 -0.683422 -2.80222 -0.666707
26.4749 24.8377 20.2157 -0.598611 -0.919032 -0.824057
26.0615 26.0152 17.667 -0.979932 -1.24544 0.142593
25.4081 27.4171 20.0782 -1.8536 -0.348945 1.06824
15.7431 13.3332 20.4155 1.10533 -0.955861 -0.164112
14.2941 15.1208 21.7088 1.5977 0.260716 -0.500151
19.3589 13.7743 23.9514 1.06141 1.26324 -2.09914
19.0073 14.847 21.1753 1.19703 0.253321 -0.233879
18.1829 12.4413 21.5848 -0.665914 1.33714 -0.526246
16.7454 14.2152 22.8116 -2.10521 2.10558 -0.234556
22.1555 14.6336 24.0696 0.109445 -0.154462 0.103882
21.9362 15.7981 21.32 0.980341 2.50205 -1.35628
23.9388 14.0221 21.8203 -2.37495 -1.76399 0.27599
20.9637 13.1202 21.8764 0.640383 0.197759 0.866007
24.7132 15.4131 23.7473 -1.27264 0.441187 -0.661486
26.6245 14.9269 21.8216 0.359066 1.47494 -0.296777
15.6209 19.0765 23.4797 2.30736 -3.29534 1.98364
15.5252 20.3967 20.8317 -0.234929 -0.755285 -0.104856
13.1666 19.5993 22.3805 1.20899 -0.125683 -0.188356
15.1053 16.4199 23.896 0.387782 0.827858 1.66153
14.8071 17.535 21.3154 2.58346 0.520926 1.96883
12.7718 17.1434 22.9421 0.0485025 0.199012 0.477899
18.1327 19.711 22.046 0.249994 0.445796 0.681051
20.0624 16.2164 23.4551 -0.431039 -0.0833599 -0.0448225
19.7345 17.5441 20.9403 -2.29784 0.598035 0.828027
17.3658 16.9748 22.4341 1.19111 1.09826 2.70488
20.6637 19.0065 23.128 0.535219 -1.47515 -1.28798
22.8633 17.3102 23.7591 1.31468 -0.300619 0.109392
22.7463 18.5643 20.9521 0.0801612 0.35395 -0.132983
24.6139 19.3776 22.6841 -0.0856777 1.36743 -1.23258
24.7997 16.6996 21.3444 -0.773561 1.14696 2.1009
26.826 17.4781 23.0855 -1.43879 -2.32972 1.65103
26.4125 18.5105 20.5507 -1.77219 0.165745 -0.36294
28.4886 19.4523 21.913 0.0982465 0.31227 -0.589867
28.2016 16.8265 20.9926 0.500919 0.912762 -1.30372
14.7389 22.0088 23.1576 -0.334305 -0.435076 0.0482236
14.663 23.0228 20.6472 2.98868 -0.215927 -1.10906
12.5072 22.4404 21.9368 0.220548 -1.18818 -1.26853
13.932 24.6057 22.9825 1.10193 -1.76524 -1.08747
19.9281 21.8549 22.7982 -0.584563 1.1493 -1.46436
17.4085 21.3213 24.3213 1.28259 -1.42943 -0.534133
17.1995 22.2709 21.7941 -0.364538 0.976197 0.785499
18.9983 24.7072 22.4311 2.17995 -0.633864 -0.297758
16.7336 24.0615 23.926 2.26553 -0.140954 -0.5209
20.3287 20.2635 20.5792 0.914609 1.0387 -0.452782
22.4989 21.1058 22.2538 0.782718 0.281104 -1.8202
21.6887 23.7295 21.8569 0.137041 -0.745099 0.978282
24.2577 22.9213 21.1687 -0.89632 -1.74492 0.0970425
23.9235 24.635 23.4222 -1.63814 0.114357 -1.51355
24.7739 22.1205 23.833 -0.432684 -1.05701 0.429664
26.6581 23.8942 22.9131 -0.537855 -2.3665 -1.09063
26.5142 21.1209 21.7854 0.24204 -0.33373 -0.545213
28.4137 22.0264 23.4796 -1.46273 0.606385 0.374135
28.3313 22.8948 20.8801 0.0594322 0.936914 0.388849
15.6805 26.8005 23.6036 -0.114854 1.31986 0.922203
15.7804 27.7411 20.9846 0.93234 -2.23508 0.962897
16.2206 25.1697 21.5225 1.84037 -0.0862141 -1.83923
18.1157 27.3266 22.3239 0.145931 0.355223 -0.907991
20.0638 28.9409 21.317 0.365689 -0.901924 -1.34103
21.1897 25.4493 24.1613 -1.68352 -1.10376 0.649617
20.8996 26.6132 21.4717 1.93285 0.346929 -3.3755
23.6325 25.648 20.9343 -1.00487 -1.72952 -1.91093
20.2012 27.976 23.8134 -1.02241 -2.00628 1.89521
23.149 27.2845 23.2896 -0.807753 -0.365011 1.70467
22.9718 28.2224 20.7438 -1.14331 0.755167 -0.328386
25.7701 26.4356 22.6454 0.458937 -1.92906 -0.150869
20.2775 15.3696 26.0732 0.517679 0.225791 -0.415265
17.7186 15.7642 25.0904 0.300431 -0.128821 1.46535
15.9278 17.9287 26.0357 2.00126 -2.71883 0.559587
13.499 18.5519 24.9366 1.4128 -1.33657 -0.200875
18.6117 17.6109 27.2445 1.28423 1.67131 -0.15153
18.3847 18.4999 24.6988 -1.18366 -0.338665 -1.20013
17.8455 20.1221 26.9227 2.46887 -0.813923 0.277585
21.0947 16.8148 28.3112 1.17721 0.308189 2.0948
20.9195 18.13 25.8055 -1.17647 1.17001 0.370867
20.5751 19.6834 28.0133 -0.999701 0.13567 -1.88114
23.188 18.7652 27.4545 -0.124616 0.255922 0.713007
22.8629 19.8531 24.8364 -2.51445 1.45618 -0.963737
23.0299 16.2228 26.2423 0.522443 -0.297805 -0.950706
25.0171 18.0787 25.4377 -0.432674 -0.0643424 -0.57734
26.7317 19.9831 24.2791 -2.78564 -1.9633 1.01566
15.3149 20.6471 25.6477 -0.549891 2.07975 -0.277478
12.8232 21.0242 24.4673 1.0015 1.33022 -0.175545
14.7156 23.3891 25.3963 1.30239 -0.503352 -1.0096
20.1848 20.6057 25.3679 -0.113803 0.566493 -2.37181
19.4224 22.3029 27.4976 0.15003 -0.619298 -1.82565
19.2481 23.5277 25.0409 -0.469398 -3.48037 1.44961
17.037 22.7247 26.6546 -0.863891 -0.431514 0.711842
22.2942 21.7764 27.0761 -1.11455 -0.197079 -1.11045
21.9069 22.7984 24.5445 -0.101604 -0.732437 0.793953
21.287 24.2552 26.7824 0.264143 -2.06416 -0.979839
24.28 23.653 25.9434 -0.239795 -0.786131 2.3031
24.9445 21.0217 26.3357 -0.168525 -0.197607 -0.436059
27.014 22.6351 25.4905 -0.413853 -0.888692 -1.77308
16.2337 25.6808 25.8924 -0.217608 -2.14741 -1.3623
18.5645 25.0109 27.134 0.527203 1.14456 0.10094
18.3666 26.3429 24.7729 0.402331 0.497174 0.222428
20.7282 26.6255 26.2207 -1.20571 1.38884 1.12407
23.4512 26.0828 25.5467 0.879593 0.198588 1.20456