ITEM: TIMESTEP
0
ITEM: NUMBER OF ATOMS
19
ITEM: BOX BOUNDS ss ss ss
1.6370206887582274e+01 2.4419793112417725e+01
1.6724693170118975e+01 2.4065306829881024e+01
1.6689631818271813e+01 2.4100368181728186e+01
ITEM: ATOMS x y z vx vy vz
16.3743 19.7584 20.5267 1.08232 0.467303 1.34359
18.1221 21.9098 21.3082 1.01236 0.0458111 -0.207626
19.87 24.0612 22.0897 2.46313 -1.33788 -0.74549
18.6471 18.2436 19.6135 -0.793879 1.91377 -2.1868
18.1929 20.9047 18.6102 -0.492882 0.498273 0.119227
19.9408 23.0561 19.3917 -2.1848 -0.865951 0.39325
20.0116 22.051 16.6937 -0.378952 -0.708983 1.313
18.5764 19.2487 22.3115 0.25647 -0.231769 -0.60793
20.3242 21.4001 23.093 -1.53829 1.01863 -1.56481
20.395 20.395 20.395 -2.63628 1.41403 0.307492
22.1429 22.5464 21.1765 0.427571 0.185716 -1.82291
20.92 16.7288 18.7003 0.750414 0.942651 0.258969
22.6679 18.8802 19.4818 1.41041 0.129647 0.306919
24.4157 21.0316 20.2633 -2.13654 0.977842 0.715229
20.4658 19.3899 17.697 0.51736 -0.77138 -0.409375
22.2136 21.5413 18.4785 0.621705 -0.552089 0.394728
20.8492 17.7339 21.3983 0.94812 -0.633914 0.855559
22.5971 19.8853 22.1798 0.933845 -1.47688 1.12654
20.7784 18.739 24.0963 -0.262073 -1.01483 0.410434
ITEM: TIMESTEP
1000
ITEM: NUMBER OF ATOMS
19
ITEM: BOX BOUNDS ss ss ss
1.6712307799989908e+01 2.3478010179318545e+01
1.7201791266900216e+01 2.3474421911458506e+01
1.7127819447580315e+01 2.3217828729992934e+01
ITEM: ATOMS x y z vx vy vz
17.0037 20.0245 20.1334 0.593602 -0.356283 0.925041
18.2371 21.9676 21.1721 3.06375 0.921645 0.27871
19.7639 23.68 21.922 2.80771 -1.7825 -1.4206
19.0683 18.1498 20.1445 -0.514928 1.29422 -2.629
18.1585 20.9044 18.4676 -0.449031 -1.56403 -0.376219
20.1185 22.5827 19.3817 1.05426 -0.988645 2.34314
19.6395 21.7973 16.8612 1.8186 0.199791 0.0295576
18.5996 19.734 22.3205 1.51473 0.665697 1.24205
20.0496 21.4223 23.0058 -1.83288 -3.7196 -1.12662
20.5693 20.3208 20.4824 -7.16588 -1.43315 0.281419
22.1118 22.2904 21.6187 0.64906 1.98143 -3.19429
20.514 17.1895 18.8784 1.71733 5.53561 1.63533
22.6492 19.0073 19.4891 -1.43847 -2.15112 0.806448
23.9296 20.9318 20.3605 -2.17166 0.963211 1.21673
20.3032 19.5579 17.9782 -1.8403 -2.3159 1.65738
22.2552 21.5089 18.5246 0.299344 1.08213 0.993117
21.3919 17.7834 21.2822 3.73875 0.172473 -0.294187
22.6252 19.8096 22.1422 -3.1228 -0.721633 0.774456
20.517 18.8427 23.3401 1.2788 2.21666 -3.14245
ITEM: TIMESTEP
2000
ITEM: NUMBER OF ATOMS
19
ITEM: BOX BOUNDS ss ss ss
1.6735584464942711e+01 2.3152927668986766e+01
1.7166857184495683e+01 2.3773206247122104e+01
1.6893594092812187e+01 2.3658315719399397e+01
ITEM: ATOMS x y z vx vy vz
16.7626 19.7415 20.7943 1.10306 -0.278642 4.29343
18.5726 21.8387 20.8728 1.01454 0.679915 -0.362443
20.0635 23.7785 22.0547 -1.58894 0.492576 -0.696492
18.3452 18.4276 19.5879 -0.122101 -3.56728 -0.159484
18.282 21.1583 18.2373 -1.23931 2.48263 -0.219191
20.6069 22.8313 19.8764 0.925217 1.53091 -2.30853
20.0844 21.7629 16.8601 -0.419705 3.4134 -1.68141
18.7368 18.8986 22.0644 -0.613799 -2.88868 3.3026
19.9391 21.2109 22.8811 -0.934523 -0.419093 -0.645037
20.5033 20.2969 20.2133 0.28608 -1.95086 -1.70466
22.3197 22.7783 22.0003 0.709318 -2.22068 2.0597
20.5231 17.1728 19.4255 -0.68159 -0.0601851 1.76094
22.8307 18.9357 19.2659 -0.625264 -0.554075 -0.544008
23.1368 21.334 20.0695 -0.422564 1.78613 1.62506
20.1453 19.2146 17.7214 3.38624 0.623229 -3.88394
22.2273 21.1973 17.9282 1.37499 -4.18356 -0.543954
21.1687 17.7897 21.3198 -1.98772 4.96591 -2.07417
22.4799 20.329 22.6193 0.891858 2.1848 -0.949712
20.7773 18.8083 23.7126 -1.05579 -2.03646 2.7313
ITEM: TIMESTEP
3000
ITEM: NUMBER OF ATOMS
19
ITEM: BOX BOUNDS ss ss ss
1.7531890325552673e+01 2.3573802131120342e+01
1.6795011133260502e+01 2.3671417251344177e+01
1.7923792503386878e+01 2.3431822751972469e+01
ITEM: ATOMS x y z vx vy vz
17.7644 21.5731 20.2903 -4.31631 3.68051 -1.55979
19.2902 23.8056 19.7045 0.235537 0.974398 -0.677664
19.0472 22.7045 22.3367 0.443515 -0.962171 3.69351
18.9102 17.9734 19.8908 1.29689 -1.47109 -0.683529
17.6647 19.571 18.6388 -0.181935 -2.4331 1.00035
21.5849 23.3102 19.4902 0.0211781 -0.608975 0.927742
19.3074 21.4718 18.5018 0.845555 2.28894 -0.368189
18.231 19.2845 21.5955 2.33455 3.23742 -4.59662
20.0759 20.9689 23.5921 1.66578 0.146798 0.58262
20.3284 20.4028 20.6191 4.18678 0.782228 -0.346121
21.763 22.5865 22.0614 -1.85585 -0.259958 1.16876
21.28 16.6045 19.0245 -1.64576 -0.2706 0.543128
22.2455 19.0433 19.5187 -3.70115 -2.22134 -0.677682
23.431 21.6517 19.8669 -1.58417 0.81383 2.05911
20.1734 18.8942 17.9134 0.755548 -1.90939 0.0418204
21.8466 21.2337 17.9631 -1.14803 -1.78621 -1.82966
20.871 17.3711 21.2532 2.94605 -1.59628 -0.00632933
22.7121 20.1859 21.8081 0.22976 1.87079 -0.351841
20.9783 18.8683 23.436 -0.527936 -0.275779 1.08038
ITEM: TIMESTEP
4000
ITEM: NUMBER OF ATOMS
19
ITEM: BOX BOUNDS ss ss ss
1.7477273717749888e+01 2.2911884323104967e+01
1.6725597769489600e+01 2.3812167337237081e+01
1.7729642398617035e+01 2.3361687700944312e+01
ITEM: ATOMS x y z vx vy vz
17.8933 21.8176 19.9242 -2.14219 -2.01665 0.360029
19.6126 23.9928 20.1126 1.55088 0.528857 2.71788
18.4475 22.7574 22.2181 -0.418858 -3.04061 -1.62175
19.2519 17.8759 20.5699 -1.42169 -1.11355 -3.27904
17.7264 19.5879 19.2879 0.294469 0.973187 -0.58621
21.7932 23.1185 18.6148 -0.902019 1.52081 2.95953
19.4372 22.3589 18.0405 -4.3781 0.869578 1.60491
18.3537 19.8147 22.1951 1.97529 2.74722 -2.2146
20.6139 20.7656 23.1658 2.2215 -0.831603 -1.24318
20.1951 20.6338 20.5381 0.0938945 1.15629 0.736349
21.3585 22.9712 21.7208 1.63422 -0.303779 -1.59474
21.4142 17.1369 19.2169 1.21771 0.552796 3.7356
23.0058 19.2218 18.8594 -1.95717 0.0269376 1.57737
22.6379 21.5715 20.4407 1.39542 -2.05938 -0.694498
19.807 18.946 18.271 -1.24631 -1.80949 -2.74983
21.6316 20.8653 17.9281 3.09577 -1.00187 -0.973614
21.8433 16.8229 21.5384 0.537448 0.0462032 1.06773
22.0224 19.158 21.5856 -2.41592 -0.199775 0.617994
20.4596 18.0883 23.2769 0.86564 3.95484 -0.419935
ITEM: TIMESTEP
5000
ITEM: NUMBER OF ATOMS
19
ITEM: BOX BOUNDS ss ss ss
1.7229568068631490e+01 2.3110861578150992e+01
1.6791806661564465e+01 2.4085344319185179e+01
1.7844567720913020e+01 2.3629776626314371e+01
ITEM: ATOMS x y z vx vy vz
17.1801 21.8921 20.2003 -0.648352 1.68138 2.15994
19.1517 24.2053 20.039 -1.06638 1.28498 -2.28774
18.9773 22.5527 21.7248 0.12208 -0.743917 0.835113
19.5698 17.6121 21.0908 -0.60658 -2.66097 0.416206
18.2259 19.6463 19.3026 0.934138 -0.366619 1.52926
21.6148 23.4967 19.3031 3.88942 2.94519 -1.81986
19.1578 22.0438 18.3147 1.21506 -0.529203 0.121626
18.1126 20.0318 21.7514 2.88928 -0.576047 -0.699819
20.6226 20.1552 22.9317 -0.979174 -1.97096 2.1374
20.7099 20.3394 20.2408 -0.231084 -2.13076 0.965377
21.5232 22.379 21.879 -2.16964 -2.82079 -2.74981
21.3476 16.9862 19.9487 0.0907713 3.05984 -0.426217
22.6385 19.1374 18.192 -3.0655 -0.313784 -1.99825
23.2676 21.426 20.2068 1.31154 0.43254 1.24392
20.1926 18.8943 17.8866 -0.117679 -1.152 -1.62257
21.5848 21.5806 17.7861 -0.962202 2.10372 -1.00449
21.6487 17.7722 22.6008 -0.167271 1.47257 3.5455
22.792 19.092 20.743 0.343299 1.3253 1.87358
19.1874 18.2621 23.3627 -0.781739 -1.04047 -2.21918
ITEM: TIMESTEP
6000
ITEM: NUMBER OF ATOMS
19
ITEM: BOX BOUNDS ss ss ss
1.7617809778357078e+01 2.3226065794909086e+01
1.6702350124482439e+01 2.3775316549071885e+01
1.7816390527187778e+01 2.3298058169831414e+01
ITEM: ATOMS x y z vx vy vz
17.9484 21.8458 20.2835 1.04396 -2.5749 -4.52221
19.4005 24.1344 20.6821 0.0789389 1.49433 2.47513
19.2763 22.0663 22.6373 -0.861301 3.4059 -0.231859
19.0891 17.8781 20.2327 1.73574 -1.75216 0.831435
18.2999 19.9197 19.0273 1.77793 2.32596 -0.672549
20.9125 22.9177 19.0573 0.137016 0.5765 1.62206
19.0186 21.9659 17.8889 1.60812 0.292986 0.778303
18.1213 19.7411 21.6811 1.45187 -2.70834 2.94349
21.1217 20.2117 22.9268 2.56159 1.4977 -0.441907
20.4948 20.5601 20.3459 -1.54565 -0.0269718 0.0102225
21.4845 22.9358 21.7008 -1.6611 -0.0909553 -1.23688
21.0348 16.6895 19.523 1.85725 -1.67527 1.86492
22.303 18.7174 19.3551 -1.31596 -1.49413 -0.252598
23.0619 21.2372 19.7722 -1.13331 -2.40989 2.79825
20.2201 18.4922 17.7531 -0.881824 0.326828 -0.572176
21.2664 20.8484 17.6065 -2.76613 2.83882 -3.87137
21.6325 18.0203 21.6676 -3.62694 1.93042 0.269256
23.1342 21.0577 22.1574 2.01059 -0.993657 -0.489747
19.6847 18.2657 23.2065 -0.47079 -0.963162 -1.30177
ITEM: TIMESTEP
7000
ITEM: NUMBER OF ATOMS
19
ITEM: BOX BOUNDS ss ss ss
1.8152384985849537e+01 2.2806071041396564e+01
1.6886553460006990e+01 2.4407155545275828e+01
1.7525086912106545e+01 2.3143556165746062e+01
ITEM: ATOMS x y z vx vy vz
18.505 17.6597 19.9731 2.58575 1.90927 1.12246
17.7316 19.7931 18.7772 -2.24208 2.32421 -0.107329
18.3398 19.7671 21.415 -2.03203 -2.77839 0.101586
20.4838 20.2548 23.4135 2.05116 1.62394 -0.149625
21.0384 17.0866 20.0162 -0.478322 1.56409 -3.30931
22.4627 18.619 18.6986 -0.232821 -0.51902 -0.680403
19.9231 18.0287 17.9259 1.7726 -0.620458 -0.480018
21.0506 20.76 18.0456 1.14209 -1.56851 2.13037
22.8777 18.5884 21.5717 -0.538173 0.527722 0.372535
22.9339 20.7458 22.689 -0.0510844 -0.818662 0.704581
20.2485 17.9615 22.5023 -1.28341 0.431539 0.21291
18.3421 22.3768 20.1971 -0.160573 -1.83989 0.0292058
19.3433 24.605 20.8904 -1.57725 6.0685 -1.78493
19.3062 22.7025 22.3507 -1.53108 -2.00402 0.960605
20.657 22.9979 19.3682 -1.60505 -1.68563 -1.98107
18.9085 21.9879 17.7805 0.839541 -0.90655 2.72213
20.6111 19.8598 20.4225 -0.460029 1.40088 0.532681
21.7397 22.7705 21.5532 2.46805 -3.13885 -0.500317
23.0022 20.9401 19.9145 1.33271 0.0298466 0.103942
ITEM: TIMESTEP
8000
ITEM: NUMBER OF ATOMS
19
ITEM: BOX BOUNDS ss ss ss
1.7381047334687207e+01 2.3248518405579667e+01
1.7084322740619122e+01 2.3394962713313248e+01
1.7545105344941529e+01 2.3413327712357102e+01
ITEM: ATOMS x y z vx vy vz
18.1702 17.5307 20.1871 0.563775 -1.66899 -1.59111
17.3024 19.9377 18.7725 -2.30253 1.11535 1.97451
17.7802 19.652 21.4499 -0.0969574 2.18735 -2.21179
21.064 20.2451 23.3017 0.509444 2.78955 -0.55758
21.0185 17.0205 20.1011 0.111236 -0.161111 -1.24556
22.5209 18.8351 19.1722 1.21787 -1.51795 0.0928773
19.9515 18.9592 18.5391 0.905412 -1.36602 1.16128
21.2167 20.9682 17.9365 -2.59997 4.84813 2.27858
22.6688 18.4026 21.7984 1.21461 -2.78462 0.15102
23.3721 20.9198 22.3678 3.14993 0.0310248 0.834005
20.05 18.0958 22.0893 -0.746668 -0.813202 0.952535
17.2672 22.0223 20.4123 -2.38867 0.474279 -1.0128
19.6314 23.3836 19.7686 -3.65771 -0.296227 -3.34656
19.1766 21.7401 22.1777 3.84292 -1.26472 -0.836896
21.9084 23.3641 19.0951 1.54087 -0.568936 -1.25957
18.7753 22.0227 18.2674 -0.0555736 -0.119851 0.756234
20.7774 20.454 20.7388 -2.44844 0.396588 0.678619
21.6043 22.8581 21.6301 -1.1304 -0.640263 0.549214
23.2491 21.0934 19.6994 2.37085 -0.640393 2.633
ITEM: TIMESTEP
9000
ITEM: NUMBER OF ATOMS
19
ITEM: BOX BOUNDS ss ss ss
1.7350103030302442e+01 2.3298702784667164e+01
1.7002886705064643e+01 2.3512389864349664e+01
1.7941485505520955e+01 2.3092951000969887e+01
ITEM: ATOMS x y z vx vy vz
18.7068 17.5654 19.9779 0.424206 -1.41296 0.651906
17.4442 19.6591 19.4293 -1.64346 -0.0778083 0.351684
18.2486 19.37 22.2633 0.266562 0.203426 1.33638
20.7323 20.3231 22.776 -0.629224 0.277242 -1.59616
21.0113 16.6761 20.2841 1.07068 -3.67636 1.89595
21.863 18.9246 19.0629 -1.25182 -0.162688 0.712415
19.4285 19.2139 17.9721 2.79592 4.45648 -1.91472
21.5014 21.7877 18.495 -0.883464 1.80649 1.60877
22.4746 18.7672 21.54 0.956512 0.195745 -1.04761
23.369 21.0372 22.5329 0.758578 0.769771 2.18998
19.9983 17.6748 22.2093 -2.46817 -2.90386 2.4472
17.7845 22.0772 20.2121 -1.52704 -0.161528 1.84419
19.5472 23.3462 19.5915 0.271171 -1.08568 -1.83179
19.0042 22.2715 22.3073 -0.0956734 0.640188 -0.935978
22.9446 23.5835 19.292 0.272514 0.00407807 -1.38857
18.8218 21.3695 17.744 0.745856 1.37184 -1.46596
19.917 20.5103 20.3061 -2.25141 0.533198 -1.01382
21.4977 22.432 21.3078 0.838661 -2.27985 1.48955
23.21 20.9155 20.2014 2.3496 1.50227 -3.33342
ITEM: TIMESTEP
10000
ITEM: NUMBER OF ATOMS
19
ITEM: BOX BOUNDS ss ss ss
1.7736208752820055e+01 2.3088357435890398e+01
1.6750614958075673e+01 2.4064988701802882e+01
1.7723038628384803e+01 2.3146168115218440e+01
ITEM: ATOMS x y z vx vy vz
18.7512 18.0194 20.1084 -1.25819 1.71297 0.38455
17.7409 20.063 18.9446 0.082727 2.41822 -1.24698
18.0378 19.7135 22.0751 0.161485 -1.77847 -0.578724
20.7876 19.7185 23.1371 -1.78584 -0.541757 -0.322937
20.8776 16.775 19.9796 -2.10404 0.344305 -0.218957
22.1133 18.3025 19.0502 2.95495 -3.22627 1.68492
20.0622 19.0274 17.8955 1.19504 2.41191 2.05353
21.7976 20.9751 17.73 -1.04258 2.62607 -0.0238084
22.4842 18.6447 21.526 1.52297 0.120456 -1.51066
23.0795 21.1291 22.5889 -0.439922 -1.99571 0.337986
20.2171 17.6038 22.434 2.53149 2.32501 1.8765
18.0388 21.93 20.5472 0.983649 -1.2346 0.130045
19.574 24.1095 20.1769 0.894784 1.55233 -2.06075
19.134 22.1969 22.6611 0.379649 -1.45081 -0.773257
21.3089 23.2009 18.7663 -0.614298 -0.849134 -0.785271
19.1333 21.8696 17.9882 0.709531 -1.38903 2.62938
20.3883 20.4684 20.3673 -0.38044 -0.931611 0.755256
21.2565 22.5902 21.5135 -1.46099 -1.42777 -0.882799
22.7223 21.1677 20.0151 -2.32998 1.31389 -1.44802
ITEM: TIMESTEP
11000
ITEM: NUMBER OF ATOMS
19
ITEM: BOX BOUNDS ss ss ss
1.7671818407530267e+01 2.3095845408341948e+01
1.6990103759821892e+01 2.4174296824467074e+01
1.7613278772845558e+01 2.3114827654822175e+01
ITEM: ATOMS x y z vx vy vz
18.5619 17.9318 20.5768 -1.04099 -2.06423 -2.70707
17.7977 19.9484 18.8959 1.76133 0.546653 -0.153311
17.9431 20.1526 21.9853 -1.56494 -0.71458 0.793833
20.2386 20.0218 23.3486 -1.21914 0.517295 2.22099
20.8566 17.0436 19.9481 0.250956 1.49206 -1.75886
22.2445 18.7403 18.8 -0.0814398 -1.86419 -0.428928
19.6829 18.6354 17.923 -0.492803 -3.63284 3.25864
21.4648 20.7382 17.9056 -3.23271 1.24755 -3.0866
23.2586 18.5061 21.0554 0.736204 -0.805881 0.836108
22.559 20.294 22.5237 -1.71872 -2.39084 0.487337
20.824 17.88 22.2839 1.61067 1.44743 -1.77
18.2455 22.1197 20.2308 1.47417 1.33936 0.716689
19.6361 24.2018 20.0621 -2.41397 -0.315032 -0.196984
18.7434 22.0619 23.0957 0.45272 2.54866 1.50414
21.4951 23.3462 18.8922 0.857091 -0.154126 0.670318
19.4885 22.149 17.9666 1.72402 -0.696328 -0.8435
20.4462 19.9945 20.4942 -0.0323525 -1.60789 -0.899042
21.078 22.5034 21.4422 2.22113 1.88928 0.49531
22.9407 21.2363 20.0749 0.708774 3.21766 0.860939
ITEM: TIMESTEP
12000
ITEM: NUMBER OF ATOMS
19
ITEM: BOX BOUNDS ss ss ss
1.7876077083639881e+01 2.3059765999444853e+01
1.6823339643840413e+01 2.4131702659598265e+01
1.7497921753632259e+01 2.2862703500776362e+01
ITEM: ATOMS x y z vx vy vz
18.6691 17.4096 20.11 -1.36194 -1.66792 0.00565105
18.1846 19.6311 18.7626 1.10032 -0.878336 3.00239
18.0293 19.6297 21.6464 0.329788 1.49496 -1.24997
19.9311 20.7255 23.0641 0.930861 -2.35935 2.75508
21.2424 17.0143 19.9464 -0.518449 2.18676 0.475869
22.2783 19.2232 18.6062 1.07317 1.40366 0.625454
20.0325 18.1441 17.9861 0.838579 2.05016 1.87786
20.7025 20.8001 17.5121 -4.44933 -0.0224891 -2.08797
23.3045 18.4341 20.7335 0.402453 0.551151 1.36261
22.2426 19.8272 22.8501 -2.2667 -1.30051 -1.24833
20.4742 18.159 21.9703 1.47479 2.26021 -0.394335
17.9564 22.3952 21.0591 0.27324 -0.283398 1.35807
19.6209 23.9866 20.2626 1.03853 -0.295273 0.359211
19.1826 23.2004 22.8945 -2.19532 -0.713159 0.216356
21.5737 22.5298 18.8073 1.86869 -0.000815921 -0.711
19.0214 22.1687 18.5631 0.824351 0.28127 -4.38669
20.4905 20.3149 20.2876 1.49485 0.485638 -1.28876
21.5591 22.9002 21.7413 -0.116353 -0.955839 -0.457801
23.0094 21.0115 20.7016 -0.741547 -2.23673 -0.213696
ITEM: TIMESTEP
13000
ITEM: NUMBER OF ATOMS
19
ITEM: BOX BOUNDS ss ss ss
1.8096818744641023e+01 2.3280691676807233e+01
1.7249113454756788e+01 2.3803472017464713e+01
1.7005264922841253e+01 2.3279201220280498e+01
ITEM: ATOMS x y z vx vy vz
18.7172 17.3823 19.8935 1.51415 2.0588 0.952695
18.1126 19.7442 18.8875 -1.49128 0.696996 0.368287
17.9104 19.2473 21.3979 -0.934307 0.40549 -1.45044
19.8409 21.2667 23.1881 -3.81911 -1.6782 0.866675
21.1507 16.723 19.9255 2.40383 -1.53441 0.0666857
22.4905 19.2723 18.9776 0.918911 -1.68318 0.156491
20.0741 18.2254 17.8832 -0.0446209 1.10705 1.20713
20.6508 20.5964 17.7309 0.847172 -1.77014 2.22159
22.8888 17.9791 21.1507 -1.07102 -0.173405 1.46438
22.2956 19.9258 22.3709 0.99956 -1.70639 -1.65262
20.364 18.1523 21.95 0.281417 2.41947 -1.10859
18.5949 21.8545 21.0032 0.122333 -1.73021 0.197159
19.5214 24.3017 20.4771 0.888835 0.560728 -1.13836
19.3926 23.5799 23.0944 1.80786 0.0176949 1.03074
21.4438 22.9073 19.0978 -0.283241 -0.881645 1.1673
18.928 22.2601 18.4732 -0.828289 1.32461 2.92706
20.5027 20.1164 20.2719 0.408413 -0.754559 -4.17551
21.4054 22.6487 21.6598 0.766649 1.19255 -3.58506
23.2207 21.3216 20.0718 -2.48725 2.12875 0.484387
ITEM: TIMESTEP
14000
ITEM: NUMBER OF ATOMS
19
ITEM: BOX BOUNDS ss ss ss
1.7869010543116612e+01 2.2865806468113188e+01
1.6695594941111022e+01 2.4113439776134335e+01
1.7527759381409961e+01 2.3063950798976414e+01
ITEM: ATOMS x y z vx vy vz
18.6446 17.3691 20.2291 2.11867 0.269328 -2.39261
18.3956 19.9934 19.01 -3.03503 0.947179 0.487344
18.1437 19.291 21.6164 -1.37415 3.75388 -0.020522
19.6591 20.6447 23.0163 1.11583 0.578747 -1.05671
21.1104 16.826 20.1463 0.728016 -0.945343 -0.764365
22.3501 18.8115 18.6244 1.39314 -2.02982 1.57854
19.8374 18.329 17.9952 0.877959 -0.435597 0.52663
20.9486 20.8277 17.8361 -0.0427879 -1.38737 -1.96286
23.1387 18.4661 20.9268 -0.752744 0.222601 3.22997
22.2085 20.1182 22.5391 0.414144 1.30407 -0.023733
20.5385 18.1042 22.3755 0.471966 -1.97811 -1.24694
18.0452 21.9493 20.819 -4.30202 0.371475 1.9071
19.7264 24.1549 20.4467 1.56547 -1.10362 2.37369
18.976 23.1027 22.5883 -0.0731504 -0.654794 -0.802798
21.9445 23.1563 19.0752 -1.07108 0.713773 0.129414
19.0239 22.5974 18.5406 -3.53365 -0.242914 -0.517498
20.4567 20.0783 20.3202 1.33282 1.54964 -1.80459
21.3406 22.7189 21.6137 3.50794 -0.255487 -0.63424
23.0166 20.9663 19.7859 0.658657 -0.677632 0.99416
ITEM: TIMESTEP
15000
ITEM: NUMBER OF ATOMS
19
ITEM: BOX BOUNDS ss ss ss
1.7887789194373820e+01 2.3193869963394775e+01
1.6946935386376332e+01 2.3948799274831231e+01
1.7199338200365542e+01 2.2947278759634472e+01
ITEM: ATOMS x y z vx vy vz
18.7563 17.6291 20.0064 2.52454 -1.23035 2.57729
17.8919 19.8911 19.3965 -1.12189 2.95297 -1.89324
18.1861 19.0909 22.0135 -0.264186 1.8488 -1.1557
19.8446 21.2015 22.9087 -0.190111 1.22393 -1.49024
21.3754 16.951 19.8034 0.250096 0.941658 -1.65234
22.7615 19.5268 18.5546 -0.40691 -0.279851 1.47682
19.9352 18.5158 18.1437 2.29368 -0.377647 1.51526
20.7276 20.6905 17.2034 -1.93731 -0.712088 -0.244592
22.9424 18.3592 21.0281 0.26744 -1.8665 -0.721595
21.8946 20.0357 22.9432 0.675043 -0.687139 -0.850336
20.4311 17.9337 22.0388 1.77118 1.56621 -3.51266
18.2627 21.8875 20.8697 -1.59716 0.907425 0.654668
19.9865 23.9447 20.201 0.314078 -2.8435 -0.871203
19.0125 23.6192 22.4924 -0.435289 -0.0548803 1.13443
21.6032 22.3571 19.0495 1.92488 -0.799775 -0.379157
18.9596 22.4117 18.4129 -0.796385 -0.988507 1.37424
20.2758 20.1817 20.2774 -1.55033 0.90757 1.7759
21.468 22.4292 21.6278 -0.737393 0.838001 0.446976
23.1898 20.8485 20.534 -0.983978 -1.34633 1.81549
ITEM: TIMESTEP
16000
ITEM: NUMBER OF ATOMS
19
ITEM: BOX BOUNDS ss ss ss
1.7887789194373820e+01 2.3193869963394775e+01
1.6946935386376332e+01 2.3948799274831231e+01
1.7199338200365542e+01 2.2947278759634472e+01
ITEM: ATOMS x y z vx vy vz
19.0796 17.6866 20.1252 -0.117366 0.488662 3.24802
18.2967 20.0893 19.0097 -0.687825 -2.44978 -1.827
17.979 19.4636 21.831 0.039832 2.18192 3.56879
19.5893 20.8392 23.0861 -1.63348 0.851565 -1.98253
21.4004 16.7516 19.6911 0.717514 3.23073 -2.61015
22.2264 18.9581 18.6976 -1.36595 -1.41899 -1.8751
20.0045 18.054 17.7647 -0.204452 0.591447 -1.05304
20.5753 20.526 17.4333 1.23615 -0.576566 1.23398
22.7457 18.3434 20.9794 -1.22308 0.933761 -1.99233
21.9179 20.3196 22.636 -1.02612 -0.196119 0.493647
20.5265 18.1771 22.3542 0.50713 0.875894 0.540967
18.1996 22.016 20.9934 0.863758 -1.04046 -1.92057
19.6711 23.9903 20.2845 -1.24738 0.935402 -2.88514
19.237 23.338 22.9749 0.459985 -0.618847 0.0975916
21.709 22.4004 19.094 0.743111 -0.406001 1.70565
19.1711 22.4545 18.3433 0.461752 0.330094 1.66382
20.2993 20.3643 20.3709 2.07363 -2.63809 0.299569
21.5283 22.7316 21.4692 -0.982429 -0.591571 3.98288
23.3485 21.0016 20.3665 1.38522 -0.48305 -0.689063
ITEM: TIMESTEP
17000
ITEM: NUMBER OF ATOMS
19
ITEM: BOX BOUNDS ss ss ss
1.7887789194373820e+01 2.3193869963394775e+01
1.6946935386376332e+01 2.3948799274831231e+01
1.7199338200365542e+01 2.2947278759634472e+01
ITEM: ATOMS x y z vx vy vz
18.8722 17.4746 20.1772 -0.61364 0.562435 0.111118
18.2087 19.9172 19.0104 -1.33103 -0.290388 -1.54072
18.1311 19.3015 21.8086 -0.59062 -1.47197 -3.27959
19.4247 21.0006 23.0443 3.86762 0.126406 2.18496
21.4165 16.9603 19.726 -0.496086 0.0048463 -0.882252
22.4022 19.7752 18.6912 1.17695 -0.0128318 -0.518098
19.862 18.248 17.9367 -0.49375 0.567092 0.385598
20.2617 20.4465 17.3468 -1.43034 0.281937 -0.344616
22.8974 18.4101 20.9575 0.0146634 0.51741 4.13464
21.805 20.1985 22.9223 1.41823 1.76825 0.362963
20.4452 18.061 22.1803 -1.58639 0.948994 -0.470839
18.3882 21.906 20.7482 -0.360274 0.335321 -0.00823643
19.9889 24.063 20.3052 0.904785 2.38992 2.06709
19.5695 23.7483 22.6177 -0.456267 0.996542 1.29486
21.3067 22.3192 19.0641 0.927553 0.737761 0.210836
18.8039 22.3089 18.1853 -0.774039 -3.82976 -0.447887
20.5339 20.0485 20.3795 2.66144 -1.12315 -1.03918
21.613 22.3766 21.9098 -3.07609 -1.42776 -0.804595
23.5742 20.941 20.4939 0.237288 -1.08105 -1.41606
ITEM: TIMESTEP
18000
ITEM: NUMBER OF ATOMS
19
ITEM: BOX BOUNDS ss ss ss
1.7887789194373820e+01 2.3193869963394775e+01
1.6946935386376332e+01 2.3948799274831231e+01
1.7199338200365542e+01 2.2947278759634472e+01
ITEM: ATOMS x y z vx vy vz
18.6604 17.4709 20.2144 -1.49031 0.0334218 -0.401913
18.0513 19.6904 18.927 1.33005 -1.39351 -1.16612
18.0212 19.363 21.551 1.42591 -0.725903 0.00357949
19.6879 20.9204 22.9755 -0.398242 -1.75405 1.01933
21.2911 17.0608 19.8179 0.637765 0.335409 1.80202
22.2397 19.5612 18.8202 1.80517 1.31158 -0.797892
20.0806 18.1455 18.0691 -1.85048 -0.0986718 1.8448
20.322 20.7861 17.3638 1.60258 1.7825 -0.383209
22.9629 18.4508 20.9983 -2.14999 -0.117686 -0.903792
22.1484 20.1922 22.6284 -0.714008 2.13789 -0.367601
20.3717 18.1885 22 -0.698203 -0.141097 -1.79302
18.2128 22.1694 21.0852 3.03084 0.919295 -0.556656
20.1221 23.6479 20.013 0.920927 1.65931 -1.83124
19.2185 23.4565 22.5324 -0.005252 1.11254 -0.179183
21.945 22.1163 19.0758 0.68799 0.709234 0.85457
18.7322 22.1345 18.6065 -3.02553 -2.38682 0.745433
20.215 20.2352 20.2268 -0.969723 -3.52626 0.96061
21.7133 22.7366 21.8496 0.714459 0.234413 3.61743
23.5089 21.1788 20.7501 -0.85396 -0.0916027 -2.46714
ITEM: TIMESTEP
19000
ITEM: NUMBER OF ATOMS
19
ITEM: BOX BOUNDS ss ss ss
1.8176239848289743e+01 2.3152087138818384e+01
1.7117972410005439e+01 2.4270613621799754e+01
1.7234117730057747e+01 2.3236029952141863e+01
ITEM: ATOMS x y z vx vy vz
18.5486 17.794 20.2694 0.0890315 -0.384083 1.19874
18.5034 20.0472 18.6302 -0.955507 -1.64939 0.385509
18.0282 19.6437 21.944 1.03531 -0.291968 -0.435566
19.9947 20.7682 23.4157 0.973767 1.03689 0.713418
20.8924 17.0961 20.0181 0.623804 2.65364 1.40033
22.261 19.1483 18.508 1.23977 0.255891 -0.693253
20.0854 18.2215 17.8584 0.523891 -0.999187 0.274479
20.6238 20.6263 17.1637 -1.73106 2.43088 0.63595
22.9976 18.4218 20.8913 -2.50271 -0.193293 -1.61623
22.5214 20.2942 22.827 0.130965 -0.860364 -1.32624
20.4296 18.5151 22.5084 -2.10089 -0.864368 0.378305
18.7506 21.7973 20.5801 -0.6487 0.15138 -1.23026
19.9943 24.1139 20.3534 -1.3218 0.7077 0.948743
18.6505 22.8847 22.8846 1.73998 0.0970861 0.179224
21.267 22.0726 19.0265 3.17272 0.229003 -1.16751
19.0038 22.5557 17.9486 0.649746 -0.985849 -0.86594
20.5953 19.6992 20.3708 0.17058 0.0975354 -0.372407
21.25 22.5186 21.8028 -2.10949 -1.91206 -1.07952
23.1072 21.2865 20.5039 1.02059 0.480559 2.67223
ITEM: TIMESTEP
20000
ITEM: NUMBER OF ATOMS
19
ITEM: BOX BOUNDS ss ss ss
1.7509868177290798e+01 2.3360720832792893e+01
1.6803030583796833e+01 2.3864743282094484e+01
1.7379488357943679e+01 2.3854302627606831e+01
ITEM: ATOMS x y z vx vy vz
18.4352 17.8368 20.4065 -1.43754 -0.209021 1.49051
18.2258 19.9939 18.6544 1.97302 -2.8897 -3.53462
18.2528 19.9606 21.8486 0.00640945 1.75983 -0.0979691
20.3353 20.4222 23.6254 -0.902303 -0.415374 3.1997
20.5611 16.4581 20.5862 -0.249111 1.9472 0.729038
22.6448 20.1971 18.3267 -1.28654 0.297158 2.19846
20.4682 18.339 18.923 -0.00992084 0.103637 -1.54437
20.504 20.5513 17.2874 -0.955272 -0.529339 1.03595
22.6365 18.4569 20.6814 1.59872 1.05249 -0.541503
22.4702 19.8939 22.6625 -1.62343 -1.87613 -1.70682
20.2101 18.2557 22.1802 -0.832117 -0.599713 -1.47498
17.7221 21.9811 20.0845 1.39999 -1.86689 1.43616
20.0942 23.2199 20.4255 0.782692 1.78634 1.17894
18.796 22.3418 22.4422 2.33316 0.615369 0.851322
21.539 22.575 18.5476 0.815193 0.419171 -0.711565
19.1917 22.6037 17.875 -0.464759 -1.14045 0.145767
20.643 20.5351 20.4399 0.0793707 0.175299 -1.81764
21.5218 22.4438 22.1882 -0.894651 0.41341 -0.59112
23.2532 21.439 20.3197 -0.332911 0.956702 -0.245252
ITEM: TIMESTEP
21000
ITEM: NUMBER OF ATOMS
19
ITEM: BOX BOUNDS ss ss ss
1.7509868177290798e+01 2.3360720832792893e+01
1.6803030583796833e+01 2.3864743282094484e+01
1.7379488357943679e+01 2.3854302627606831e+01
ITEM: ATOMS x y z vx vy vz
18.3817 17.5976 20.292 -0.388218 -1.57836 -0.324411
18.0795 19.8096 18.8146 1.52109 1.59045 -0.131253
18.229 19.9554 21.6458 0.494604 -0.456408 0.484551
19.7829 20.3694 23.7574 -0.542664 0.951328 -0.576297
21.2022 16.5762 20.5847 0.476977 -1.33253 -0.900894
22.4617 20.1143 18.2728 1.84642 -0.186481 0.386741
20.3425 18.2651 18.8374 0.0836643 0.0777006 2.68708
20.1666 20.2389 17.3205 -2.55902 -0.703785 1.57139
22.6157 18.6293 20.4133 -0.321458 -0.119963 -1.00637
22.4341 19.857 22.5469 -0.683544 -1.93601 1.31559
20.5038 18.4879 21.9619 -1.20954 -0.852212 -1.34979
17.9434 22.2101 20.1454 0.970816 1.01015 -0.632399
20.4984 23.5244 20.4716 -1.51235 0.0902606 0.756324
18.9515 22.5513 22.2805 -1.05562 0.870995 0.769421
21.7342 22.4843 18.3554 1.84923 0.54317 -1.3774
19.0354 22.4414 18.05 -1.28207 -2.38112 1.62999
20.4466 20.7685 20.406 2.16637 2.8787 -2.89995
21.5488 22.2264 22.6095 0.413128 0.309575 0.396365
23.147 21.3977 20.7391 -0.267812 1.22455 -0.798688
ITEM: TIMESTEP
22000
ITEM: NUMBER OF ATOMS
19
ITEM: BOX BOUNDS ss ss ss
1.7655827105598931e+01 2.3000530394936959e+01
1.6478489423838475e+01 2.3318551567782883e+01
1.7233450420896251e+01 2.3692250477551230e+01
ITEM: ATOMS x y z vx vy vz
18.5922 18.5625 20.2974 0.710333 0.27753 -0.758053
18.3806 19.7209 18.1623 0.553803 1.09018 0.423348
18.4639 20.0794 22.3779 -0.429471 0.64193 2.39561
20.2183 20.6406 24.0353 -2.54089 -1.75944 0.835108
20.6816 16.6117 20.4966 -2.83243 -0.659759 -1.16229
22.4508 20.058 18.1218 2.69942 0.601509 0.0666749
20.4961 18.368 18.4767 -1.31211 -1.56092 1.92122
20.5194 20.4952 16.8172 0.259754 0.0440568 -0.932534
22.4918 18.6876 20.5233 2.46487 0.981632 -1.18621
22.3225 19.8203 22.8156 1.71694 1.39211 -0.931585
20.3559 18.2653 22.4143 -1.22997 1.16069 -0.405125
18.0221 21.4876 20.2867 -0.391384 -1.3904 -0.836953
19.9171 23.4738 20.3817 -0.815222 0.111451 -1.65427
18.7543 22.6084 22.6737 1.54446 1.53285 1.9136
21.7321 22.6699 18.7801 -1.11993 0.540263 1.94503
19.1674 22.2182 17.9801 -1.34093 -1.20822 0.266877
20.5305 20.5392 20.1724 2.04537 -1.34365 -1.35703
21.2282 22.1921 22.2965 -0.608246 0.32647 -0.606712
23.1801 21.0063 20.3954 0.625624 -0.778263 0.063292
ITEM: TIMESTEP
23000
ITEM: NUMBER OF ATOMS
19
ITEM: BOX BOUNDS ss ss ss
1.7939018484805715e+01 2.3432135737963552e+01
1.6775525929001056e+01 2.3365688564028094e+01
1.7224969954880283e+01 2.3966132687570816e+01
ITEM: ATOMS x y z vx vy vz
17.6475 18.3739 20.7002 2.59167 -0.0197074 -1.29394
18.7985 19.403 18.7847 -0.686985 -0.528929 0.0109221
18.3977 20.1044 22.6084 0.0192938 1.58426 0.147805
20.416 20.7758 23.9261 -0.490801 0.776375 0.336244
19.9827 17.495 19.9547 1.51802 0.819961 -2.08727
23.1036 20.3385 18.1319 0.331677 0.276549 -1.15137
21.2894 18.0232 17.8452 -0.0107541 0.86331 3.38445
20.6825 20.2928 17.0926 -1.74262 -1.77062 0.367203
22.2853 18.8729 20.0902 0.117405 0.671279 -3.43217
22.3835 19.8238 22.6921 1.744 -0.251616 2.41103
20.1339 18.3204 22.3216 -1.97988 0.616006 -0.188779
17.7535 21.4072 20.383 -0.196898 0.543163 -1.74526
19.8232 23.337 20.1373 0.0539972 -1.58486 1.03262
18.8904 22.4423 22.5993 -0.678233 0.231525 2.21678
21.6422 22.2001 18.7972 -0.18693 0.406018 -1.20392
19.0519 22.0791 18.1957 1.01529 -0.217745 0.177317
20.4439 20.5542 20.5738 -2.18372 -0.725525 0.649717
21.4673 22.3607 22.0621 1.24774 -0.860361 -0.184468
23.3121 21.3006 20.6087 -0.482284 -0.829079 0.553079
ITEM: TIMESTEP
24000
ITEM: NUMBER OF ATOMS
19
ITEM: BOX BOUNDS ss ss ss
1.7721203738546947e+01 2.3055651553549776e+01
1.7151370281343155e+01 2.3572947013068223e+01
1.7000184207673453e+01 2.2998070705330658e+01
ITEM: ATOMS x y z vx vy vz
18.435 18.8044 21.3415 -0.708604 0.828634 0.854397
18.8086 19.3005 18.589 2.07864 -0.130218 0.0975087
17.556 20.7035 22.9583 -1.32998 3.47876 0.474921
20.2807 20.59 22.5697 -0.567908 0.449524 -0.256708
20.0357 17.1672 20.0023 1.65332 0.381436 0.358143
22.9801 20.2318 18.2912 -2.13324 -2.31918 -0.888668
21.0745 18.0937 17.9682 1.80254 -0.539541 -0.0215457
20.8465 20.681 17.0186 0.44625 0.821588 2.01176
22.3669 18.3645 20.3173 1.09072 0.410573 -1.40931
22.6177 19.2853 22.6613 0.690002 -1.11062 0.612011
20.8715 17.672 22.3319 0.350807 -1.06511 -1.63932
18.035 21.3015 20.6249 -0.957595 1.05735 -0.845135
19.5955 23.6797 20.2769 -0.322394 0.378005 0.592726
18.5097 22.9177 22.6869 0.200603 -2.57452 0.00443189
21.6077 22.4385 18.9343 -0.792554 -0.674104 -0.769453
18.9934 22.1168 18.3173 -0.773458 0.205051 0.0487893
20.5386 20.2855 19.9308 -1.04851 0.285305 0.488888
21.3317 22.7073 21.7678 -0.288977 0.432433 -0.0267988
23.0201 21.164 20.9166 0.61035 -0.315364 0.313364
ITEM: TIMESTEP
25000
ITEM: NUMBER OF ATOMS
19
ITEM: BOX BOUNDS ss ss ss
1.7721203738546947e+01 2.3055651553549776e+01