ITEM: TIMESTEP
0
ITEM: NUMBER OF ATOMS
20
ITEM: BOX BOUNDS ss ss ss
1.8046882444670750e+01 2.2776808089846384e+01
1.7324518750221767e+01 2.3199995628701789e+01
1.7257482284558773e+01 2.3101031103893604e+01
ITEM: ATOMS x y z vx vy vz
18.051 20.1494 20.4226 0.953766 0.432011 0.874592
21.209 17.3286 19.798 0.53235 -0.109581 -0.399195
21.2511 19.9808 23.097 1.76887 -1.50758 -0.67263
21.5178 22.4002 23.0342 -0.740328 1.64922 -2.17835
18.7457 19.1447 22.6792 -2.95506 1.47111 0.126886
19.9725 23.1472 18.2275 0.470511 0.426224 -1.58549
22.3956 22.1402 18.7927 1.18066 0.942539 0.384087
22.3642 21.1552 21.1112 1.42654 0.148024 0.545712
22.1126 19.5938 19.0506 -2.22554 1.16779 1.02589
19.4397 21.5121 22.0303 -0.545104 0.446064 -0.0516022
18.2846 22.6364 20.1202 -2.17875 -0.646711 0.338807
20.7148 17.4888 22.3101 0.273 -0.753719 -0.529285
22.7727 18.7052 21.3681 0.350189 -0.56974 0.593216
20.8224 20.8955 17.2616 -0.12177 -0.518154 1.32551
18.3548 21.1164 18.0382 0.288499 -0.0930453 -0.861729
19.6277 19.0158 18.6315 -1.85286 1.10699 -1.64579
18.7257 17.6743 20.6284 0.688338 -0.457636 0.582886
20.8595 23.1959 20.7837 0.905134 -1.36507 1.34731
20.2222 21.2557 19.5758 -0.390622 -0.966386 0.392249
20.4564 19.3638 20.9391 2.17219 -0.802346 0.386936
ITEM: TIMESTEP
1000
ITEM: NUMBER OF ATOMS
20
ITEM: BOX BOUNDS ss ss ss
1.7724475251916878e+01 2.2920611342748415e+01
1.6950614756556213e+01 2.4350533724423180e+01
1.7410764200408909e+01 2.3841754625186518e+01
ITEM: ATOMS x y z vx vy vz
17.6377 19.786 20.3964 -2.75368 -0.609418 0.194029
21.0398 17.1628 19.5952 1.65428 -3.05901 -1.71678
22.2185 19.4524 23.442 2.32344 1.40389 3.29501
21.4706 23.1215 22.5267 3.55511 -1.20318 -1.38578
19.8194 19.3384 23.9049 1.22548 4.70727 2.21583
20.8616 23.6607 18.1639 1.19376 2.24195 -1.19129
22.6933 22.0104 19.0716 0.220129 -1.59645 3.53222
22.292 21.1158 21.7793 -0.940039 2.35991 5.5459
22.4219 19.2873 19.1406 3.81212 -2.08138 -3.89869
18.838 21.3161 22.2221 -0.800057 -3.06201 3.1404
18.3441 23.5276 19.1648 0.856047 1.41385 -0.431189
20.8497 16.9058 22.4071 1.08645 -1.53619 -3.48025
22.8119 18.0441 20.9942 -3.41108 0.379267 -1.46311
21.0173 20.9027 17.5046 -0.920788 -1.37989 3.50325
17.9944 21.0637 17.7927 -1.47781 -4.2448 -5.33351
19.0391 18.9643 18.1491 -2.27855 0.893944 2.56255
18.5038 17.0952 19.835 1.47893 1.13229 -0.88727
19.6095 24.4388 20.7168 -1.03096 2.9391 1.78271
19.9592 21.5276 19.7411 -1.72564 0.739607 -3.64396
20.4783 19.1788 21.3517 -2.06715 0.561273 -2.34007
ITEM: TIMESTEP
2000
ITEM: NUMBER OF ATOMS
20
ITEM: BOX BOUNDS ss ss ss
1.7435613647971234e+01 2.2850709254013815e+01
1.6998622818364659e+01 2.4284358129730744e+01
1.7304700406376753e+01 2.3795965040858498e+01
ITEM: ATOMS x y z vx vy vz
17.0907 19.6775 20.0626 -1.60727 -1.02104 0.969842
20.8748 16.9596 19.3628 -2.97222 2.01109 -0.198212
23.1032 19.1682 23.5767 3.22211 -2.1666 0.167672
20.4476 22.5462 22.2399 3.17316 2.57962 4.34677
20.3625 18.0754 23.7846 0.695512 1.6231 -1.61498
21.3641 23.3231 20.2377 0.862332 -3.73464 2.16054
22.2732 21.384 19.4167 -1.54567 -2.06447 0.107726
22.8877 21.7492 22.2682 -1.02575 2.39441 -1.6918
22.4589 19.4064 18.6809 2.34052 1.63166 -0.102621
21.1985 20.4486 24.2146 -1.80314 -2.68631 2.11599
18.8078 22.6525 16.6001 -0.869678 -3.1891 -4.31494
20.4627 16.965 21.474 0.567081 -0.708598 -2.94673
21.8404 19.3267 21.5914 -3.72586 4.82676 2.46596
20.8259 21.8829 17.1917 -0.855877 1.72299 -2.99058
17.9421 20.6508 17.7727 1.52163 -2.08224 1.3579
19.8132 19.4219 18.8404 0.524701 -0.679679 -1.04471
18.5289 17.6777 20.2088 1.87235 0.64862 0.378802
19.4329 24.2464 19.198 2.5215 1.5396 -0.748655
18.6547 22.0548 19.6038 -0.0876466 1.19639 0.510155
19.5303 20.2832 21.5745 -2.80779 -1.84159 1.07187
ITEM: TIMESTEP
3000
ITEM: NUMBER OF ATOMS
20
ITEM: BOX BOUNDS ss ss ss
1.8211075279369904e+01 2.2640982538016093e+01
1.6429420274411431e+01 2.4486246651254493e+01
1.7503866555719245e+01 2.3562340201188416e+01
ITEM: ATOMS x y z vx vy vz
17.9767 19.2512 19.5709 -3.39105 0.0965847 0.739076
20.6078 16.0827 19.8171 -2.04564 -5.87644 3.03661
20.8128 24.4076 20.8878 -0.175128 -2.79135 0.0828274
21.8615 22.3997 19.569 -1.26111 3.47524 -0.385673
21.6319 18.3147 19.3623 2.82227 -0.182169 1.25647
19.7393 24.1188 18.4894 5.74196 2.46126 0.837762
19.8916 21.2498 17.8686 -5.73089 0.79747 1.37715
18.1669 20.4572 17.0317 0.0567399 -1.50411 -0.895046
19.4326 18.0608 18.3625 2.15252 1.02398 1.43412
19.3914 17.8558 21.379 -0.458236 2.84331 0.0251647
21.9091 24.8776 18.3693 4.46704 1.02476 0.569022
18.898 22.1507 20.3612 -3.84078 -1.33997 -2.8652
22.7807 18.9533 21.6593 1.21711 2.13024 -2.18024
19.7227 22.4193 22.769 -0.388278 -1.00098 1.7706
21.2894 17.5575 23.0942 0.77544 -0.276565 -0.047235
21.9591 22.025 21.8753 0.791641 2.65172 -1.25609
20.8636 20.3239 23.0165 -1.21941 -2.10859 -0.884846
22.7884 16.4614 21.7571 3.70083 -1.58312 -0.900468
20.344 20.1837 20.4785 -1.27925 1.36228 -1.60183
17.8323 20.7491 22.1814 -1.93577 -1.20356 -0.112193
ITEM: TIMESTEP
4000
ITEM: NUMBER OF ATOMS
20
ITEM: BOX BOUNDS ss ss ss
1.7427541981061825e+01 2.3633864053040885e+01
1.6282488726513861e+01 2.3922130429927915e+01
1.7759538510370938e+01 2.2947479554773921e+01
ITEM: ATOMS x y z vx vy vz
17.1701 20.0946 19.3666 -2.9582 -0.79058 -0.981563
20.7124 17.0809 20.6512 -2.96778 7.06604 1.29628
21.2747 17.3808 18.5076 -0.381831 1.15306 -4.60054
18.9449 18.2932 19.2888 5.68936 1.29401 0.81117
20.4229 20.5815 17.8382 -2.07059 -0.938352 0.0956541
19.3377 17.8469 22.9089 1.35984 0.300997 3.87701
22.0922 19.5886 20.481 0.305096 -1.20252 3.04118
22.0322 18.0892 22.6184 -0.91856 2.16951 -2.20446
20.3259 20.0666 22.9232 1.64895 -1.4786 0.394918
23.1853 17.4526 20.1292 1.625 0.413368 -0.929183
19.6491 20.6238 20.5364 -1.37601 2.1398 1.33288
20.5634 23.417 20.4343 0.554446 -1.32805 -0.709998
22.2509 21.7956 18.8477 3.29608 0.741068 -0.47407
21.3325 23.4105 17.9218 1.37271 -3.63842 -1.44797
18.9147 22.34 18.1049 2.26537 0.919195 0.957908
23.6783 23.0076 21.076 1.70109 0.335098 -1.64626
17.5071 22.3893 20.1472 1.09539 -0.929031 1.03023
18.7565 22.3212 22.3026 -3.76627 -2.72094 2.09649
22.1455 22.1817 21.9543 -1.9536 -3.09954 -1.03622
17.6037 19.9383 21.8617 -4.52046 -0.406107 -0.903459
ITEM: TIMESTEP
5000
ITEM: NUMBER OF ATOMS
20
ITEM: BOX BOUNDS ss ss ss
1.7608490241037870e+01 2.3305555337171945e+01
1.6757146076712260e+01 2.4036148880811393e+01
1.7940025825329478e+01 2.3801599630376717e+01
ITEM: ATOMS x y z vx vy vz
18.8326 19.9793 18.5366 -1.08618 -0.292783 2.45113
20.0234 17.8773 22.4494 1.67307 -2.55875 -0.274938
22.0756 17.3876 17.943 -1.0063 -4.62134 -1.0805
19.6087 17.8304 19.4073 0.855066 -2.97765 0.349111
20.8222 21.4707 18.2565 1.6888 1.18295 -0.000294242
18.2185 19.2097 23.7951 1.95569 0.953716 -2.39354
21.6859 19.1477 19.1204 -1.2655 0.873603 0.177996
22.4616 18.9945 21.821 -2.84446 3.15004 -2.62635
20.6855 20.1064 23.3512 -3.60949 4.47894 0.174203
21.693 16.7625 20.5593 -1.73301 1.31336 -1.85265
19.8946 20.4026 20.9195 -0.8544 0.763617 0.302088
20.3794 23.5852 20.9334 1.37925 2.60477 3.13994
23.3034 21.3147 18.548 1.91032 0.113448 2.88487
20.9095 24.0324 18.7451 -5.12565 0.329479 1.70057
18.3658 22.8022 18.5148 4.39746 -1.0187 -0.0078891
22.9407 23.5016 20.011 -1.8736 -2.88041 1.36411
17.6114 22.1763 20.4884 -1.17257 -1.06056 -2.51814
18.195 21.2077 22.9815 3.49125 1.4276 1.70295
22.3403 21.1544 20.7108 2.20893 -0.33289 -2.69788
17.8531 18.9568 20.8077 1.01131 -1.44844 -0.794783
ITEM: TIMESTEP
6000
ITEM: NUMBER OF ATOMS
20
ITEM: BOX BOUNDS ss ss ss
1.6899281825396756e+01 2.3601020280845312e+01
1.6214408425930799e+01 2.3609975761575299e+01
1.7909037834282088e+01 2.3387892629338847e+01
ITEM: ATOMS x y z vx vy vz
18.6377 21.151 18.1664 -1.68393 4.03536 4.27465
20.1539 17.9804 21.5862 2.78128 -0.726249 -0.481263
20.5297 16.8601 19.5387 -0.110691 3.95218 3.67538
19.0152 18.4787 18.4649 -1.23789 2.49778 -1.99658
18.8707 19.169 23.4991 -3.55217 2.78666 -2.26847
21.744 18.9577 18.5374 2.50819 -2.50754 -2.25018
22.513 20.0919 21.3655 2.17051 1.42595 0.896313
22.7699 17.5637 20.3125 -0.605444 2.13725 -1.43073
17.6619 18.0457 20.702 -0.6345 -1.30592 3.57315
21.6024 21.3943 19.0103 -0.95832 1.91024 0.781775
20.3678 21.0488 22.8211 -1.69692 1.74848 1.04078
19.3986 20.3526 20.3457 2.13049 -2.5913 -4.44695
20.6433 22.9165 20.8637 -4.78061 -2.99475 -2.92451
23.8915 20.2952 19.1445 3.56624 -0.603024 1.31798
20.428 23.6915 18.3231 -1.28151 -0.920964 -0.0316952
18.2947 22.627 20.2391 0.49331 0.523385 1.03386
23.3321 23.033 19.3497 0.201275 -3.71108 0.146049
16.7425 20.2207 21.2135 -0.453646 -0.161409 -0.0686551
18.0773 21.5861 22.6722 0.905578 -3.38754 -0.571638
23.2258 22.4363 21.7444 2.23876 -2.10749 -0.269257
ITEM: TIMESTEP
7000
ITEM: NUMBER OF ATOMS
20
ITEM: BOX BOUNDS ss ss ss
1.7013067033961121e+01 2.3814953238147847e+01
1.7584160052027567e+01 2.2935504274670958e+01
1.7158670594636927e+01 2.3057399667813538e+01
ITEM: ATOMS x y z vx vy vz
18.9714 21.0334 17.976 4.54723 -0.655885 3.14709
20.4376 17.6527 22.9616 0.983521 -0.126661 -0.0363878
21.0596 17.8927 20.6118 0.683765 2.84598 3.25385
18.0699 18.4328 18.6114 -0.278537 3.45273 0.096315
18.0826 19.5435 23.0158 -1.24856 -1.13248 -0.849407
20.8872 18.9174 18.2762 -4.05704 -0.755213 0.133634
22.71 19.5858 21.3841 0.224653 -2.01912 -1.68479
23.3736 18.1428 19.0915 -3.18632 0.880269 -2.34349
18.4 18.1188 20.9035 3.58438 0.349456 -1.00685
21.4706 21.1648 16.8507 -1.13136 0.129333 -1.81944
20.4883 20.6937 22.9624 1.55022 -1.68365 2.15736
20.2242 20.3052 20.114 -2.09058 -1.06502 1.21496
20.5607 23.033 21.7965 -2.74354 0.899226 -3.57038
22.8576 20.7455 19.0831 -1.61014 2.93092 2.37898
20.6384 22.8598 18.6781 1.74321 -2.06621 -3.20875
18.3276 22.4326 19.894 3.71959 -1.6688 -0.974701
22.4729 22.9975 20.5898 -0.4274 1.50703 2.26065
16.903 20.5089 20.5392 0.708519 -2.46851 0.574913
18.3558 21.9108 22.3845 2.44568 2.35528 -1.09435
23.6089 21.9283 22.1758 -3.41732 -1.70867 1.3708
ITEM: TIMESTEP
8000
ITEM: NUMBER OF ATOMS
20
ITEM: BOX BOUNDS ss ss ss
1.7543631545009745e+01 2.3074097416471538e+01
1.5975764208244794e+01 2.4127134846607952e+01
1.7690646258966098e+01 2.3043386386585048e+01
ITEM: ATOMS x y z vx vy vz
19.9855 20.4628 17.8092 1.65295 0.620205 -0.516395
20.9577 17.8045 21.5142 3.29291 1.22318 2.37376
21.449 16.017 19.0793 0.0528316 1.87925 -2.92487
17.6064 20.5587 18.7485 1.40863 1.27204 -0.264637
18.6876 19.0236 22.6218 -0.0920701 -0.981456 0.822788
20.2388 18.1181 18.5939 -0.178004 -3.23618 0.863302
23.0812 20.4539 21.8598 -0.0584379 0.449448 -4.30431
22.8757 17.9329 19.7998 -1.26908 -0.475001 0.994228
18.5283 17.9804 20.2702 -1.64193 0.976561 -1.02738
22.5239 19.1464 17.7057 -2.40161 -1.92247 0.455902
20.8109 19.983 22.9952 0.965427 0.118186 1.50899
20.2529 20.5041 20.3957 0.612379 -1.20473 -3.85455
19.9107 24.1573 21.4324 -3.38 0.931178 3.02294
22.577 20.9951 19.5729 4.13165 -0.321341 1.38051
20.252 22.9168 19.1828 -3.45504 -2.44721 1.75191
18.0101 22.6613 19.7902 -0.232571 -0.297447 -1.16836
22.339 23.8413 19.7536 -0.0154273 -2.91041 1.18199
17.5484 20.8779 21.6161 -1.21582 1.81093 -2.47258
18.9544 22.0135 23.0262 2.25452 1.73986 -0.0309024
21.3104 22.4513 22.1325 -0.431293 2.7754 2.20766
ITEM: TIMESTEP
9000
ITEM: NUMBER OF ATOMS
20
ITEM: BOX BOUNDS ss ss ss
1.7126630788578662e+01 2.3560844698525425e+01
1.7372161069333941e+01 2.4105236941547858e+01
1.7180430953482045e+01 2.2861106714152672e+01
ITEM: ATOMS x y z vx vy vz
20.4447 17.4857 21.664 0.252157 -1.20753 0.542285
21.5139 17.9006 19.3518 -1.99949 3.84262 -0.837353
18.727 19.1217 23.0738 -1.92617 -1.48899 -0.169375
19.6223 18.7932 17.8605 -3.23966 0.362126 0.640475
23.1884 19.159 21.514 2.03837 0.0895545 2.35786
18.1507 18.0662 20.289 -0.218661 3.04091 -2.27941
22.8265 18.4414 16.9885 1.43493 1.42642 0.106658
20.5078 20.578 17.6664 0.974932 -1.99143 0.142865
17.8897 21.1933 19.0958 -0.147775 -0.524455 0.694574
23.6764 21.645 21.6448 -0.585681 -0.401509 -0.653618
21.4856 19.5997 23.1249 0.654946 -1.19872 3.46809
19.9544 19.8858 20.3905 2.14193 -2.14123 -0.633712
20.5298 23.8962 21.0886 0.624514 -0.578649 -0.22957
22.9969 19.7634 18.7365 1.31502 -0.0626993 -0.443468
19.6932 22.7806 18.8959 -0.823951 2.11234 -2.35699
17.5114 23.2409 20.3095 -2.41846 -0.62938 0.461782
21.8363 22.2651 20.2145 -0.968268 -3.15148 0.406242
17.0411 20.0057 21.2506 0.862248 1.33657 1.59312
18.9388 21.8607 21.7669 0.609466 -1.52448 -1.59445
21.3653 22.2178 22.9733 1.4196 2.69002 -1.216
ITEM: TIMESTEP
10000
ITEM: NUMBER OF ATOMS
20
ITEM: BOX BOUNDS ss ss ss
1.7223121791377292e+01 2.3277363692567768e+01
1.6783021395015286e+01 2.3998315314313725e+01
1.7630366896875458e+01 2.3864314230483163e+01
ITEM: ATOMS x y z vx vy vz
21.3186 18.4542 22.0656 -0.675076 1.75792 0.931821
20.2818 16.5166 19.4659 1.36251 1.22419 0.962984
19.1148 19.662 22.8165 1.07715 1.16512 -1.52046
19.5126 18.6444 17.9104 -2.3234 0.414269 2.95167
23.0199 18.2812 20.1735 0.223635 -0.36326 -1.35999
18.7864 18.1648 20.3504 1.93626 -3.31537 -1.48597
22.0315 18.2499 17.8496 -1.21689 2.37495 0.339103
20.7015 21.4686 17.5086 -0.601506 2.86265 -0.160052
18.4935 20.7198 18.4933 -1.97766 -2.56184 1.90018
23.1542 20.8155 21.3972 -0.891265 -5.40983 -0.373108
21.7192 19.7749 23.9726 2.05326 0.636426 -0.308044
20.5364 20.2551 20.339 0.182813 -2.45813 0.854484
19.6884 23.8384 21.4145 -1.72423 -1.28395 1.02521
23.4086 20.2674 18.7125 2.36594 -1.20567 0.484376
19.6183 22.9803 19.1436 3.41626 -0.390734 -0.530387
17.5391 22.952 20.1368 -0.995977 4.60411 -1.36179
21.864 22.4061 20.1025 0.2009 1.28465 -0.375403
17.3823 20.4985 20.783 2.061 -0.357784 -1.60657
18.5614 21.9057 22.5907 -3.42868 -0.202092 0.601671
21.1674 22.0444 22.6739 -1.04506 1.22438 -0.969716
ITEM: TIMESTEP
11000
ITEM: NUMBER OF ATOMS
20
ITEM: BOX BOUNDS ss ss ss
1.7333509861824034e+01 2.3543805384693901e+01
1.6631041169021810e+01 2.4314687217668940e+01
1.7435930212134931e+01 2.3988113548172109e+01
ITEM: ATOMS x y z vx vy vz
21.2407 18.0796 22.1387 0.641529 -1.99147 -0.451573
20.7503 17.0998 19.4393 4.12898 3.40899 1.81417
19.2875 19.8759 22.9609 1.68084 -0.310869 -0.914392
18.4221 17.9521 18.1703 -2.35993 0.740917 -0.458214
22.9425 18.2625 20.1463 -3.27466 -4.90682 1.56448
19.0489 18.2523 20.8681 0.0283578 3.27474 -0.141461
20.8993 18.9362 17.9227 -0.968501 -0.830639 0.809188
21.3792 21.8309 18.1005 -0.963873 4.95916 -0.503095
18.8606 20.7741 18.0241 -0.516054 -2.40054 -0.655105
23.0716 20.4061 21.7079 1.39067 -1.2098 1.05005
21.6983 20.1182 23.662 0.425484 -0.73676 0.161559
20.9583 20.154 20.0565 -1.43896 2.89004 0.339995
18.7575 24.2851 21.4898 -1.33578 0.0845627 2.32867
23.3802 20.2105 18.3217 0.434219 -1.09136 -0.730166
19.771 22.6419 19.9286 1.84405 -2.8915 -0.735736
17.3393 22.7657 19.7161 -1.41251 -1.65628 0.184779
22.9491 22.0852 19.9497 0.535456 -0.499478 -0.0538096
17.7429 20.3363 20.3132 0.523456 0.320241 -1.00467
18.2988 21.9737 22.6597 0.996981 -1.35802 -3.93868
21.1022 21.8598 22.3239 -0.359745 4.20489 1.33401
ITEM: TIMESTEP
12000
ITEM: NUMBER OF ATOMS
20
ITEM: BOX BOUNDS ss ss ss
1.7078640460273551e+01 2.3681663607162694e+01
1.7693598820351550e+01 2.3647545283823419e+01
1.7265782287006573e+01 2.3949072409158525e+01
ITEM: ATOMS x y z vx vy vz
21.3337 18.6612 21.9821 -0.94029 1.0131 -1.73722
20.6608 17.9801 19.5984 3.00141 -1.85046 1.54255
19.9483 20.1326 23.7033 -0.846207 1.12271 0.740524
18.5535 18.3988 18.2005 -1.43153 -1.46332 -1.30358
23.1523 17.7329 20.6421 -1.40758 -3.41918 -0.0155079
18.6588 18.6629 21.4073 -0.325994 1.12964 2.49434
20.6399 19.0661 17.1812 -0.214105 0.843448 -1.30847
21.6528 21.6062 17.5118 -4.16707 -0.695067 -1.28699
18.8521 21.3405 17.5909 3.00714 3.09159 -1.02648
23.5579 20.3881 21.8362 0.0151202 1.31677 4.71447
22.5926 20.136 23.7247 4.56137 0.418146 1.05373
19.9648 20.6342 20.0077 0.865772 3.63305 1.68299
19.2628 23.1682 22.0357 -0.0989883 -2.41607 0.641253
22.8413 19.7631 19.2379 -1.97367 0.868342 1.65897
20.0786 23.0882 19.4312 -2.19964 -1.59356 -0.768345
17.5751 22.4002 19.6648 0.693784 -1.64826 -2.00419
22.3122 22.1943 20.1157 0.353222 2.99842 -0.461938
17.0984 19.7365 19.534 -2.62099 2.21174 -0.748458
17.8945 20.9836 21.9909 2.22553 -2.42662 -2.21901
21.2697 21.8263 22.5036 1.50272 -3.13444 -1.64864
ITEM: TIMESTEP
13000
ITEM: NUMBER OF ATOMS
20
ITEM: BOX BOUNDS ss ss ss
1.6821440163192051e+01 2.3928244528848101e+01
1.7662717001401941e+01 2.3541815810974676e+01
1.7324244798354080e+01 2.3959991398024219e+01
ITEM: ATOMS x y z vx vy vz
21.1733 18.5329 21.7343 2.49185 -0.989217 -1.55972
21.4793 18.3607 19.1586 3.27776 1.28908 -2.03943
20.4797 20.6294 23.3832 -1.43407 3.34529 0.866431
18.7822 18.4198 18.5304 0.483606 1.89547 2.09324
23.5023 18.1252 20.6297 -1.26536 -0.261115 0.28334
18.6919 19.0647 21.5717 -0.859875 1.36414 0.40687
20.0507 19.3289 16.7142 -1.09859 0.350278 -2.0197
21.5154 20.8166 17.6473 -2.21244 -1.37968 -3.13797
18.7218 20.939 17.4383 0.532022 -1.90383 2.06455
23.2337 19.6043 22.8724 -2.03915 0.660009 -1.22945
21.8821 18.766 24.5884 -1.87212 -1.64261 0.894518
19.9937 20.725 19.8253 1.62977 1.62676 -0.856843
19.7433 22.7384 21.3746 1.54869 0.385869 0.738686
22.8389 20.3937 19.8651 0.632429 1.66849 0.853748
19.4246 23.1589 18.6831 1.68369 -2.51936 -1.35631
17.287 22.3883 20.2598 0.372454 1.07917 2.08907
21.7647 22.9748 19.5375 1.62564 -1.48445 1.02897
17.2421 19.9118 19.7206 1.17546 0.28898 2.80383
17.785 21.2412 22.3435 -1.52389 -3.61998 -1.05974
22.3081 21.7804 22.022 -3.14786 -0.153278 -0.864087
ITEM: TIMESTEP
14000
ITEM: NUMBER OF ATOMS
20
ITEM: BOX BOUNDS ss ss ss
1.6960589827209869e+01 2.3813396577468243e+01
1.8061471512820344e+01 2.3164344570696851e+01
1.7972149876635896e+01 2.3585114289339252e+01
ITEM: ATOMS x y z vx vy vz
23.1302 19.2764 18.3392 1.15348 3.24092 0.797643
18.5795 18.1875 19.7393 1.42335 -0.982312 -0.138571
20.5357 18.3184 17.8816 0.214681 0.507095 -0.706974
21.3545 20.9844 17.7619 -2.90905 -3.61705 -2.20898
18.6243 20.2526 18.4766 0.998998 1.16701 0.758673
20.5397 20.5224 20.5511 -2.44334 0.359998 -3.56199
23.2047 21.0164 19.8823 1.01395 2.39801 -0.71022
19.6042 22.7265 18.6529 0.874864 -1.92074 0.918449
17.6157 22.7984 20.1302 4.49591 0.823675 2.07745
21.9341 23.0665 19.5598 -0.0435122 -0.064159 1.05755
16.9549 20.4246 20.3353 -1.72593 -0.0785697 0.783625
21.3577 17.9778 20.413 1.23087 -3.061 0.106293
20.2615 20.6328 23.2625 -1.65874 -0.805029 -3.71732
23.7273 17.7983 20.4092 0.22995 -1.16552 1.38257
17.9353 18.9796 22.2497 -2.74823 1.10964 1.02891
22.7364 19.7428 21.8698 1.10435 -0.0413905 2.07361
20.3416 18.1074 22.5995 0.838971 0.596923 -1.41789
19.5747 23.3793 21.2629 0.509448 0.447522 0.533151
18.075 21.401 22.3091 0.203758 0.796529 2.52055
21.8129 22.307 22.2142 -2.76378 0.288449 -1.57652
ITEM: TIMESTEP
15000
ITEM: NUMBER OF ATOMS
20
ITEM: BOX BOUNDS ss ss ss
1.7518328987464034e+01 2.3765188735154037e+01
1.6718363728678355e+01 2.3543989979021347e+01
1.7716676309715918e+01 2.3301957258142124e+01
ITEM: ATOMS x y z vx vy vz
21.7376 19.0784 19.5906 0.179635 2.58166 3.3158
19.8218 17.4841 20.17 2.32015 -1.24351 -0.173563
19.6005 19.1184 18.0903 -3.56226 4.16184 0.792704
21.1257 21.5106 17.6543 -1.51666 -0.921322 -1.3057
18.5311 21.283 17.6468 1.05772 2.57739 2.55031
19.9196 20.8229 20.254 -3.08559 -0.082953 -0.281742
23.1352 21.2528 19.2455 -1.99616 -2.51103 0.274859
19.6317 23.4174 18.7939 -0.941792 1.91144 0.00369145
17.4572 22.7594 20.076 1.45905 0.711033 -0.448305
22.0139 23.3738 19.6581 0.122323 -1.27442 -1.34149
17.733 19.5699 19.7575 1.9485 -2.23743 -0.792997
22.2043 16.4525 20.5445 2.70958 -2.19087 -1.34102
20.1409 21.6363 23.0975 -2.06874 -1.68565 -0.875108
23.5412 18.0619 21.5665 -1.0484 -0.694393 1.81447
19.0358 19.2653 22.1663 -0.925474 -0.706984 -0.744103
21.5519 19.2622 22.2162 -1.19913 1.36022 0.765195
20.5014 16.9136 22.3828 2.34051 0.988998 0.795056
19.9814 23.4403 21.3519 0.77795 -1.75471 -1.09056
17.8977 21.5208 21.8722 -0.316097 1.15169 -1.9122
22.3381 21.6762 21.765 3.74488 -0.140987 -0.00529736
ITEM: TIMESTEP
16000
ITEM: NUMBER OF ATOMS
20
ITEM: BOX BOUNDS ss ss ss
1.7532245093109964e+01 2.2900073414851928e+01
1.6919153011260601e+01 2.3900440224446331e+01
1.7136734896301220e+01 2.3542710928028857e+01
ITEM: ATOMS x y z vx vy vz
21.1612 19.3424 21.0293 -0.132909 0.381657 0.347985
19.4828 17.3156 20.7761 2.46408 -0.762504 1.3316
20.6365 19.2971 17.9359 0.544357 -1.31622 -4.00313
18.5297 19.4233 20.0152 -1.99645 -0.277744 2.74179
21.8354 17.2666 19.2487 0.482494 1.04703 -0.327137
22.808 17.4716 21.4821 -0.507562 1.09769 0.0902802
19.1183 18.564 22.9283 -0.841109 -1.10033 1.10693
21.6101 19.5034 23.5394 -1.05203 -0.70061 -0.898182
20.9491 16.7139 22.7136 0.796115 -2.65631 2.02023
21.1084 22.067 17.1321 3.52488 1.05349 0.308855
18.5582 21.893 17.7188 -0.19318 1.29716 -0.429761
20.3016 21.4433 19.6387 -1.20518 2.85067 -2.21981
22.6418 20.2968 18.9317 0.142467 -2.14763 -0.434254
19.483 23.9257 18.534 0.399553 0.764098 2.39052
17.8989 22.484 20.2554 0.842616 -0.107918 0.0311361
22.0973 23.4463 19.0422 1.44742 1.97401 -1.73416
19.7154 21.2214 22.5709 -0.960207 -0.219036 1.58261
20.2172 23.7638 20.9379 -1.15055 -1.15565 -2.11628
17.5884 20.4382 22.0024 -0.570013 0.793844 2.05048
22.1586 22.0226 21.4669 -2.03479 -0.815692 -1.8397
ITEM: TIMESTEP
17000
ITEM: NUMBER OF ATOMS
20
ITEM: BOX BOUNDS ss ss ss
1.7184372495234118e+01 2.3174976192228218e+01
1.6666042930884565e+01 2.3921326898179007e+01
1.7364081108532680e+01 2.3072897695319647e+01
ITEM: ATOMS x y z vx vy vz
20.9086 19.1304 20.6711 2.79534 0.267293 0.655794
20.0427 16.7336 20.0982 -3.73396 0.990104 -1.73595
20.3537 19.0867 18.1526 1.31815 -1.50845 -2.20289
18.5218 19.0902 19.7449 0.038201 -2.31026 0.190779
22.4867 17.4253 19.3613 -1.6376 3.11209 1.86073
23.1766 18.5222 21.5247 -1.16672 3.30878 -0.969405
18.5216 18.9785 22.4077 1.33516 2.23468 -0.088741
21.7135 19.7702 23.221 0.906651 -1.87508 1.98463
20.8189 17.2158 22.4967 1.04692 2.01594 -2.71445
20.6582 21.4663 17.3999 -1.47333 -1.78265 1.44272
18.0369 21.6038 18.4516 -0.114083 0.395467 1.93232
19.9211 21.4095 20.0718 0.927056 -1.32436 0.367298
22.7178 20.4438 19.2351 1.47955 -1.5564 -0.279294
19.6191 23.7664 18.7081 -3.13322 -2.04183 -0.451753
18.1474 23.2591 20.931 0.72015 2.39673 1.46519
22.18 22.8851 19.1219 1.17357 -0.0307418 -1.00988
19.6681 21.2521 22.7166 -2.04068 0.730953 1.1118
20.7377 23.5286 21.2228 0.185893 -0.808142 0.301327
17.2623 20.779 20.9638 1.45266 -0.401287 -3.95829
22.4075 21.5535 21.3993 -0.079714 -1.81283 2.09807
ITEM: TIMESTEP
18000
ITEM: NUMBER OF ATOMS
20
ITEM: BOX BOUNDS ss ss ss
1.7597693783411113e+01 2.3494850089299014e+01
1.6515800542703655e+01 2.4061223217193106e+01
1.7765753373857038e+01 2.3027733198833982e+01
ITEM: ATOMS x y z vx vy vz
20.5896 19.4004 20.4094 -0.474808 -1.55163 -1.26031
19.8194 17.0462 20.0831 -1.52754 2.20162 0.359445
20.5437 18.2328 17.8914 2.91637 -0.493699 -1.02507
18.2755 19.5913 18.6572 0.316298 1.50127 0.920725
22.5296 17.323 19.6273 -2.104 1.00547 1.50061
23.1596 18.9388 21.7035 0.409129 0.927207 0.971202
19.1167 18.6185 22.3968 -0.265241 0.645098 2.297
21.1444 19.713 23.0765 0.486738 -2.71005 -1.59013
21.3284 17.12 22.3359 0.0660688 -0.436694 -0.900178
20.3827 20.8107 17.6105 -0.570381 0.0579313 -1.81319
17.674 22.1356 18.6386 -3.1994 -3.11978 -0.862619
19.9157 21.807 20.1127 1.6413 2.15341 -0.138313
22.7817 19.9307 19.1078 -0.205411 -1.7163 -0.221725
19.7293 23.6515 18.6069 -2.09682 -0.642373 -0.504282
18.0983 23.0283 21.5085 1.1299 0.909263 0.135812
22.2919 22.4698 19.2639 2.72315 0.966113 1.00192
19.8492 21.8775 22.985 -0.506819 -0.476894 3.51683
20.5699 24.1951 21.1915 1.53682 0.183071 0.51899
17.9904 20.4181 21.0514 0.491588 -1.44068 -2.06428
22.11 21.5917 21.6422 -0.766939 2.03765 -0.842445
ITEM: TIMESTEP
19000
ITEM: NUMBER OF ATOMS
20
ITEM: BOX BOUNDS ss ss ss
1.7702026820461210e+01 2.2946954090900267e+01
1.6783804864586347e+01 2.3968219831678830e+01
1.7148775993684438e+01 2.3460937802425772e+01
ITEM: ATOMS x y z vx vy vz
20.5661 19.3567 21.034 -1.39091 0.886665 -3.13651
18.553 17.5491 20.8111 -0.122806 -0.0839794 0.400862
21.7374 18.8117 17.9402 1.00131 -0.202103 -0.536735
19.033 19.3358 18.5929 0.490001 -1.46018 2.24936
20.7917 17.115 19.4702 -0.711799 1.381 -1.07294
23.2568 18.5325 20.7626 -1.57424 0.097688 -1.34945
19.1314 18.9226 23.1524 -2.08576 -0.150987 -0.721215
21.8385 19.7817 23.1572 0.892904 -0.467463 -1.57788
21.3504 17.2572 22.2922 0.156716 1.21119 -0.835214
20.6912 21.4411 17.4549 2.32089 -2.27209 0.751757
17.7898 21.5958 18.3258 0.532692 -1.94244 2.27562
20.2639 21.3912 19.968 2.17306 -1.61425 -0.000124714
22.7991 20.6119 19.4852 -0.0487357 0.768559 -0.614302
19.5986 23.6609 18.8695 -2.59574 -2.12244 1.64365
18.1067 22.4944 20.8662 0.607268 3.10263 -2.08843
22.0958 23.3164 18.9571 2.80974 -1.1779 0.716168
19.8666 21.3858 22.8039 -0.439891 -0.507518 0.452014
20.3577 23.7598 21.2431 -1.51505 0.896467 2.04804
17.7588 19.8249 21.0295 0.756353 0.937093 1.67568
22.3135 21.7555 21.684 -1.256 2.72007 -0.280356
ITEM: TIMESTEP
20000
ITEM: NUMBER OF ATOMS
20
ITEM: BOX BOUNDS ss ss ss
1.7717959346595606e+01 2.3153726454552768e+01
1.6739252512820894e+01 2.4022109386767617e+01
1.7928126697512763e+01 2.3178581160911452e+01
ITEM: ATOMS x y z vx vy vz
20.6707 19.1877 20.036 1.45161 2.72896 0.530595
18.5889 17.4634 21.0546 -1.18608 -1.20705 0.236739
22.1119 18.6104 18.0145 0.206175 -0.180311 -1.157
18.8389 18.7796 18.3673 0.293597 -1.60749 0.772942
20.5162 16.7705 19.3133 0.13393 0.988939 -1.04952
23.0128 17.7359 20.2116 2.07889 -2.58024 2.00306
19.5851 19.4552 22.6538 0.898495 0.163666 -1.12105
21.8785 20.3792 22.1422 0.384121 -2.10243 -0.603192
20.9941 17.3501 21.8517 1.60828 0.711395 0.530702
17.8732 19.8788 20.6468 -2.27602 0.93587 -1.31053
20.736 20.9069 17.9812 -0.338313 0.327747 -0.114714
18.2529 21.3934 18.7662 -0.68262 2.30919 -0.122664
20.0728 21.7559 20.6134 1.7511 -0.849117 1.75646
23.0943 20.2086 19.8789 -4.01756 -1.19582 -0.278459
19.9759 23.3183 18.6253 0.992744 0.658889 -0.554291
17.6351 22.5144 21.5666 1.40205 -2.47242 1.62782
22.1652 22.7887 19.5211 0.482632 -0.104233 -2.63395
19.7303 22.1707 23.2115 -1.18377 2.0294 0.0826893
19.9654 24.2296 21.5681 0.123345 0.313668 -0.591689
22.2017 23.0026 21.8758 -2.12261 1.13139 1.99606
ITEM: TIMESTEP
21000
ITEM: NUMBER OF ATOMS
20
ITEM: BOX BOUNDS ss ss ss
1.7312258367321505e+01 2.2874988691841637e+01
1.6515458379641519e+01 2.4187105159340618e+01
1.7590508675486806e+01 2.3204050650826961e+01
ITEM: ATOMS x y z vx vy vz
19.8443 19.5117 20.2434 0.0664208 2.34247 2.434
18.4601 17.2989 21.4075 0.386611 -0.15252 -0.769415
21.9158 18.9004 18.2018 -1.5557 2.39026 -1.07585
19.4205 18.7032 17.8723 1.34777 -2.0434 2.48175
20.6417 16.9851 19.7049 0.000159084 1.25242 -1.65132
22.8031 18.0644 20.6965 -0.478856 0.150011 -0.00607294
19.213 19.3585 22.7243 1.11867 0.833881 -1.00133
21.95 19.94 22.2005 -0.988328 1.05124 -2.2085
20.9381 17.3996 22.1952 -2.24049 1.74117 0.498653
17.3077 19.3057 20.0626 1.62653 -2.60008 0.212305
20.7325 21.3688 17.7426 -0.0159501 -0.956718 -1.77144
18.1463 21.3593 18.6609 0.696204 -1.00874 -0.726002
20.557 21.8333 20.591 -0.690081 0.523962 -0.102933
22.9398 20.8664 19.8184 -0.314278 -2.12449 0.849691
19.2185 23.5809 18.9834 0.390391 -0.166898 3.05344
18.0169 21.5214 21.3922 -1.14667 0.0973262 0.611912
21.9759 23.1713 18.9593 1.51076 0.0492016 -1.05135
20.0602 22.1697 22.939 -1.40433 -0.890012 0.0365019
21.0078 24.1743 21.4693 0.391185 0.782483 -0.321387
22.7509 22.3871 22.0349 1.29998 -1.27157 0.507359
ITEM: TIMESTEP
22000
ITEM: NUMBER OF ATOMS
20
ITEM: BOX BOUNDS ss ss ss
1.7331513990262785e+01 2.2934780011420312e+01
1.6681238755492906e+01 2.4516271945119492e+01
1.8068545775788778e+01 2.3024835636908893e+01
ITEM: ATOMS x y z vx vy vz
20.3006 19.1233 20.2026 0.623638 1.45792 -0.699559
18.5329 17.6659 21.1504 2.46603 0.41931 0.409319
21.6959 18.8307 17.9831 -0.897072 0.0234175 0.947159
18.7239 17.9354 18.5766 -0.963738 -0.00998366 -0.809304
20.7532 16.6607 19.4932 -1.55003 -0.0224931 0.582238
22.741 18.0689 20.1956 -0.748239 -2.12045 1.1484
18.9189 19.7779 22.7352 -1.51327 -3.31533 0.844306
22.1467 19.8379 22.2068 -2.06594 1.72052 -2.46831
20.9502 17.376 22.1442 2.36098 -0.888586 2.6725
17.5917 19.9857 20.4177 -0.597372 1.28349 -0.438278
21.5033 21.4808 17.861 1.33963 0.442194 0.967213
18.8213 21.0063 18.4608 2.18257 1.2258 -1.81906
20.3882 21.687 20.4157 -2.7828 -1.23652 -0.583458
22.9506 20.8006 19.7962 1.3543 1.25015 -1.34481
18.9698 23.4633 18.9541 -1.70407 0.393497 -1.82008
18.1692 22.4363 21.243 0.907943 -0.0652362 0.321098
22.0092 23.4477 19.5209 -0.925044 -0.769079 -1.63751
20.1828 21.8304 23.2515 0.720378 0.339433 -1.20682
20.1395 24.0001 21.4187 -0.181409 0.312706 3.30224
22.411 22.4851 21.8727 1.9735 -0.440754 1.63272
ITEM: TIMESTEP
23000
ITEM: NUMBER OF ATOMS
20
ITEM: BOX BOUNDS ss ss ss
1.7482857041100949e+01 2.2897219974915465e+01
1.6700003014675151e+01 2.4231819744349341e+01
1.7890487925933858e+01 2.2948187383341146e+01
ITEM: ATOMS x y z vx vy vz
20.5048 19.2081 19.9743 2.50288 0.729603 0.0807448
18.3092 17.8347 20.6125 0.568917 -3.15604 -0.959806
21.9691 18.5552 18.1081 0.362883 -1.01396 -1.57306
18.9604 18.0449 18.2317 0.0629408 -0.545283 -0.959024
20.6749 16.7041 19.5851 -1.89401 0.50502 0.941904
22.6815 18.1112 20.722 0.0333077 0.055962 1.4104
19.196 19.7946 22.4068 -1.32044 1.55005 0.406494
22.0539 19.99 22.4313 -0.37614 -0.0810068 -1.27518
20.702 17.5501 22.1489 0.813202 2.45559 -0.716682
17.9034 20.286 20.1928 1.84217 0.331638 0.464146
21.254 21.3761 18.1821 -0.0348621 -0.390858 0.520654
18.7751 20.7331 17.7942 -0.733877 2.68989 0.94406
20.3121 21.7293 20.6632 -2.40551 -1.41759 2.07046
23.0921 20.6829 19.6657 -1.30894 0.00128636 -0.521025
18.2263 23.0273 19.4281 1.45649 0.734814 2.38524
18.1111 22.3878 21.9357 1.76872 -2.13837 -1.22252
21.8375 23.4848 19.4366 1.18226 -1.11673 -3.55985
20.5688 22.1468 23.3236 -1.79522 0.51002 0.449117
20.0978 23.9473 21.4003 0.232049 -0.456657 -0.260973
22.6701 22.3056 21.6568 -0.956817 0.752623 1.3749
ITEM: TIMESTEP
24000
ITEM: NUMBER OF ATOMS
20
ITEM: BOX BOUNDS ss ss ss
1.7804561773730963e+01 2.3106134218842701e+01