ITEM: TIMESTEP
0
ITEM: NUMBER OF ATOMS
20
ITEM: BOX BOUNDS ss ss ss
1.6750898218785572e+01 2.3881172194292756e+01
1.7593241331799987e+01 2.3481549915051389e+01
1.6472723451214129e+01 2.3493456786596965e+01
ITEM: ATOMS x y z vx vy vz
18.1899 19.8629 22.3066 1.04979 0.0546705 1.06442
19.6881 21.686 22.9596 0.527296 -0.0149551 -0.427166
21.2332 23.4775 23.4894 1.52553 -1.04405 -0.906798
16.755 17.9926 21.4941 -0.389169 1.39354 -2.23601
19.1168 21.3642 20.527 -2.89123 1.27152 0.213519
17.6429 19.5345 19.8429 0.253322 -0.11976 -1.65148
20.7361 23.1751 21.1574 0.544501 1.14544 0.0219365
20.6193 19.6622 21.8275 1.52955 0.450604 0.442612
19.6958 22.4852 16.4768 -2.55591 0.918526 0.822029
19.1163 17.8883 21.0507 -0.169898 0.294242 0.113544
22.2044 21.5411 22.3766 -2.58126 -0.440292 0.339262
20.1116 19.2876 19.2175 0.796811 -0.781023 -0.380268
21.7399 21.2612 19.9443 0.425386 -0.188623 0.466439
18.6982 20.9767 18.126 -0.433992 -1.00024 1.24648
20.1881 22.8142 18.8076 -0.258632 -0.469712 -0.919093
21.5043 17.681 20.5643 -1.49089 1.16836 -1.38748
23.047 19.5648 21.2491 1.03679 -0.142335 0.875567
21.1712 20.8784 17.5742 0.678482 -1.39443 1.20448
22.5647 19.1692 18.7678 -0.323467 -0.807371 0.469405
23.8771 17.5973 20.1405 2.72699 -0.29411 0.628601
ITEM: TIMESTEP
1000
ITEM: NUMBER OF ATOMS
20
ITEM: BOX BOUNDS ss ss ss
1.6620728062531025e+01 2.3803779655936399e+01
1.7243618910105727e+01 2.3722431870649153e+01
1.6131398319542818e+01 2.4040843200456198e+01
ITEM: ATOMS x y z vx vy vz
17.9293 20.1646 22.1863 -0.217454 2.20564 4.18999
19.5154 21.6656 22.8969 4.23409 2.20521 1.32379
20.8279 23.6001 23.7087 -1.30143 -1.93123 -2.8713
17.1067 18.0213 22.4489 2.25353 1.23613 -0.160925
20.1013 20.6482 20.4076 -5.31474 3.03734 -2.19908
17.5054 19.3222 19.647 -1.56797 -3.44592 -1.75706
20.3691 23.4636 21.1758 -4.40441 1.07112 -3.82601
20.3415 19.2911 22.6327 0.798699 -0.280954 1.03253
19.6206 22.6926 16.4261 -0.26315 1.50751 0.839602
19.0761 17.6025 20.9946 -0.0496896 -2.17686 -0.168773
22.1254 22.0063 22.2706 0.315829 -6.26982 -0.0278445
19.5448 18.9691 18.5771 -3.38732 0.0548989 -4.60844
22.4428 21.5724 19.8708 0.0660267 0.277068 -0.701022
19.025 21.1118 18.1912 -0.905355 0.841716 -0.0330498
20.4182 23.1727 18.8206 5.65293 -1.38267 2.66693
21.3608 17.6247 20.41 -0.0208998 -2.1233 5.82199
23.2106 19.3231 21.2418 -1.86993 0.623933 -1.98167
21.4242 21.1397 17.4433 -0.0050655 4.16576 0.812502
22.4288 19.1054 18.6355 3.99188 -0.578719 0.420425
23.5262 17.403 19.9144 1.99444 0.96313 1.2274
ITEM: TIMESTEP
2000
ITEM: NUMBER OF ATOMS
20
ITEM: BOX BOUNDS ss ss ss
1.6729721306340302e+01 2.3828233779727984e+01
1.7039256570992798e+01 2.3385806080277884e+01
1.7533789972755720e+01 2.3141834782342464e+01
ITEM: ATOMS x y z vx vy vz
16.7595 20.8185 21.1483 1.40092 0.509297 1.0685
19.0633 20.5026 23.0463 2.56476 -2.52892 -2.54975
24.0134 22.3618 20.8739 6.17694 -1.62386 1.34724
18.1135 18.7659 22.1639 -0.473204 1.12046 -3.10143
19.8595 20.8957 20.3534 2.62229 2.89341 -1.3184
17.2277 19.1142 19.0585 -0.678133 -1.28524 1.41628
19.0563 23.0217 21.5658 -0.110275 -0.635165 -0.0343241
20.8595 18.3151 23.1134 -1.25956 -1.30633 1.33218
19.1797 21.8368 17.6032 -4.9592 -4.26048 1.80589
19.8469 18.3934 20.3496 -0.433718 0.876629 1.5757
21.6946 22.7565 22.0082 -3.53833 -0.152941 2.14753
18.8928 19.4032 17.8244 -0.678598 1.86908 -1.89843
23.0243 20.8417 19.5551 0.328282 -4.86014 -2.36284
17.1685 21.8957 19.5666 -0.791091 -0.747398 -0.703684
21.214 23.2996 19.7777 1.84387 -2.0858 2.14565
22.1903 17.169 21.2379 0.620916 2.65353 -0.387677
22.3372 20.2903 21.8605 -3.3036 4.6479 -0.52087
21.2326 21.3782 17.9111 0.591244 2.74505 -2.78504
22.2884 18.0254 18.6523 -1.91769 0.0923035 0.597855
23.8779 18.8148 20.2299 1.99417 2.07861 2.22562
ITEM: TIMESTEP
3000
ITEM: NUMBER OF ATOMS
20
ITEM: BOX BOUNDS ss ss ss
1.5782454638489074e+01 2.4623147079568874e+01
1.7135434734639091e+01 2.3475784379641201e+01
1.7761473070981488e+01 2.2802734045474825e+01
ITEM: ATOMS x y z vx vy vz
15.7802 19.6415 21.5282 -0.48747 -0.88171 0.247827
18.4256 20.8365 22.236 0.573682 0.250238 1.0696
24.1395 21.6386 20.6471 0.415249 1.08303 -2.75461
17.6614 18.3765 22.1662 0.511515 1.88024 0.815917
19.852 21.3947 20.0741 -2.59912 -0.644846 -1.6265
17.3278 19.618 19.7822 5.11788 0.845149 -1.82346
19.242 23.4393 20.8991 -1.22916 -1.50321 -1.56007
21.0744 18.9258 22.6889 -4.16025 -0.551136 3.93899
18.1511 21.3672 18.0283 -0.340487 0.476231 1.10259
20.3476 18.9702 20.3839 -2.52228 0.220686 -1.34622
20.6232 22.6644 22.8244 -0.612511 -2.64577 0.923287
19.8694 19.8364 17.7731 5.39894 0.908378 0.456566
24.6621 21.1107 18.7146 3.15907 0.108285 -0.915149
16.9032 21.9299 20.4289 -0.0309452 1.82266 2.87905
21.7762 23.0021 19.5772 -0.874427 0.127181 0.615636
21.8286 17.1305 21.135 2.35238 -0.670369 -0.318868
22.3559 20.5868 21.5578 -2.8082 5.52169 -1.06471
22.42 20.5396 18.8542 -1.1684 -2.62957 3.53017
21.8004 18.1577 18.505 -1.27213 -1.10977 -0.835288
23.6594 18.7337 20.0958 0.576669 -2.6074 -3.33477
ITEM: TIMESTEP
4000
ITEM: NUMBER OF ATOMS
20
ITEM: BOX BOUNDS ss ss ss
1.6149217645992838e+01 2.5113564123733589e+01
1.7767482691991141e+01 2.3470556720683145e+01
1.7708354238386931e+01 2.2919954969173780e+01
ITEM: ATOMS x y z vx vy vz
16.521 19.8846 21.8272 0.948541 -2.22851 -0.407088
17.6368 22.2782 22.2888 0.560228 3.15742 -0.936091
18.1547 17.6427 20.9805 4.1828 -1.33797 -0.0365695
20.4334 20.9041 20.8 0.370427 -3.10945 -3.04536
17.9037 20.0898 20.0278 1.67625 0.221927 -4.46869
19.4044 23.579 20.6967 0.239054 2.22041 5.56062
18.8745 19.3981 22.5384 -1.90219 -1.83243 2.42933
19.3934 21.6067 18.5243 -3.15974 0.471702 0.399945
20.8262 18.4161 20.5632 2.40975 1.22956 0.795636
20.3677 22.2817 22.8459 0.797304 -0.494973 1.98992
19.5809 18.2507 18.2979 0.972596 -3.25882 3.36792
17.0994 22.6885 20.0105 -0.0811808 2.89902 -2.25738
21.349 22.6687 19.5629 0.994542 2.46859 -4.78871
23.225 20.1812 19.4643 -3.78262 0.759787 3.37397
22.36 23.2577 21.8823 -1.22919 -3.1986 -1.23675
23.5848 17.7311 20.6221 -1.70903 -0.154438 0.313051
22.4202 20.5697 22.0606 0.810033 2.19111 2.16447
21.3552 20.6091 17.729 1.77784 0.795935 0.557084
22.5712 18.2287 18.3388 -2.02412 -0.340525 -3.73042
24.8385 17.6336 18.8385 -1.85132 -0.459741 -0.0448909
ITEM: TIMESTEP
5000
ITEM: NUMBER OF ATOMS
20
ITEM: BOX BOUNDS ss ss ss
1.6535734601765505e+01 2.4075335890374603e+01
1.7658796436274088e+01 2.3172012642712083e+01
1.7630005483528713e+01 2.4524365306471932e+01
ITEM: ATOMS x y z vx vy vz
17.0954 19.3071 20.1709 3.80455 -0.0381441 1.44999
17.4913 21.3674 22.1698 -2.80345 0.0533037 4.72979
19.5814 19.7699 21.9902 0.746394 3.17044 -0.865402
21.1254 20.4227 19.8989 2.64699 -1.31375 -0.524046
18.4986 20.5743 18.8942 2.08287 0.050299 -1.2492
19.5065 22.6329 20.5464 -1.96914 0.635726 3.41588
19.1436 20.1216 24.2393 -2.37711 1.49041 -1.6601
18.4631 23.1791 18.3574 -0.51715 -1.46137 -0.112704
20.2321 21.7888 23.2358 -2.02525 -0.838947 1.08
19.0991 18.1488 19.9979 1.42124 2.83073 -1.05909
16.8244 22.1328 20.0351 -0.613168 -3.71051 -2.47231
21.5151 17.7601 21.111 1.26333 1.10256 3.84625
22.0152 22.691 18.9548 2.09946 -1.38194 -4.29963
23.4716 20.4275 18.1048 -0.987254 -2.26249 1.64599
22.6561 21.749 21.7698 -1.36058 0.150187 0.600578
23.6891 19.4507 20.625 1.36939 -0.946724 -1.28406
21.5104 18.9498 23.1127 2.60862 -2.69918 -0.34265
20.8972 21.3463 17.304 -0.0129874 5.94605 -2.19943
21.6153 18.5761 18.0899 -0.629408 1.64093 0.272468
23.4692 17.504 19.292 -4.74734 -2.41758 -0.972336
ITEM: TIMESTEP
6000
ITEM: NUMBER OF ATOMS
20
ITEM: BOX BOUNDS ss ss ss
1.6873682786036859e+01 2.3514552155157851e+01
1.7575858651706948e+01 2.2892187651716895e+01
1.6937345045290581e+01 2.4811251975729618e+01
ITEM: ATOMS x y z vx vy vz
16.8703 19.6195 22.5567 -2.2183 1.53012 0.391636
17.6906 22.4269 22.0626 0.514123 2.52895 0.215427
18.8823 18.6052 22.7762 0.451227 -4.24671 -2.81892
21.2957 20.109 19.6313 1.53968 3.65268 -0.879411
19.0747 20.6066 17.8399 -4.14029 2.89475 4.88195
20.4466 22.5937 21.22 0.908182 2.4911 0.428316
17.6743 18.903 24.7315 -3.02325 -1.19759 1.24489
19.4758 22.7849 18.5463 -4.85472 1.46876 -1.54316
18.9087 21.0872 23.7447 -0.222204 0.873338 -0.296176
19.7411 18.241 19.3672 1.94554 0.970113 -3.59199
18.5196 20.5808 20.4884 -1.35931 -4.63889 1.69211
21.6427 18.0445 21.0515 1.60928 -3.72537 0.776068
22.0334 23.0296 19.1353 1.4991 0.942989 -0.849487
23.1544 19.6614 17.8078 0.345847 -0.279428 1.54353
23.0424 22.8047 21.4119 2.93944 -2.58245 -2.36449
23.8207 20.699 20.2778 2.00403 1.67858 -0.123903
21.2002 20.4144 22.3623 -0.920059 2.74294 0.417709
21.3332 21.3081 17.0063 0.868676 -2.38967 0.352518
20.9453 18.6864 17.0518 0.889924 -1.49167 -0.165789
22.148 17.6942 18.8306 1.22308 -1.22254 0.689157
ITEM: TIMESTEP
7000
ITEM: NUMBER OF ATOMS
20
ITEM: BOX BOUNDS ss ss ss
1.6678755384442368e+01 2.4091869331960538e+01
1.7856340241374603e+01 2.2525620648015838e+01
1.6698980769411506e+01 2.3648595644768108e+01
ITEM: ATOMS x y z vx vy vz
21.5314 20.4011 20.1524 -0.501864 2.19468 -0.986849
18.0131 21.5042 17.986 -0.825339 2.97385 -1.22859
19.8366 22.4231 19.4326 -0.581389 -0.559223 2.42529
20.6596 17.8808 20.5559 3.10034 -4.17123 2.56674
18.5898 19.9031 20.7171 -3.27475 1.35352 -1.79371
22.4469 22.6716 18.8548 0.0881951 -0.128021 -0.386381
22.3806 20.3776 17.7025 1.49425 -0.979992 -0.0555306
24.3959 20.3469 19.4987 1.3546 1.37803 -2.79142
20.0387 21.0616 16.9507 -1.21444 0.774508 1.3928
20.1944 19.1917 18.5389 -3.1656 0.451939 -0.310126
22.7338 17.9175 18.9802 0.0722636 1.55433 1.94709
17.0118 21.4356 22.0534 2.72952 0.607145 -2.00039
17.0642 22.4536 19.819 -1.19206 -0.561093 -3.04772
19.1646 18.104 22.9377 -2.67965 0.101977 2.26874
20.2768 22.3252 21.9773 2.7386 -1.6012 0.0557675
16.8658 19.004 23.0802 1.71304 0.316552 3.10674
18.938 20.7125 23.3565 1.21993 -2.13625 -2.5658
23.6839 19.0423 20.933 5.94944 1.24373 -0.223794
22.7189 21.647 21.804 -1.07422 -1.16791 1.65394
21.3552 19.4964 22.569 -5.95086 -1.64534 -0.0267703
ITEM: TIMESTEP
8000
ITEM: NUMBER OF ATOMS
20
ITEM: BOX BOUNDS ss ss ss
1.6515729133116455e+01 2.3843553163811684e+01
1.7413734815504977e+01 2.2866733962794804e+01
1.7093669160222266e+01 2.3145899176209710e+01
ITEM: ATOMS x y z vx vy vz
20.9867 20.0763 19.7497 -4.23162 1.59327 -1.71847
18.7795 20.5326 18.0449 -2.68628 1.88548 0.829638
19.4271 22.2253 19.9882 0.191455 -2.70473 2.91676
20.6196 17.4158 20.3556 -1.49428 0.47219 1.02074
18.4156 19.4953 20.8649 2.25566 -0.80294 -0.293997
22.0411 22.914 19.8922 5.29576 2.41533 1.55148
22.1595 20.3524 17.0381 -0.881816 0.125897 -2.0383
23.7151 20.4715 19.177 -4.44872 -0.963327 -0.800255
21.4569 22.2874 17.838 0.255711 2.69759 -2.26718
20.2794 18.2483 17.8078 -1.13237 -3.08933 -2.26785
22.6903 18.0567 18.632 2.13642 1.19177 2.88314
17.2286 22.6545 22.2724 -3.19358 -4.19517 -2.89375
16.8205 21.2832 20.1531 5.73463 -0.461834 2.07508
19.7608 18.1891 22.7726 -1.70436 2.51105 -0.22686
20.5949 22.7585 22.2258 0.61234 0.328647 0.208807
16.425 20.004 22.6733 -2.74494 1.07843 0.845323
18.8743 20.7134 23.0941 1.87263 -1.00289 -1.89171
23.0426 18.7281 21.2524 1.94989 -1.74648 4.00863
23.1538 21.4004 21.3388 1.61176 1.02386 0.53997
21.4287 20.0933 22.7291 0.601703 -0.356805 -2.48119
ITEM: TIMESTEP
9000
ITEM: NUMBER OF ATOMS
20
ITEM: BOX BOUNDS ss ss ss
1.6385091845066299e+01 2.3584068498440029e+01
1.7956154958639747e+01 2.3089648358512974e+01
1.6954864115591498e+01 2.3098757253897499e+01
ITEM: ATOMS x y z vx vy vz
20.7457 20.689 20.726 -0.851188 1.7341 0.622627
18.9487 20.9074 17.5263 2.01652 -1.2 1.7569
18.8171 22.7288 19.3393 -1.04504 -0.212074 -1.03188
20.6248 17.6697 21.4696 0.811531 -0.800099 -0.390105
18.3087 18.8989 20.7441 3.48995 -4.39194 2.29647
22.0822 22.841 20.4545 0.281756 -0.633553 -2.04216
21.5859 20.0204 16.442 3.87557 2.0743 -3.81086
23.2684 20.7708 18.8108 3.24953 3.05119 2.27556
20.9325 21.8863 18.0218 -2.93334 -1.18175 -2.59319
20.4557 19.0383 18.7996 -1.60115 0.88831 -0.505948
22.9183 18.3316 18.0602 -1.38012 0.343266 -3.03951
17.7336 22.2531 21.7228 1.11741 1.93608 0.429252
16.9687 20.9571 19.5195 3.25557 1.72741 -0.247841
18.7292 18.2792 23.2266 -2.17895 1.16577 -0.740044
21.533 22.2631 22.746 -0.509356 3.57533 0.887594
16.7713 20.2012 22.1887 0.543395 -1.01825 4.3327
19.2638 20.6497 22.9914 -1.95175 -1.79332 0.497819
22.7092 18.5021 20.7087 -2.45781 -1.88834 2.85228
23.8372 21.3639 21.3557 -1.07549 -2.60336 -2.97724
21.6661 19.6486 23.0464 -2.65705 -0.773075 1.42757
ITEM: TIMESTEP
10000
ITEM: NUMBER OF ATOMS
20
ITEM: BOX BOUNDS ss ss ss
1.6924954932381276e+01 2.3537251560659968e+01
1.6721370630265131e+01 2.3273277844072073e+01
1.6579663355759052e+01 2.3977941528438738e+01
ITEM: ATOMS x y z vx vy vz
20.6624 20.5195 20.3632 -0.3576 -0.911236 1.50698
18.4136 20.4596 18.9445 1.35598 1.46477 0.59427
18.5459 22.9106 18.793 -1.19501 0.990405 3.38134
20.8508 17.068 22.3244 -0.970344 3.72197 0.559438
19.3202 17.7589 20.3371 1.12135 1.1788 2.92098
20.9429 23.4681 20.0222 2.7613 1.81828 -0.834255
22.5888 20.0163 16.7323 0.512252 2.63934 -0.0723649
23.1215 21.3717 18.9788 -0.421531 0.345572 0.350082
20.9591 21.9182 17.9673 1.43811 -2.40663 -2.6948
20.4407 19.0805 18.1148 -0.777672 -0.838835 2.21059
23.1844 18.742 18.7059 -1.43109 5.26075 0.0350665
18.9446 22.8003 21.4485 -1.22607 -2.07322 -1.90618
16.6818 22.0717 20.4353 -0.679818 2.11563 -3.032
18.3941 18.1588 22.5152 1.36424 0.231165 -0.110703
21.3661 22.0573 22.5289 2.3337 -2.99338 -3.7317
17.3974 20.5415 21.702 -4.80654 -2.72397 -0.274041
19.2301 20.6725 23.2279 0.428579 -1.37415 -0.685314
22.078 18.2314 20.7038 -0.0397898 -3.89491 0.0400765
23.3997 20.5315 21.2082 -1.17475 -1.79976 -0.924695
21.3778 19.5215 22.8467 1.76472 -0.750606 2.66722
ITEM: TIMESTEP
11000
ITEM: NUMBER OF ATOMS
20
ITEM: BOX BOUNDS ss ss ss
1.6604404072552249e+01 2.4228057569545491e+01
1.7741879234055283e+01 2.3512517641328749e+01
1.7679304336862153e+01 2.3339922196648949e+01
ITEM: ATOMS x y z vx vy vz
21.0282 20.389 20.2718 -0.702618 -0.293806 0.265026
18.4537 20.4224 19.0373 0.266004 2.3339 -2.03085
17.4478 23.1144 19.0012 -0.0403824 -0.737107 0.743818
20.4732 17.8511 23.1872 -1.66331 0.745397 0.0207844
19.2807 18.4154 20.4981 -0.433321 -0.629363 0.482424
21.4052 23.028 19.6468 -1.0378 2.0666 -0.346347
22.5032 21.2964 17.9231 0.231182 -0.0131131 2.99121
23.5369 22.1659 20.179 -1.18947 -3.01233 -0.791914
19.5575 21.9633 17.8003 1.25436 -1.2105 0.452419
20.614 19.0631 17.8292 -1.24852 1.44763 -0.712607
22.7691 18.879 18.6245 1.77785 0.531374 1.61369
19.3721 22.3142 21.0823 4.01867 -2.47046 0.813599
16.0579 21.8112 18.8358 -3.02601 1.71038 -2.01007
18.1576 18.3013 22.8604 2.18746 -1.83521 -1.34446
22.4887 21.8169 22.3515 -0.94933 2.29366 -2.74168
17.2251 20.508 21.4171 2.67688 -0.93678 3.76879
19.7955 20.3355 22.5548 -1.29144 -0.11143 -0.311927
21.9929 17.3175 20.8101 0.171814 -1.71478 0.465448
23.5929 19.4247 20.867 0.541746 -0.974402 -0.36153
22.1479 19.4826 23.1226 -1.54378 2.81033 -0.965828
ITEM: TIMESTEP
12000
ITEM: NUMBER OF ATOMS
20
ITEM: BOX BOUNDS ss ss ss
1.6097807483234401e+01 2.4359731545303010e+01
1.7819255573778229e+01 2.3415218414690433e+01
1.7389320095966148e+01 2.2971542411553983e+01
ITEM: ATOMS x y z vx vy vz
18.4583 20.3973 18.7407 1.13992 1.29876 -1.43398
17.7797 23.2364 18.7821 -0.875149 -0.699596 -1.75532
19.2217 18.5542 20.8544 1.45303 6.3259 0.953843
19.9131 22.9806 18.2842 2.67579 0.104015 0.945087
18.7585 22.2318 20.7749 1.15828 2.1803 0.974234
16.3752 21.5974 19.6755 0.745744 0.805226 -0.0806912
18.0037 18.4011 23.1722 2.21253 -4.32546 3.24348
17.1185 19.7482 21.2332 2.58616 -1.52793 -0.65759
19.7598 20.575 22.6951 -1.84197 -1.56454 1.63015
20.7969 20.4686 20.0947 2.36109 -2.14596 1.18929
20.5212 17.7783 22.9287 -2.84361 -1.67529 -2.6045
22.5016 22.7577 19.1711 -1.03134 -0.587803 -3.86893
21.4461 20.8907 17.4912 -2.3772 -2.09463 1.53294
23.471 21.2488 21.2612 1.02772 1.02045 1.37739
20.6007 18.3747 18.347 0.162818 1.56732 0.17458
23.4407 20.092 18.9293 -2.17573 -0.18755 0.667061
21.2791 22.3757 21.9592 -1.5716 1.24948 -1.69818
22.1029 17.8262 20.1024 0.0955139 -0.179123 0.318608
24.1867 18.8136 20.8006 -0.290234 0.766458 -0.536717
22.1647 19.5518 22.6023 -2.61175 -0.330011 -0.370768
ITEM: TIMESTEP
13000
ITEM: NUMBER OF ATOMS
20
ITEM: BOX BOUNDS ss ss ss
1.6284807270025684e+01 2.3946535431867030e+01
1.7738118267732055e+01 2.3743186028859881e+01
1.7935230101094820e+01 2.3249356722922226e+01
ITEM: ATOMS x y z vx vy vz
18.2702 19.8813 18.5981 1.2428 1.17952 -2.59944
18.116 22.9741 17.9261 0.683382 2.27251 -2.21479
19.1159 17.7445 20.8498 0.523004 -1.76034 -1.0409
20.4008 23.8437 19.1331 -3.9876 0.66384 3.42084
19.0433 22.031 20.3518 2.75613 0.0910013 2.53499
16.6085 22.0164 19.2371 -1.27873 0.297807 -1.44502
18.2314 18.5383 23.0683 -0.310539 1.98108 1.18546
17.6013 20.1187 21.2514 0.734454 1.33312 -1.9803
19.9738 20.4361 22.7271 -0.633746 0.164216 2.88127
21.3296 20.2075 20.5449 -1.08763 -1.95347 1.84702
20.6305 17.6809 22.9457 1.27809 -0.247073 2.10922
22.5833 22.3017 19.4252 0.680338 -0.0533878 -5.44118
20.1987 21.2298 17.962 0.159561 -2.63943 -2.19361
23.6402 21.6461 21.7191 -0.359755 1.99058 0.821174
20.4828 18.5726 18.5896 0.881155 0.869128 1.74019
22.7213 19.9311 18.0688 0.0827 -0.704766 0.781168
21.0251 22.4642 21.6136 0.96063 -3.46277 2.7216
21.6619 17.5013 20.8783 -1.0113 -0.89739 1.56612
23.7559 19.405 20.3405 -1.5621 3.09699 -2.18365
22.5095 19.3755 22.6695 0.24916 -2.22116 -2.51016
ITEM: TIMESTEP
14000
ITEM: NUMBER OF ATOMS
20
ITEM: BOX BOUNDS ss ss ss
1.6278603056347087e+01 2.4433858702276066e+01
1.7913259613221761e+01 2.3299447412168778e+01
1.7581199998251844e+01 2.2994703066444913e+01
ITEM: ATOMS x y z vx vy vz
18.0535 20.269 18.5801 0.204434 -0.798853 -1.12199
18.5752 22.5709 17.8099 -1.34071 1.85961 -0.651468
19.092 18.1067 20.6831 1.20834 -0.763977 -2.29138
20.5326 23.2805 19.5949 1.40019 -1.28258 0.610338
18.5752 21.7538 20.7891 2.123 -0.50288 1.17312
16.239 21.5165 19.5736 -1.08182 1.31823 -0.354149
18.0302 18.1071 23.0688 -1.92161 0.289331 2.78832
17.1746 19.663 21.3711 -1.24054 1.33271 -1.61671
19.4513 20.2113 22.6158 2.03375 -0.1984 2.03961
20.8923 20.3975 20.3888 -0.603021 -0.536478 -1.03048
20.658 18.0461 22.8765 -0.3469 -0.945566 4.2415
23.135 22.0427 19.4096 -0.793112 2.19143 2.92836
20.506 21.137 17.5614 -2.13994 -2.20161 -0.667664
24.3827 21.8612 21.3774 -0.913126 -0.437249 -2.04425
20.3408 19.0223 18.238 1.1268 2.56397 -2.19772
22.7314 19.6038 18.1766 2.24047 -3.04236 -1.78478
22.0773 22.5248 21.7022 -1.92992 -1.64006 0.735198
21.6693 17.9106 20.3249 1.74281 -0.250266 -1.84899
23.707 19.6363 20.9024 -0.423013 1.05757 -0.810141
22.0767 20.2391 22.8556 0.653929 1.98742 1.90329
ITEM: TIMESTEP
15000
ITEM: NUMBER OF ATOMS
20
ITEM: BOX BOUNDS ss ss ss
1.6332934604133730e+01 2.3661492865292317e+01
1.7761259741473211e+01 2.3160718697962327e+01
1.7708729889601710e+01 2.2925531881289828e+01
ITEM: ATOMS x y z vx vy vz
18.1365 20.167 18.6285 -0.664223 1.59936 1.84537
18.3493 22.3875 18.0082 -0.434054 1.78081 -0.430943
19.2566 17.953 20.3779 2.23408 0.573496 1.11816
18.6625 22.1332 20.8447 1.25236 2.41911 1.91194
16.4087 22.0032 19.4827 -0.90241 -2.61969 -0.404875
17.922 17.9974 22.9937 -2.70181 1.20207 -0.893813
17.6014 20.012 21.6422 0.0267392 -1.0043 -3.65357
20.0896 20.4125 23.1947 -0.669713 0.0847757 -0.799772
20.7681 23.1228 19.2729 -0.445489 -1.91282 1.03435
20.6829 20.2296 20.4232 0.0194674 -1.24123 2.6567
20.2885 18.0185 22.846 1.53356 -0.927993 -0.675622
22.9932 22.1672 19.0587 1.03801 -0.276623 3.17228
20.7763 21.0299 17.6491 -0.715861 0.366042 -0.826133
23.802 21.8078 21.606 0.914878 -0.220817 -2.33581
20.5392 18.5271 18.1515 -0.221533 0.46005 0.0322937
22.6645 19.6642 18.2454 -0.682571 0.392869 -1.99106
21.0596 22.5316 21.6679 0.506889 -2.57973 -1.57179
21.7066 18.019 20.5682 1.8286 0.255528 3.84958
23.8193 19.8479 20.5145 -1.35091 -0.811534 -0.669865
22.3735 19.8685 22.7237 -0.566012 2.46062 -1.36742
ITEM: TIMESTEP
16000
ITEM: NUMBER OF ATOMS
20
ITEM: BOX BOUNDS ss ss ss
1.6705984350681515e+01 2.3729443102034889e+01
1.7450864563920216e+01 2.3436065585686677e+01
1.7445706868846877e+01 2.3314187860105651e+01
ITEM: ATOMS x y z vx vy vz
18.5657 20.051 18.6204 -1.49806 -0.102906 1.17519
18.5991 22.655 18.1656 -0.7717 0.48824 0.290386
18.9054 18.592 20.5381 -0.087281 1.10407 -1.67865
18.6965 22.2484 20.6874 -1.58003 -0.847507 -0.733348
16.6394 21.2507 19.5398 -0.368642 0.932902 1.95347
18.2168 18.3019 23.0945 1.38219 1.18557 -1.16324
17.4407 20.2063 22.0196 1.00004 1.4 2.0866
19.7705 20.3524 23.0535 -0.54905 -1.92828 -1.29324
20.7761 23.0989 19.1562 1.74602 -1.56757 -0.859103
20.8385 20.5403 20.228 -1.83575 2.09807 1.83667
20.3606 17.8569 22.4574 2.00834 3.47098 -0.0439052
22.928 21.9804 19.0111 2.01126 -1.6359 0.138026
20.5785 20.9662 17.5512 1.19575 -1.83293 0.998598
23.2657 21.9587 21.6408 -1.33893 -2.77287 0.187108
20.5999 18.3286 18.5681 1.68957 -0.0684628 -0.91876
22.6758 19.6418 18.0247 1.31322 0.0481785 -0.424838
21.0797 22.5813 21.8329 -3.36859 -3.09997 -1.25999
21.7643 17.8617 20.3734 -0.391646 1.9143 -0.90048
23.8927 19.9475 20.5155 -1.17582 1.31833 1.56953
22.3063 19.4799 22.8219 0.619089 -0.104249 -0.960023
ITEM: TIMESTEP
17000
ITEM: NUMBER OF ATOMS
20
ITEM: BOX BOUNDS ss ss ss
1.6705984350681515e+01 2.3729443102034889e+01
1.7450864563920216e+01 2.3436065585686677e+01
1.7445706868846877e+01 2.3314187860105651e+01
ITEM: ATOMS x y z vx vy vz
18.2931 19.9541 18.6508 1.57609 -1.50884 -0.00157467
18.7263 22.7769 18.4997 0.124342 -2.28563 -0.605724
19.3902 17.8614 20.7828 -3.246 0.80991 0.613856
18.6147 22.4582 21.0928 1.77985 2.31196 -1.50814
16.5378 21.8677 19.6106 -0.830764 -1.07125 2.26389
17.8575 17.9335 22.7454 0.251607 -1.95558 -0.0280754
17.7772 19.8102 21.1502 -0.507536 -0.499594 -1.53186
19.3053 20.4047 22.9329 2.01606 0.0409696 -0.167348
21.1813 22.9662 19.9723 0.120985 -1.49362 1.28167
20.5664 20.5839 20.0747 -0.940797 2.13598 -1.76351
20.4916 18.2994 23.1415 -4.31481 0.473994 2.07464
23.179 21.6557 18.5105 0.614147 -0.299575 -0.645743
20.5135 21.2346 17.4957 -0.426702 0.990339 0.208306
23.4662 22.0783 21.1282 -1.79392 1.95866 -0.294793
20.4746 18.3478 18.7626 -1.47277 2.07624 -2.22093
22.4582 19.2739 17.6683 -0.255405 -0.178529 -1.36898
21.0107 22.585 22.3675 0.719398 0.729899 2.08127
22.1716 17.9169 20.8725 2.10129 -3.61846 1.05985
23.7454 19.8554 20.0585 1.82985 0.680624 1.46613
22.1396 20.0363 22.3828 2.65507 0.702508 -0.91295
ITEM: TIMESTEP
18000
ITEM: NUMBER OF ATOMS
20
ITEM: BOX BOUNDS ss ss ss
1.6705984350681515e+01 2.3729443102034889e+01
1.7450864563920216e+01 2.3436065585686677e+01
1.7445706868846877e+01 2.3314187860105651e+01
ITEM: ATOMS x y z vx vy vz
18.5691 20.0235 18.8395 1.3898 -0.948327 -1.34071
18.7883 22.7693 18.4052 -0.171682 0.60216 0.789285
19.4872 18.0812 20.7225 0.781016 0.276679 1.55257
18.5827 22.0418 20.8904 0.516018 0.46749 -1.48074
16.61 22.1161 19.2051 0.773802 -1.85824 2.87282
18.2965 18.1866 22.7213 -0.558422 0.0986334 0.407817
17.3055 19.972 21.0942 -1.71433 -0.330269 -3.14343
19.4645 20.2968 22.8818 0.864391 -1.18641 2.71912
21.0519 23.3322 19.9009 -0.0520606 -0.660223 -0.045806
20.6448 20.4731 20.2824 1.56845 -2.00719 0.944015
20.9093 17.9012 23.1463 -1.7952 0.0786847 0.755162
22.5444 21.9399 18.7487 1.09092 -1.50205 -0.22706
20.5523 21.2278 17.5527 0.0965837 0.423107 -1.0058
23.2596 22.0528 21.1977 0.247896 -0.198622 -3.1245
20.2005 18.1503 18.3835 0.763332 -0.499113 -1.07904
22.3036 19.0795 18.296 -1.05832 3.23315 -1.18166
21.1097 22.5968 22.4114 0.55009 2.73761 1.51427
21.8879 17.9536 20.695 -3.64198 -1.4315 -1.67068
23.7942 19.6861 20.0208 0.306287 1.29141 -0.14793
22.5378 20.0195 22.5047 0.0434098 1.41302 2.89229
ITEM: TIMESTEP
19000
ITEM: NUMBER OF ATOMS
20
ITEM: BOX BOUNDS ss ss ss
1.6705984350681515e+01 2.3729443102034889e+01
1.7450864563920216e+01 2.3436065585686677e+01
1.7445706868846877e+01 2.3314187860105651e+01
ITEM: ATOMS x y z vx vy vz
18.1548 19.9182 18.9245 2.7093 0.238584 -1.20926
18.6392 22.4445 18.2946 -0.629274 1.51718 2.21993
19.3357 17.8251 20.6205 1.70293 -0.1337 1.51655
18.8761 22.3934 20.8516 0.497288 -1.11187 -0.974828
16.6519 21.9409 19.6133 1.0255 0.425533 0.122639
18.2298 18.3119 23.0015 1.71305 2.94388 -0.763259
17.34 20.2756 21.4128 -1.63154 -0.265684 -2.1581
19.6994 20.1504 22.7235 -1.61832 -0.120393 0.146884
21.0772 23.3846 19.3098 -0.634071 -0.292327 0.506875
20.8432 20.2195 20.0492 -0.351586 -2.92851 -0.120015
20.7162 17.8243 22.8587 -1.14596 -0.996761 0.517322
22.9054 21.9188 18.9917 -1.81142 -2.05299 -2.27113
20.5203 21.165 17.3967 -0.397278 -1.36917 3.01655
22.9411 22.1068 21.389 1.94793 2.29071 1.10558
20.0978 18.4617 18.1699 -0.628024 0.0825147 -0.399294
22.6323 19.2171 18.1097 1.08849 1.50767 0.437253
20.8596 22.6786 22.3974 -1.2052 0.718381 1.19827
21.9532 18.0454 20.593 -1.55528 -1.06417 -1.01985
23.8566 19.8684 20.3743 0.415467 0.561901 -2.37992
22.57 19.7499 22.8182 0.507995 0.0492233 0.507804
ITEM: TIMESTEP
20000
ITEM: NUMBER OF ATOMS
20
ITEM: BOX BOUNDS ss ss ss
1.6705984350681515e+01 2.3729443102034889e+01
1.7450864563920216e+01 2.3436065585686677e+01
1.7445706868846877e+01 2.3314187860105651e+01
ITEM: ATOMS x y z vx vy vz
18.2908 20.2082 18.8222 1.08664 1.97793 1.21998
18.3374 22.5535 18.2902 -0.463412 -0.891764 -0.234322
19.3057 18.3314 20.5194 -0.499602 -0.88443 -2.37954
18.7147 22.2622 21.0651 -0.497995 -0.681797 2.92494
16.4451 21.7909 19.7509 -0.0251253 1.70714 -0.0403133
18.2715 18.2396 23.0133 0.780032 2.63566 0.380925
17.2782 20.0808 21.3252 2.66779 0.00198193 -2.68734
19.5659 20.3924 22.6868 -2.14711 -1.36699 -2.19833
20.7568 22.9633 19.7517 -0.0204583 -0.264475 0.20384
21.0339 20.2515 20.2097 -3.95336 -0.196413 -0.371088
20.6431 17.7604 22.6442 4.72898 -1.97921 -0.564552
23.0533 21.7151 18.9542 -1.7696 -2.44761 -1.91584
20.682 21.157 17.4523 -1.7651 0.446955 -0.0562937
23.3611 22.2727 21.2478 0.250051 0.905654 1.05916
20.2895 18.4663 18.1605 1.36961 0.921216 0.56854
22.6383 18.9788 18.1375 0.586832 -0.584627 3.23263
21.1128 22.8597 22.2085 0.714395 0.473485 -1.20247
22.1329 17.93 20.3385 -0.762126 1.10064 0.488794
23.7409 19.7132 20.5815 0.100719 -1.2982 0.635812
22.2459 19.973 22.7405 -0.381167 0.424855 0.935458
ITEM: TIMESTEP
21000
ITEM: NUMBER OF ATOMS
20
ITEM: BOX BOUNDS ss ss ss
1.6551828102363217e+01 2.3697133745625905e+01
1.7603034625952819e+01 2.3207882792169567e+01
1.7783796893082908e+01 2.3048580606639053e+01
ITEM: ATOMS x y z vx vy vz
18.1939 20.1665 18.85 2.43484 -1.65392 -2.04762
18.736 22.795 18.4715 -0.745144 0.0560954 -2.04753
19.1094 18.3289 20.83 -1.94518 -1.91393 -0.349289
18.5715 21.836 21.0274 -0.217796 1.22484 2.58994
16.603 21.9013 19.6326 3.05357 1.54103 -0.701363
18.0921 18.5636 23.132 2.35488 0.175366 0.131685
16.9307 19.6799 21.1777 -1.62743 -1.4104 2.39104
19.8324 20.3219 22.9083 -0.0760784 0.137426 0.136829
20.8948 23.1729 19.4476 -0.120356 -1.97077 0.76388
20.8188 20.3316 20.2049 -1.03249 0.687914 -1.0013
20.6234 17.7501 22.66 -0.44158 0.832329 -0.617849
22.9216 22.0759 18.7108 0.255489 1.46047 0.26078
20.6109 20.9039 17.5246 -0.799821 1.08989 -0.131296
23.3525 22.0863 21.2758 0.634433 0.885291 -0.296612
20.4603 18.5326 18.5237 -0.851315 -1.71309 -0.0790041
22.7485 19.6705 18.3382 -0.196095 0.365443 -0.752981
20.9222 22.5416 21.9832 0.0228356 2.7013 -0.0150959
21.8381 17.8047 20.4383 0.761376 -0.0252978 -0.84143
24.1592 19.829 20.5433 1.00173 0.374742 -0.503962
22.4807 19.6079 22.2201 -2.46587 -2.84472 3.11117
ITEM: TIMESTEP
22000
ITEM: NUMBER OF ATOMS
20
ITEM: BOX BOUNDS ss ss ss
1.6551828102363217e+01 2.3697133745625905e+01
1.7603034625952819e+01 2.3207882792169567e+01
1.7783796893082908e+01 2.3048580606639053e+01
ITEM: ATOMS x y z vx vy vz
18.3743 20.2431 19.0914 -0.150354 -1.84093 1.69218
18.684 22.6479 18.1613 1.13755 0.985977 1.43714
19.1051 18.1342 20.7255 -0.520014 1.10691 0.847931
18.7537 22.0485 20.9174 0.558999 1.21801 -0.897224
16.6874 22.1604 19.6769 0.859668 -1.96987 1.11908
18.2988 18.0971 23.1016 -2.67545 4.32858 -0.964753
17.0734 20.0396 21.3535 -1.78428 -1.75789 -1.46216
19.3668 20.2531 22.6288 0.714362 -1.97445 -1.65912
20.8524 23.1156 19.559 0.140327 -0.184241 -2.39289
21.1104 20.3431 20.2708 0.0347878 -0.737963 -0.150501
20.6132 17.5533 22.5027 0.523109 0.263601 0.412141
22.8794 21.8382 18.5345 0.774934 0.0944447 2.43075
20.7035 20.9635 17.4409 -1.27804 -0.992862 0.233263
23.2033 22.4577 21.0062 -0.511587 -0.868782 -0.0695038
20.1157 18.3429 18.3674 1.09142 0.637576 0.321132
22.6336 19.3451 18.2493 0.278563 1.25388 -0.450675
21.225 22.3893 22.5628 1.02727 -0.863623 1.95416
22.0881 18.0577 20.6356 -0.672994 -1.71597 0.042502
23.8 20.1081 20.5206 -2.30752 3.15171 -1.20329
22.332 19.7615 22.5938 2.75924 -0.134105 -1.24017
ITEM: TIMESTEP
23000
ITEM: NUMBER OF ATOMS
20
ITEM: BOX BOUNDS ss ss ss
1.6608160581968910e+01 2.3919948623560096e+01
1.7880499182837909e+01 2.2932842307947869e+01
1.7648525856941223e+01 2.3018746847033576e+01
ITEM: ATOMS x y z vx vy vz
18.4093 20.1634 19.0082 1.2843 1.31268 -0.946549
18.5522 22.6704 18.1556 1.07349 -3.49341 -0.550776
19.0625 18.13 20.732 -1.08356 -1.75384 1.14882
18.7781 22.3239 20.8548 -0.577754 0.380614 0.0174711
16.6046 21.7165 19.6588 0.819514 -0.937346 1.69278
18.3009 18.1528 23.2158 -0.407668 2.21095 -0.560677
17.4626 20.1652 21.3587 0.522859 -1.04443 -0.0577867
19.8856 19.8864 22.4936 0.38259 2.09727 0.329737
21.2 23.3358 19.5849 -0.000868036 0.273453 0.561861
20.8603 20.5224 20.1068 0.791363 -0.866664 -1.15652
20.8824 17.7031 22.7881 -0.772812 -2.75819 -2.13798
22.9787 21.6951 18.7833 0.386666 -0.69146 -1.31537
20.5812 21.3193 17.695 0.518307 1.54246 1.76857
23.0519 22.4961 21.1452 0.819724 -0.427894 -0.99675
20.0974 18.509 18.1021 -1.88481 2.07106 0.872371
22.7711 19.122 18.2574 -0.295076 0.777219 -0.717762
20.8842 22.293 22.2783 -0.463779 -1.66299 0.15778
21.5944 17.949 20.1579 1.15876 -0.81494 0.700747
23.4849 19.7452 20.6803 -1.24443 1.87348 1.49115
22.4578 20.0014 22.8433 -1.02682 1.91196 -0.301114
ITEM: TIMESTEP
24000
ITEM: NUMBER OF ATOMS
20
ITEM: BOX BOUNDS ss ss ss
1.6608160581968910e+01 2.3919948623560096e+01