ITEM: TIMESTEP
0
ITEM: NUMBER OF ATOMS
201
ITEM: BOX BOUNDS ss ss ss
1.2776316406508865e+01 2.8013683593491162e+01
1.2401201527275340e+01 2.8388798472724663e+01
1.2304478613601258e+01 2.8485521386398744e+01
ITEM: ATOMS x y z vx vy vz
19.3709 14.3303 15.7958 -1.64642 2.12241 0.216494
22.9449 14.8962 15.6787 0.281179 -0.0072561 -0.534193
20.9875 15.3492 14.0922 1.17761 0.245037 0.853685
16.9469 18.0422 15.7156 0.790153 0.17715 -1.48875
18.9672 16.6957 14.9039 0.240054 -0.377001 -0.65869
18.5634 19.0611 14.0121 1.51219 -1.24663 -2.36857
20.18 20.0801 12.3086 -1.01025 -0.231479 0.794403
20.5208 18.6081 15.5986 -0.262724 -1.02118 0.741893
22.5411 17.2616 14.7869 3.86349 -0.545193 0.323132
24.0948 19.174 15.4815 0.468648 0.976121 0.370924
20.5837 17.7147 13.2004 1.25838 0.537746 0.815512
22.1374 19.6271 13.895 -0.046748 2.5795 0.114533
14.5228 21.7541 15.6356 -0.764656 -0.125329 0.394789
16.0764 23.6665 16.3302 -1.11197 0.106799 0.464176
16.5431 20.4076 14.8238 0.0943461 -0.857108 1.34664
16.1394 22.7731 13.932 -1.21711 -0.656347 0.304254
18.0968 22.32 15.5185 0.714705 0.731878 1.12505
19.6504 24.2324 16.2131 1.04769 -0.0625651 -0.100718
20.1171 20.9735 14.7068 -1.0189 0.118856 1.32834
18.1597 21.4266 13.1203 -0.157766 -0.906601 0.103096
19.7133 23.339 13.8149 -1.16072 -0.806826 1.47853
22.0745 20.5205 16.2932 -1.25139 -0.127244 2.14296
21.6707 22.8859 15.4014 -0.339507 -1.0903 0.818836
23.691 21.5394 14.5897 -1.13561 -1.06992 1.05922
21.7336 21.9925 13.0032 -0.369631 -1.44392 0.310166
23.2873 23.9049 13.6979 -0.153917 -1.5256 -0.301879
25.6484 21.0864 16.1762 1.57279 1.31259 0.396884
25.2447 23.4518 15.2844 0.447792 -0.436377 0.808737
17.693 24.6854 14.6267 -0.56845 -0.176558 2.99616
19.2466 26.5978 15.3213 -0.575536 2.17915 0.130677
23.2244 24.7983 16.0961 -0.499484 -0.185379 0.248337
21.267 25.2513 14.5096 -0.959428 -0.510328 0.265648
13.7137 16.0043 19.1228 -1.217 1.05386 0.794961
15.7341 14.6578 18.311 -0.855086 0.932508 -1.17803
17.7544 13.3114 17.4993 -0.361807 -0.0243336 -0.382696
19.308 15.2237 18.194 1.26919 0.572376 1.03018
17.3506 15.6768 16.6075 -1.06777 0.523885 0.393942
17.6915 14.2048 19.8975 -0.279083 0.464153 0.808497
19.7118 12.8583 19.0858 0.0380243 -0.725272 2.57549
21.3283 13.8773 17.3822 -1.67412 0.508903 -0.418404
22.882 15.7896 18.0769 -1.635 -1.07792 1.11338
20.9246 16.2427 16.4904 0.80056 2.55494 -3.16966
21.2654 14.7707 19.7804 1.37784 0.470424 -1.25784
23.2857 13.4242 18.9687 -0.696014 0.78099 -1.56346
24.9023 14.4432 17.2652 1.42376 -0.325393 -1.326
26.456 16.3556 17.9598 1.02984 2.39156 -0.428919
24.8394 15.3366 19.6634 -0.576103 -0.066776 0.736127
15.2674 17.9167 19.8174 0.0691321 0.462852 0.0558592
13.31 18.3697 18.2309 -0.428551 0.100586 2.02506
14.8636 20.2821 18.9256 -0.306462 -1.03589 -0.372635
15.3303 17.0233 17.4192 -1.95848 -0.447813 -2.21586
14.9265 19.3887 16.5274 0.942966 1.4118 -0.183198
17.2877 16.5702 19.0057 1.25515 -0.24617 0.696376
18.8414 18.4826 19.7003 1.02733 -0.779087 1.05874
20.395 20.395 20.395 -0.0156553 -0.48825 0.426558
16.8839 18.9357 18.1139 -0.494607 0.379111 -2.15933
18.9043 17.5892 17.3021 -1.13651 -0.60856 -1.4038
18.5005 19.9546 16.4103 -0.307633 -0.699792 -1.593
20.8617 17.1361 18.8886 -1.38558 -0.611263 -2.38286
22.4153 19.0485 19.5833 0.115686 0.441962 1.18939
20.4579 19.5016 17.9968 0.650607 0.252165 1.77356
22.4782 18.1551 17.1851 0.350231 1.4283 0.451139
24.0319 20.0675 17.8797 -0.995794 0.156225 0.965563
24.4356 17.702 18.7715 1.31454 -0.225078 0.237485
25.9893 19.6144 19.4662 -1.2134 0.632019 0.454306
28.0096 18.2679 18.6545 0.875153 -0.631423 1.73531
24.4986 16.8086 16.3733 -0.738621 0.0626108 1.73459
26.0522 18.721 17.068 0.354401 -0.3323 -0.26681
26.393 17.249 20.358 -0.0303711 -1.16784 1.31678
12.8433 21.6286 19.7373 1.73553 -0.946414 -0.0793768
16.4173 22.1945 19.6202 -0.0795899 0.811924 -0.985459
12.9062 20.7352 17.3391 0.285359 -0.417657 0.798207
14.4599 22.6476 18.0338 0.973408 -0.320438 0.124658
16.4802 21.3011 17.222 -0.281835 -0.536377 -0.0549867
17.9709 24.1069 20.3149 -0.906103 -0.134078 -1.94409
18.4376 20.848 18.8085 -1.49788 -0.563673 -0.764023
19.9912 22.7604 19.5032 0.926542 -1.53549 -1.87019
18.0338 23.2135 17.9167 0.571375 -0.965677 0.989208
20.0542 21.867 17.105 -0.430297 0.021895 0.837937
23.969 20.9609 20.2779 -0.496762 -1.1171 -0.107061
22.0116 21.4139 18.6915 0.446143 0.716203 1.56805
23.5652 23.3263 19.3861 -0.272863 -0.44598 -0.711025
21.6078 23.7794 17.7996 -1.32767 -0.348005 -1.56898
23.6281 22.4329 16.9879 -0.301956 1.66427 1.08952
27.5429 21.5268 20.1609 -0.21663 0.541916 1.67792
25.5855 21.9798 18.5744 1.80506 -0.270007 -0.423612
27.1392 23.8922 19.269 0.106812 -1.08122 0.767844
27.6059 20.6334 17.7627 0.26125 1.25565 1.30634
25.1818 24.3453 17.6826 0.556422 -0.273082 1.81917
27.2021 22.9988 16.8708 -1.08028 -0.165563 2.03553
16.0135 24.5599 18.7284 0.130554 1.17495 0.696726
17.5672 26.4723 19.4231 1.08908 0.497877 1.29116
19.1208 28.3847 20.1177 -0.645239 -0.574183 -1.55991
19.5875 25.1259 18.6114 -1.81248 0.985169 1.47207
17.6301 25.5789 17.0249 -1.05729 -2.27175 -0.344309
19.1837 27.4913 17.7195 0.805685 1.04726 -0.140697
21.5449 24.6728 20.1978 -1.51629 -0.501731 -2.05391
21.1411 27.0382 19.306 -0.834441 1.58619 -0.566832
23.1615 25.6918 18.4943 0.521522 -0.527637 2.44796
21.2041 26.1448 16.9078 -0.6481 0.293436 -0.080749
25.1189 25.2387 20.0808 -1.90544 0.297012 -1.07493
15.6711 15.5513 20.7092 0.816651 0.491593 -1.78316
19.2451 16.1172 20.5922 -0.631582 0.404601 -0.085352
17.6285 15.0982 22.2957 -0.256793 1.65263 -0.245038
19.6489 13.7518 21.484 1.6369 0.0359536 1.71218
19.5859 14.6452 23.8822 1.75218 -0.622842 -2.30622
21.2025 15.6641 22.1786 0.382428 0.571656 -1.13974
21.6692 12.4053 20.6723 0.771375 1.02459 0.0283355
23.2228 14.3177 21.3669 -0.232418 -2.48371 -2.76426
21.6063 13.2987 23.0705 1.45199 0.892666 -0.535948
23.1599 15.2111 23.7651 -2.08593 1.00043 0.410071
24.7765 16.2301 22.0616 -0.400518 -0.718303 -0.643569
13.2471 19.2632 20.6291 -0.141643 1.478 -1.74381
13.1841 20.1566 23.0273 1.59137 1.96391 0.533994
13.6508 16.8978 21.521 0.140113 -0.558456 1.9941
15.2045 18.8102 22.2156 0.933503 0.317185 0.825089
13.5879 17.7912 23.9192 1.89889 -1.31195 0.575248
15.6082 16.4447 23.1074 -2.5116 0.379451 0.666169
16.821 19.8291 20.5121 -1.45968 -0.474296 0.420586
17.2248 17.4637 21.4039 -0.871388 -1.47947 1.51499
18.7784 19.3761 22.0985 -0.563689 1.54981 -0.837878
17.1619 18.3571 23.8021 0.158062 0.0428081 -1.78252
19.1822 17.0106 22.9904 -0.139792 -0.684785 0.232422
20.7988 18.0296 21.2868 1.47298 2.10423 -0.584241
22.3524 19.942 21.9815 -0.0435585 -1.6706 -0.377342
22.8191 16.6831 20.4751 0.217212 1.91081 2.013
20.7358 18.923 23.685 -1.63712 0.0779147 -1.15537
22.7562 17.5765 22.8733 -0.334542 -2.35072 -1.02833
24.3727 18.5955 21.1698 0.88168 -0.107266 0.281043
27.9467 19.1614 21.0527 -0.824334 -1.05919 -1.26985
24.3098 19.4889 23.568 -0.492088 0.820696 -1.63645
26.3301 18.1424 22.7562 -0.338328 -2.4898 1.20847
27.8838 20.0548 23.4509 -0.16832 -0.280857 1.18028
12.7804 22.5221 22.1355 1.06571 0.195636 0.947652
14.8007 21.1756 21.3238 -1.78716 1.21125 0.342716
16.3544 23.088 22.0185 0.372086 0.3795 -1.15716
14.397 23.541 20.432 2.43001 -1.35747 -0.637822
14.7378 22.069 23.722 -0.189138 -1.27017 -2.19162
16.2914 23.9814 24.4167 -1.58409 -1.03162 -0.790797
18.3747 21.7415 21.2067 0.817867 -0.298106 -0.204407
19.9283 23.6539 21.9014 0.682039 -0.00725459 0.571392
16.7581 20.7225 22.9103 -1.23741 -0.269215 0.543892
18.3118 22.6349 23.6049 -2.30531 1.39092 -0.305719
20.3321 21.2884 22.7932 -0.87298 -0.47838 -0.705288
21.9486 22.3074 21.0897 2.11234 -0.254293 0.497588
23.5023 24.2198 21.7843 0.778743 0.653156 -0.990699
21.8857 23.2008 23.4879 -1.67383 -1.34181 0.165962
23.9061 21.8543 22.6761 2.24296 -1.18656 2.31586
22.2895 20.8354 24.3797 1.22012 2.56765 -0.740824
25.5226 22.8733 20.9726 -3.02745 -1.67161 -0.353746
25.4597 23.7667 23.3708 1.47856 -1.53143 0.962829
25.9264 20.5079 21.8644 0.810691 -1.05701 0.326771
27.48 22.4203 22.5591 0.678029 2.43953 -0.613205
25.8635 21.4013 24.2626 3.14228 -0.575538 0.316911
14.334 24.4344 22.8302 0.794713 -0.0104331 -0.103077
15.8877 26.3468 23.5248 1.70302 -0.962678 -0.367961
15.9506 25.4534 21.1266 0.138345 -2.13651 0.166021
17.908 25.0004 22.7131 0.945372 0.99884 0.333774
19.4617 26.9127 23.4078 1.24044 0.489157 0.523183
17.5043 27.3658 21.8213 0.867023 1.55849 -1.93416
19.5246 26.0193 21.0096 1.425 0.0607108 -0.942091
19.8654 24.5473 24.2996 0.707684 -0.208235 0.169973
21.482 25.5663 22.596 -0.106305 -0.154451 1.21473
23.0356 27.4786 23.2907 0.167679 0.10619 -0.359866
21.0782 27.9317 21.7042 -0.203177 -0.229596 -0.371074
23.0985 26.5852 20.8925 -0.0112087 0.934575 -1.12457
23.4394 25.1132 24.1825 -0.108808 -1.76617 -0.630427
25.0559 26.1322 22.479 -1.04753 2.37726 -2.51363
27.0763 24.7857 21.6672 -2.46373 -0.131219 -0.365964
17.5656 15.9917 24.6939 -0.750645 -2.06461 0.0612826
19.523 15.5387 26.2804 -0.572626 2.25752 -0.715314
21.5434 14.1922 25.4687 1.2714 -1.26795 -0.293968
23.097 16.1046 26.1633 -0.287884 -0.567425 1.76108
15.1416 19.7036 24.6138 -2.97486 0.442283 -1.86922
15.5453 17.3382 25.5056 0.035408 -1.1765 1.38095
18.7155 20.2695 24.4968 -1.11995 0.258389 -0.671913
17.099 19.2506 26.2003 0.544119 0.0750208 -0.927305
19.1193 17.9041 25.3886 0.432942 -0.0239329 -0.1694
17.5027 16.8851 27.0921 -0.905726 0.795221 1.67511
19.0564 18.7975 27.7868 -0.588938 0.440564 1.99811
20.6729 19.8165 26.0832 0.350678 -0.614961 -1.34801
21.1396 16.5576 24.5769 0.274878 0.376551 -0.871688
22.6932 18.47 25.2715 1.53838 0.152557 -1.37353
21.0767 17.451 26.9751 -0.300769 0.21713 -0.688349
22.6303 19.3634 27.6697 0.228807 0.527716 -0.128569
24.2469 20.3824 25.9662 -1.58536 0.345736 -1.33648
24.7136 17.1235 24.4598 0.270332 0.366333 0.605767
26.2672 19.0359 25.1544 0.748752 -0.710847 -0.777805
24.6506 18.0169 26.858 -0.622981 -0.165256 0.564027
16.6952 21.616 25.3085 1.07219 -0.645926 0.712745
18.2489 23.5284 26.0031 0.531853 1.96197 -1.99342
20.2692 22.1819 25.1914 0.480798 -1.20349 1.1001
18.6526 21.1629 26.895 0.349392 0.710657 0.608612
20.2063 23.0753 27.5896 0.766577 1.90174 0.598422
21.8228 24.0943 25.8861 1.18071 -1.09314 -0.81282
23.8431 22.7478 25.0744 -1.62813 -0.0026822 -3.39461
22.2266 21.7289 26.7779 1.86213 1.13499 1.67893
20.61 20.7099 28.4814 -0.243194 -1.43502 -2.27737
17.8451 25.8938 25.1113 -0.235662 0.647699 1.41778
19.8025 25.4408 26.6978 0.353586 0.141955 0.22838
21.4191 26.4597 24.9942 -0.293943 -1.30596 -0.776786
ITEM: TIMESTEP
1000
ITEM: NUMBER OF ATOMS
201
ITEM: BOX BOUNDS ss ss ss
1.0487377103117115e+01 2.9751937300087235e+01
1.0004646157585261e+01 3.1082006962674498e+01
8.7985076848988868e+00 3.0587847436059828e+01
ITEM: ATOMS x y z vx vy vz
19.7097 13.0629 15.4318 7.3002 -0.420669 -0.0446647
24.2687 14.0072 14.7856 0.834465 -1.13092 -0.475884
21.8992 13.8479 14.0249 0.243452 0.524292 1.31077
16.0997 16.4211 13.1991 -0.315953 -0.210102 -1.08013
19.614 16.8855 12.6498 -0.937694 1.82991 7.51296
17.5059 18.8404 13.3117 -0.0191412 1.50335 3.53524
19.9039 18.3332 8.83302 0.747158 -4.61122 1.6158
20.1886 19.1424 14.5942 5.42747 1.33286 3.52658
22.2936 16.6829 12.625 1.95142 -1.12667 2.80153
23.7816 19.0834 14.648 -3.67727 -3.17986 6.37071
21.3552 17.7051 10.4076 -0.283256 0.590222 -5.20902
23.3804 19.1985 11.8338 2.14156 3.84092 -0.542158
13.3784 21.7466 14.4587 -0.179614 0.500715 2.85707
14.6247 23.7841 15.3053 4.9839 -0.707872 0.468031
15.2987 20.3396 13.0396 1.08203 -1.91643 3.02112
13.7071 22.9385 12.5783 1.97794 -1.80589 1.50886
15.9399 22.8078 13.5402 0.32942 0.987531 1.8106
19.3916 26.192 15.0036 0.82612 2.80567 -0.784354
20.2756 19.0582 11.9574 -2.87552 3.71688 -0.225312
17.3268 21.0671 11.8935 2.3937 -0.781094 -2.24092
20.75 23.3877 13.7266 0.667381 -1.09415 2.62733
24.9971 21.1752 12.5123 1.02435 1.42136 -2.6215
21.3597 23.0927 16.2624 -1.3723 -5.51322 2.63627
26.5422 23.5323 13.6073 -1.79571 2.24513 2.45763
22.217 20.6071 14.0829 -3.64768 -5.72664 2.7569
23.4199 23.044 13.3969 -0.629794 -3.81436 3.23873
27.7546 22.1404 15.6843 2.08177 -2.01162 2.02238
27.2771 25.2609 14.5059 -2.24657 1.42806 4.74451
17.0278 24.673 15.5081 -4.24566 0.92944 3.09496
19.1695 28.8563 14.5582 1.20338 2.33711 3.062
23.9329 24.8598 15.2379 -0.790938 -3.08772 2.98957
21.9324 25.1064 14.2524 -0.35158 1.17182 6.96061
11.9822 14.8246 18.739 6.5673 -0.640511 -2.37153
15.0989 13.1106 17.8994 2.33436 1.40049 2.05371
17.8435 12.8399 16.315 -1.06661 3.9694 2.32507
19.5521 15.142 17.3008 4.19516 2.61502 5.53437
15.519 14.3277 14.843 -0.913744 -2.27143 -8.47346
16.2579 12.8251 20.4735 -0.338995 1.52259 -0.563867
18.3825 13.7352 20.1266 3.7491 2.42901 3.61895
21.8051 14.1003 16.7545 0.354415 4.51619 -1.2295
23.9699 15.3555 17.5681 -0.859599 2.45217 3.26873
20.5768 15.8012 14.8144 -3.06862 -0.353921 -2.55818
21.8858 12.6914 19.0653 0.679855 0.764426 -2.97809
24.6027 12.7715 17.2879 -2.52036 0.261163 -0.630554
26.4951 13.3419 14.7866 3.17277 2.96503 0.432375
28.8 15.2275 17.0422 -6.55468 3.53803 2.24938
27.1682 14.7172 18.2999 -0.503687 2.76708 2.98745
12.8735 17.0272 19.6326 -2.90051 3.82593 -2.27818
12.7596 18.1056 17.6586 0.499319 0.996788 1.01136
13.2618 20.6055 18.7504 2.09713 -2.7263 2.03535
13.4461 14.8633 16.7822 3.49276 -0.0341901 2.09747
12.4468 18.9193 14.4086 1.83761 0.768116 -1.15366
16.4977 15.4887 17.0813 1.77656 8.68443 -2.32148
16.9559 18.4811 19.2482 -0.73548 -0.0305813 -1.0437
24.6447 19.2486 17.2367 15.5485 5.00099 -7.61223
14.0836 16.9846 15.683 0.00738003 -7.64469 1.3617
17.9168 15.2175 14.7818 -5.13018 -4.77248 -4.76029
15.6363 19.1209 14.9695 -4.17112 4.10607 -0.723126
20.7273 14.4129 20.8764 -1.98686 -1.90674 6.51843
21.4821 16.5542 17.016 -7.77112 -6.83713 -2.72551
19.3413 21.5178 13.7372 -2.00715 5.74826 -1.31607
23.4722 16.335 15.1706 -4.9809 -0.759745 0.32672
26.2417 20.1632 14.9225 1.25113 -1.17336 -0.186199
26.5543 17.3657 18.982 -3.60948 2.10457 0.233783
28.4819 18.7287 19.5987 2.50946 2.73485 3.21748
29.5759 17.4098 18.1959 -5.3296 1.55636 -3.33555
26.2942 15.5121 15.4971 1.01527 4.2293 -2.32275
27.5585 17.5519 16.5927 -3.5728 -4.41063 0.448173
28.614 15.9183 20.1777 -1.17566 -3.11001 4.3446
11.812 22.389 20.0674 -1.84772 -1.41918 -0.0786452
12.744 25.4993 16.5924 -4.27498 3.82123 -4.731
11.6996 20.9043 16.156 7.11836 -4.02354 1.10243
12.7667 22.7303 17.0897 -0.6726 0.304079 -0.656522
14.1385 20.3195 16.6581 -6.64366 -3.46952 5.67339
17.1857 27.2312 20.3683 1.77491 0.858991 -4.33337
18.4227 17.2379 16.1379 4.7867 -8.49882 0.207352
21.0816 26.7428 18.5262 7.30972 4.20094 -8.11583
15.0876 26.095 16.8583 -0.0160397 0.213086 2.65296
19.3288 23.7822 15.7693 4.32492 -2.91093 3.41564
27.2369 22.1211 21.2465 -2.53532 -4.40503 -3.41574
22.373 20.4021 16.4585 -1.96818 0.885458 -4.37122
25.6933 27.2078 18.1242 4.6387 0.468451 1.48606
21.8808 25.6255 17.0108 2.23615 -2.12482 -0.938882
23.9724 21.6787 15.3952 -3.14509 3.44686 2.87849
27.9454 22.6023 18.204 -3.49786 0.326822 -6.54148
25.9077 23.1134 17.0529 -1.4415 2.38443 -1.81633
26.6796 24.0027 19.5728 -4.80046 1.20153 -1.33704
27.8309 19.9634 17.1232 -3.89088 1.92438 0.656934
25.7496 25.4043 16.8846 -3.58712 -3.73257 -0.511789
28.1536 24.5304 16.757 -3.57446 -2.64424 5.44493
15.0665 25.3774 18.9779 -0.480202 2.03019 3.37729
16.7345 28.9462 18.5163 -3.05612 -2.66776 1.33185
19.7171 31.0825 19.2637 0.757717 -0.186513 0.539445
18.3214 26.9596 17.4797 -0.975085 -3.0429 0.634074
16.5854 27.8366 16.0676 -1.90529 -0.572494 -1.45021
19.0117 29.4438 17.0116 1.21771 -4.67863 -2.67477
24.1268 28.4328 19.6696 1.1849 1.72153 -2.2011
21.6372 29.6056 18.7902 0.303104 -1.58409 0.0643423
23.3241 27.7466 17.063 -0.632536 -3.94427 0.306158
21.7053 27.7409 14.7562 1.75502 -2.70058 -4.71801
26.2812 27.3195 20.5409 -0.263392 -0.669129 2.86462
14.0235 13.5196 19.9195 -1.98476 5.12951 -0.00121479
17.5828 11.1492 21.9494 0.880113 -2.03822 1.46732
17.2285 13.5131 22.6044 6.75426 4.61146 0.441146
19.7531 10.5199 22.2946 -1.74516 0.114616 1.17413
21.042 11.3217 26.3108 4.40985 -0.871349 2.7005
20.4409 13.193 22.307 -3.19036 -2.82966 -4.23588
22.8007 10.1659 22.8127 -1.62878 5.51332 1.05458
23.5278 12.631 21.6489 -3.19836 3.54116 -0.487544
21.4878 11.3858 24.0759 -0.450865 0.782709 -1.90469
23.0934 13.451 23.8466 -5.15322 0.136536 -1.78416
24.9094 14.6245 22.0591 -1.5542 1.17601 0.772316
12.2938 19.2566 20.7316 1.91574 -1.67594 -0.996468
10.499 21.9341 24.8377 0.247011 6.26628 -1.05732
12.4119 16.4852 23.0774 2.49786 2.62116 1.83308
13.7616 18.8145 22.8095 -4.1502 2.54953 -1.96437
13.2423 17.1346 24.9548 3.85161 3.21314 -0.444714
15.337 15.8625 23.5542 -2.93127 0.259199 0.310143
15.37 19.2642 20.7751 2.32055 -0.300823 -4.46219
14.9789 16.6539 21.4226 -0.163189 5.0551 0.620559
18.0657 16.2201 23.7441 7.35132 1.02994 -1.90611
16.3175 17.9252 25.936 2.17542 2.35139 -2.65142
18.5444 13.3851 24.775 -0.291688 -4.51955 -3.33472
16.3301 15.5235 20.1055 -3.40717 2.12103 3.19077
25.2616 21.0938 23.5842 6.64423 -3.40524 -5.94693
23.6067 14.7738 19.6384 -2.98375 -0.290462 1.43993
21.5075 18.8311 26.1199 -0.244709 -2.01353 -1.80476
25.8506 15.7874 24.653 -4.57227 -1.89405 -2.7526
27.8039 14.7594 22.756 0.0058514 1.47566 -1.89276
27.1135 17.782 21.8882 -2.40564 -2.20415 2.09445
26.3017 18.8076 24.3347 4.14622 -2.18636 -4.71278
27.919 17.0503 24.5779 -2.74295 0.357276 -0.820078
29.1628 19.7262 25.8284 -0.656542 -2.21956 -0.544854
10.6296 23.4226 23.1933 2.63062 -1.70934 0.181761
11.0413 20.7551 22.3627 -6.76527 -1.5611 1.87608
15.4259 24.4655 21.4542 4.70957 2.214 -0.68097
13.0789 23.3263 21.799 -0.891625 -5.5315 0.444894
12.8434 21.6971 23.935 4.78626 -4.78911 1.62751
15.693 24.3431 24.3673 3.64246 -5.25626 2.17738
13.9982 23.1012 18.7855 0.627876 2.7411 -0.283634
19.9915 26.4659 21.3206 -2.41141 2.37033 -2.39112
14.7779 20.2333 24.6274 -0.111774 -1.1332 0.296585
16.5044 23.2039 26.9152 -0.722807 2.77088 0.0229515
22.6875 22.2925 26.5888 2.16341 -3.73219 5.02355
21.1066 24.0529 25.3229 -2.85767 -0.193945 5.31958
25.0106 26.3719 22.1462 1.3207 0.846535 -6.78938
24.1911 24.3328 27.2598 1.96465 -5.14337 2.02684
25.9276 24.0862 24.0978 2.1498 -6.50719 -0.680667
23.9809 19.6279 25.3885 -0.960115 0.524645 -1.0033
27.8936 24.5269 21.9045 -0.724243 0.64936 -0.163144
27.6841 26.3263 24.386 6.07524 9.04508 1.87681
28.6326 19.1935 23.5324 -5.61995 0.298402 -1.80214
27.7305 22.0537 23.4755 -1.37601 -2.75498 0.195005
27.6024 21.2415 25.651 4.52366 0.84411 3.16736
13.4157 25.1838 23.3369 -0.72609 -2.30642 -4.23626
14.8258 27.0687 25.4459 2.20508 -4.22641 -0.77108
14.9199 26.8149 21.61 2.92319 -3.02098 1.44874
16.6474 26.5017 23.3495 1.89053 1.83032 0.931704
18.1995 28.7694 22.6715 -4.53387 2.49609 -1.47729
15.8515 29.6513 21.9111 -2.42837 -0.406895 -3.29021
18.7928 28.9119 19.9633 1.71133 3.6877 -4.21357
18.8203 24.8079 25.8189 -5.39358 -0.704957 1.60773
22.4812 26.7271 22.5723 -4.95255 -4.97761 -2.67941
23.1211 28.5435 23.8694 1.84215 -3.73755 -0.96941
22.0004 28.104 20.6534 1.03299 0.245529 0.440202
24.7058 29.3321 21.9313 -1.60392 1.30181 0.733105
25.7781 27.5913 25.0596 1.76376 -0.315424 2.94069
26.6562 28.1866 22.7626 6.13388 0.9631 1.80388
28.6878 26.6251 22.0217 1.06265 4.18592 -3.62188
17.0355 14.9305 25.6144 -0.224511 -4.64821 4.49344
19.1134 14.6283 27.3469 0.48954 -1.58374 -5.32087
23.0021 12.4865 26.8234 3.19942 2.44645 0.979488
23.5213 14.8812 25.8787 -1.04869 -5.44161 -3.18549
13.8262 19.2018 27.2988 2.95401 0.0241384 -1.00297
14.7034 16.467 27.052 -1.17832 0.00586922 -0.351537
15.8396 20.5443 26.7602 -1.46836 4.69204 -2.97367
16.0251 18.6393 28.6888 0.380256 0.568568 4.12588
18.9093 17.4783 25.8667 3.97427 2.12158 0.046743
16.6497 16.0664 28.2134 1.17834 3.51775 -4.32997
18.4186 19.9404 26.3009 -1.62119 -0.443222 -5.27767
20.7921 21.2172 28.2831 1.13945 3.55417 -1.33505
20.8406 13.5581 25.5406 0.56427 -1.1312 -1.51698
24.1064 17.5932 26.7331 -3.57854 -1.3936 2.36312
20.6398 16.2857 26.1133 5.77986 0.0324248 -3.42908
23.5838 19.8239 28.497 3.14513 3.7887 -2.89538
25.312 21.2667 28.5619 -5.31172 2.62272 4.11677
26.3075 16.8074 26.5956 -1.78921 2.05337 0.600619
27.6244 18.9995 27.1884 -2.58187 4.50646 0.142128
25.5884 18.3146 28.8987 -3.49726 -3.07413 1.47313
13.743 22.5264 25.8893 -1.89179 -1.397 -1.11667
17.978 25.364 28.1839 -0.372777 -4.01144 -1.18333
19.0838 22.1399 25.985 -0.00170321 0.227379 -0.665664
18.4623 22.0639 28.4713 -0.777535 0.756014 -3.33555
20.4325 23.7985 29.2952 -3.4465 1.34319 -5.49409
21.9647 25.3561 27.9447 0.086326 -1.72717 -0.319101
25.2958 22.0557 26.0133 -2.3933 3.90125 -2.27927
23.7198 23.0029 30.3373 3.39629 -2.18083 5.26958
21.258 21.8383 30.7209 3.9084 -1.06094 4.17568
16.6007 26.2607 26.3669 -2.0992 -2.31726 1.56711
20.6477 26.3574 29.7095 -0.681516 -2.09791 1.2328
24.1341 25.7176 24.836 -0.994444 2.65926 3.01221
ITEM: TIMESTEP
2000
ITEM: NUMBER OF ATOMS
201
ITEM: BOX BOUNDS ss ss ss
9.5379566621472307e+00 3.0270664144132589e+01
1.0270333679397105e+01 3.0883427246034916e+01
1.0489390519045031e+01 2.9971312866215012e+01
ITEM: ATOMS x y z vx vy vz
15.2516 17.1041 13.9008 -1.51375 -2.91901 2.19343
17.5358 16.9923 12.6049 -4.71171 -0.0467142 -0.44632
21.5574 16.5902 11.0498 1.97119 2.34123 4.6013
24.3371 17.7687 12.3906 -1.94234 -6.12755 0.00276583
20.4405 18.8677 11.7862 2.27651 2.12144 -3.02649
14.6931 20.1928 13.6185 2.63908 -0.596343 0.390207
17.0668 22.0274 13.123 -3.58052 1.96459 0.336299
18.9162 17.7557 10.4212 4.35937 -4.62352 -5.86052
26.9875 18.0562 12.6596 1.51744 3.06143 3.58291
25.202 23.6647 13.0093 -0.106131 5.53546 2.07523
15.0459 22.5387 14.2793 2.1133 -0.00787808 2.17927
16.0076 13.1641 15.9021 -2.10213 -1.96475 2.44404
15.0649 13.9576 13.7449 1.38385 0.187916 -3.45475
19.9468 14.3498 15.9847 3.34097 2.04353 3.42998
22.1262 16.1405 16.8478 -1.03631 8.59491 -1.36212
23.318 13.7915 16.2489 -2.8137 -0.175721 2.90614
23.0338 15.2822 13.9274 -0.625371 -3.42064 -1.20003
23.3846 14.3849 18.6949 0.568296 0.484952 -1.60233
26.5233 15.8253 16.0062 -2.88293 2.9097 -1.43014
13.2623 14.1739 15.053 -4.17583 -2.95753 -3.30885
13.0761 16.4184 14.0925 -0.786398 2.14719 -1.78252
15.6873 15.2346 16.8572 0.214219 -1.26617 4.5522
17.1033 14.7744 14.505 -0.276337 2.50118 6.94411
17.5741 15.8241 17.0187 0.211609 -1.14449 0.257836
19.9056 16.05 13.0069 -1.33259 4.50663 2.08827
19.428 17.6244 17.3894 0.320351 6.28272 -0.911355
17.3373 18.1321 14.8166 -2.65084 2.62117 -3.10358
24.5853 17.979 17.6419 -0.229804 -1.57875 3.34569
21.7983 17.3416 13.5547 1.40043 0.37512 -3.1602
27.7664 16.8997 18.0929 2.36696 0.610826 6.08106
25.2135 16.4523 13.822 0.189009 -2.05589 1.7522
26.4264 18.5412 15.2593 -0.210866 0.14236 -3.39688
13.8828 21.1324 15.9658 -2.57843 1.36873 -4.90026
13.4208 18.6145 15.2889 0.445288 1.19237 -1.11704
11.0755 17.9022 17.3753 2.69271 -3.22216 2.67033
13.122 23.3045 17.3349 3.67623 -1.57429 1.36567
13.5394 18.162 18.5462 1.8755 0.150009 2.36834
18.1357 19.7164 12.7156 -6.93335 4.04866 0.378341
17.4485 18.6474 18.3213 1.95424 -2.88073 6.47172
20.0412 19.2451 14.4859 -3.03434 2.72723 -2.86955
18.8893 21.798 17.5652 -2.37802 -0.88207 5.68796
24.0717 19.3903 14.517 -0.492138 -0.130582 -2.21125
18.7246 22.5209 15.5404 0.890633 -0.449204 10.3688
23.8087 19.9603 16.9429 -2.59548 5.40373 0.666873
21.7683 18.6081 16.3999 -0.562866 -2.5064 1.36015
22.1286 21.1215 13.4422 -0.134824 0.849082 3.02142
25.9982 22.3415 16.5109 -7.73943 1.2778 -0.0169469
26.6204 20.6914 14.4824 0.728887 2.18938 0.270092
28.8388 20.0148 20.6125 1.0227 -3.45784 0.717015
14.7509 24.4604 15.9065 -1.13831 3.97631 1.6422
16.4618 22.9684 16.8688 0.514157 0.413253 -3.10348
16.5724 20.5189 15.1175 3.03577 -2.15762 -1.41201
17.7496 24.099 14.3579 4.37225 -2.7379 -6.28066
14.1067 25.5948 17.8952 -2.74502 1.13155 -1.50238
19.3792 26.4214 16.6576 -3.7256 0.69111 -4.22483
20.9964 23.5408 13.3801 -1.68948 0.607777 -1.32955
22.6427 22.4562 16.8188 -1.02693 0.0252267 3.62206
18.9014 24.1753 17.4422 5.84434 2.26389 -1.12584
19.8061 25.8701 19.2473 -2.06933 1.71913 0.713052
22.5405 24.8502 12.5872 -0.615104 1.98092 2.74063
24.0431 24.942 14.4216 -2.92114 -1.11352 0.615192
21.967 27.2592 15.2554 0.804472 -3.05551 -0.284395
21.284 24.5768 15.5031 -0.815874 -3.55204 -5.94234
21.4329 23.6268 18.9341 -3.39028 0.546924 -0.205448
23.9256 22.3489 14.7631 1.2151 -2.80994 -3.85291
24.8497 21.8787 18.6629 -4.20891 5.68043 8.13771
29.0163 24.475 19.4994 2.85383 0.47952 2.87768
29.0726 26.7225 20.8643 1.80853 3.81805 2.13883
17.1547 26.51 15.3732 1.48096 -3.50592 -1.67146
18.258 29.0083 16.5773 -3.01926 0.104486 4.11587
20.1167 28.7631 18.2052 2.05048 -0.257237 1.25386
22.0517 29.9071 16.7103 0.897907 -1.75179 7.36572
23.6761 25.9851 16.5042 0.73946 0.198275 0.688356
14.3555 15.8657 20.7806 4.62174 3.13475 -4.39336
17.3847 13.2026 17.9598 0.102696 -3.69488 -8.1314
17.5106 12.8973 25.8093 1.6212 3.23657 2.65095
18.0304 11.3746 23.7006 0.98218 -0.90291 -0.85036
17.0014 13.3713 21.4452 -3.01977 -3.92621 1.64243
20.4705 15.0206 18.3785 -0.197105 0.626709 0.29336
21.9239 12.2177 17.6308 -0.65804 -6.49408 -4.61978
18.9885 12.5394 19.8135 -3.97266 -3.53269 -4.74539
16.0739 14.5197 19.6135 -2.48786 3.60043 4.28917
11.8014 19.9058 19.3521 -4.71149 1.47613 -1.72749
13.2088 16.5815 16.9578 3.70911 0.723821 5.54174
18.4629 18.8615 20.592 8.58098 -3.77233 7.05698
15.7295 17.9873 21.6493 -1.39236 -2.0872 0.563595
18.0591 15.7133 19.9336 1.07456 -3.05215 -0.925719
22.0985 13.3355 20.5345 0.776065 -2.00773 2.53957
25.3984 16.0678 18.6446 1.4129 0.674441 -5.13226
25.4133 19.7734 19.4621 0.109746 -1.45103 3.26917
26.5475 19.8751 17.5413 -1.3578 -0.0910551 -5.16157
28.7797 17.8718 22.8269 0.465585 0.933912 3.44569
24.9199 18.4068 21.8858 -3.55833 1.77408 -2.35617
13.0783 22.4554 19.8528 1.80275 1.31291 7.58535
9.53286 20.8333 19.6972 -0.63907 -0.398381 -1.91108
10.3165 18.6384 21.4063 3.00682 3.08505 -1.39063
15.3917 19.9597 18.7733 -6.8279 -5.23374 1.90479
27.8841 17.706 20.3216 -3.41302 0.308682 -0.264857
27.7413 21.4446 19.2868 4.65831 1.70471 -0.18732
28.8622 22.5731 21.4454 3.48908 -1.52681 -4.95799
16.9549 20.7335 20.5607 3.78427 3.2751 -3.54444
15.4637 22.5362 21.6365 4.09205 -0.748848 4.70429
14.3442 24.7061 20.5569 3.0533 -1.97053 1.53329
18.5618 24.0776 21.5572 3.7635 -3.46695 1.39138
16.6084 26.8671 21.6385 1.68214 0.590352 -1.86452
21.8329 26.8505 17.7487 -2.88611 -8.16223 -0.0695339
18.7435 26.6273 21.5713 0.16892 -1.17185 4.76715
24.3286 25.8031 20.3165 2.90387 1.37827 -4.64778
26.9185 24.2685 20.6972 -6.08407 -0.4094 2.0929
30.0948 25.313 23.1354 2.27935 -0.0148061 0.336404
30.2647 28.333 22.2679 -0.457856 2.06591 0.483362
16.9353 24.6432 19.8722 0.342157 -0.631081 4.67147
16.3538 26.7787 17.6527 -0.585029 0.26702 3.35924
14.8176 27.4609 19.4673 -3.58154 -4.96135 1.47664
18.9267 30.8774 17.3947 -1.84293 -0.104024 1.97209
21.9012 30.5804 19.4893 0.395947 0.84733 2.60087
20.4168 28.8114 20.9946 2.40905 -1.74393 0.89874
23.751 28.0943 19.0676 -0.719717 0.508745 1.20888
22.1533 26.7021 20.6061 5.12236 -1.46856 -3.21917
22.749 28.9622 21.4524 -6.73687 1.90267 -3.3326
25.0327 24.1506 17.6685 -1.45044 -6.02459 -0.0604294
26.529 26.7765 19.2754 -1.20635 -3.62312 -2.39507
17.267 15.2407 23.0333 2.62052 -0.751002 -3.049
18.7695 10.2875 25.68 -5.46033 1.13884 -0.621671
21.4698 13.3122 27.9006 1.7687 2.3247 4.1205
20.2402 12.1039 23.9894 5.60763 -1.68426 0.375004
21.2444 11.189 26.0286 -2.25003 3.41968 4.69206
19.2957 12.8048 26.776 5.41478 5.88915 1.27969
21.8663 13.6778 25.7563 1.2375 6.20817 -2.38876
23.4196 10.8399 24.6623 2.261 -0.974734 -0.527076
22.8085 14.2176 23.1278 -1.20927 7.2964 -0.937285
12.5894 18.0851 20.8626 1.86454 2.08658 -2.72753
13.7596 18.8465 23.2111 -1.50697 -4.5368 2.03715
15.3621 16.3041 23.948 -0.90574 5.45073 2.57254
18.9244 17.5911 23.5598 -1.36115 2.16444 -4.12719
17.5295 16.0235 25.29 1.54801 0.979762 -1.46357
19.904 14.3715 21.7957 -3.56792 0.398519 1.74106
21.8374 16.9119 24.2724 2.60857 -2.82536 -6.68394
20.9774 19.037 22.2485 5.04603 1.44893 -5.28222
23.1873 15.5491 20.3019 -2.00201 1.43412 0.113838
24.5103 15.1378 26.0748 -0.396351 2.49974 0.968006
24.0616 15.9915 23.8915 -1.329 -1.35765 -4.44861
26.7987 16.1635 22.7744 -0.665355 -1.17386 3.20802
26.9287 16.1335 25.0347 -0.649916 -6.30499 2.39855
12.8655 22.7602 22.3174 3.35569 2.64492 -4.00545
13.7089 19.9857 21.339 3.7254 -4.75661 -6.35448
11.0675 20.4184 21.8748 2.74656 -3.63161 -2.87648
15.125 21.0551 23.6206 4.72816 -2.19684 -0.662471
13.823 22.5008 24.7614 0.864722 3.75598 -1.56887
17.5606 19.4144 24.9631 -2.02001 1.2312 -3.38367
22.6556 21.0031 23.5342 6.45772 -2.04126 -5.53999
19.8139 20.3662 23.4357 0.779082 3.68632 2.1644
18.6076 21.2572 27.4588 1.53777 -1.40584 1.44333
24.7473 20.9889 21.5603 -2.7601 1.74931 2.74626
23.6436 18.8092 23.7861 -0.522061 1.56279 2.44095
26.2571 20.6921 24.8428 -1.27874 -0.832647 0.446946
26.6031 18.4404 24.98 3.02345 -2.77549 -2.46298
25.4561 19.1125 29.6697 -1.51558 -1.19925 1.29508
27.4588 20.2442 23.0337 -2.3014 5.3158 -2.83899
30.0562 19.3051 22.8979 0.188274 -5.48319 -2.39439
29.1709 22.2047 23.6542 7.19375 -0.447426 5.55553
11.8609 24.4578 19.5859 -0.170593 1.58412 -4.43056
15.6137 24.3411 22.6885 1.73653 -3.91815 2.54458
17.573 21.4152 22.8497 0.773441 3.57961 -0.934993
18.4346 26.0731 24.7204 4.28608 -0.220797 2.55481
17.186 26.9893 27.1536 -1.68263 0.649382 4.8144
20.7387 22.7037 24.3736 -1.73349 -5.62143 -3.13805
18.8911 23.9367 26.4596 2.06933 5.49033 1.78015
20.2568 25.6037 23.5147 -2.86038 0.197042 -2.16776
22.4369 24.8297 24.2752 -1.42813 1.41945 -3.90704
25.695 22.3425 23.218 -1.19267 3.32841 -0.224809
27.965 28.2082 23.8352 -0.489923 -4.07819 -3.98031
16.8954 24.1851 24.72 0.751341 -3.45822 -1.0875
17.7951 28.1796 19.68 0.222626 -0.811795 -7.1299
23.1396 26.4901 22.7479 -1.73901 -3.16785 0.857305
27.6047 25.0039 22.9673 2.87668 -1.79502 6.70373
27.2253 27.3932 22.0091 -4.14386 -1.04615 1.26754
24.4021 12.441 25.7668 -2.89057 -2.31904 -2.01014
15.5715 18.1529 25.1238 7.14554 1.56613 -1.31607
18.343 17.7696 27.2461 -0.121017 1.65548 -0.700615
19.6523 14.6233 24.268 2.5681 4.45246 0.14146
22.5999 17.3365 26.6163 -4.0213 0.21649 -0.253609