ITEM: TIMESTEP
0
ITEM: NUMBER OF ATOMS
22
ITEM: BOX BOUNDS ss ss ss
1.7222062298804559e+01 2.3661264559089883e+01
1.6824278439651817e+01 2.4036851779775905e+01
1.7725583287704509e+01 2.3580892674105264e+01
ITEM: ATOMS x y z vx vy vz
18.7532 16.8284 19.6544 0.461762 0.333057 1.26704
21.5961 17.9388 21.9686 0.259639 -0.286758 0.0866279
17.4668 19.4275 22.1688 1.64732 -0.854787 -0.582236
23.4241 21.8465 18.598 -0.3214 1.06729 -1.87174
22.2175 24.0328 19.7913 -1.93853 0.92809 0.406079
21.9615 20.5803 22.6652 0.0450717 0.0534172 -1.26926
21.3594 17.6107 19.2694 0.573956 0.657422 0.584873
23.6572 22.1686 21.2453 1.58562 -0.259865 0.685393
19.421 23.4443 20.1092 -1.61096 1.19068 0.897367
19.8015 19.2479 23.5768 -0.817056 0.537131 0.20476
23.0586 19.5509 20.2636 -2.31325 -1.29392 0.779355
18.9799 17.1428 22.2373 0.0213075 -0.434457 -0.125978
21.3882 23.3325 22.2297 0.879453 -0.508994 0.601734
21.5433 20.0016 17.9107 -0.218644 -0.979724 1.50525
19.2874 18.5351 17.7297 -0.0102163 -0.398541 -0.473884
21.1957 21.5048 20.1891 -1.53981 0.678169 -1.24946
18.9755 21.1292 18.4284 1.11899 -0.543056 0.840932
19.6662 19.3041 20.5922 0.536533 -1.23761 1.36642
20.9955 22.7897 17.7701 0.0698573 -1.28798 0.481018
17.3955 21.5731 20.5151 2.3594 -0.393605 0.377019
19.3197 21.6064 22.3438 0.754437 0.431173 -1.32732
17.2261 19.0941 19.4335 -1.54348 2.60286 -3.18399
ITEM: TIMESTEP
1000
ITEM: NUMBER OF ATOMS
22
ITEM: BOX BOUNDS ss ss ss
1.7222062298804559e+01 2.3661264559089883e+01
1.6824278439651817e+01 2.4036851779775905e+01
1.7725583287704509e+01 2.3580892674105264e+01
ITEM: ATOMS x y z vx vy vz
18.2851 17.0463 19.7864 0.278501 -0.426777 0.595295
21.8297 18.2473 22.1803 -0.517194 -0.150346 -1.35595
17.5384 18.7172 21.6822 -0.351688 0.507908 -1.31197
23.3658 21.6965 18.6564 0.899755 0.209438 0.625332
22.1102 23.823 19.7262 -0.593618 0.0866443 -0.337534
21.8885 20.8014 22.883 1.3937 -0.19094 -0.933219
21.1175 17.4907 19.5265 -0.353589 2.53185 -0.237887
23.6451 22.0759 21.147 0.870939 0.689052 -0.0899425
19.5121 23.4215 20.1227 -0.185457 0.613028 -0.729624
19.6572 19.2828 23.2066 -0.751722 0.543619 1.03089
22.8965 19.6283 20.3543 1.09711 -0.26817 0.837372
19.7682 16.9683 21.8452 0.238986 -0.314567 0.860237
21.4998 23.3892 22.2697 -0.298269 0.80281 0.0590055
21.3994 19.9487 18.172 -0.683047 -1.57285 -0.333223
19.2291 18.4996 17.8344 0.948411 1.19556 -1.53756
21.0777 21.5225 20.32 0.677924 -0.982169 1.38546
19.0344 21.312 18.3601 -0.413741 0.129848 -1.18639
19.6448 19.3495 20.5056 -0.696306 -1.76611 0.782473
20.9167 22.5842 17.7723 0.365788 -1.0996 -0.75561
17.5946 21.5622 20.5965 -1.57357 -1.63511 1.4362
19.4466 21.8692 22.4226 0.0843449 -0.675717 0.841448
17.2324 19.4537 19.3201 -0.437246 1.7726 0.355198
ITEM: TIMESTEP
2000
ITEM: NUMBER OF ATOMS
22
ITEM: BOX BOUNDS ss ss ss
1.7222062298804559e+01 2.3661264559089883e+01
1.6824278439651817e+01 2.4036851779775905e+01
1.7725583287704509e+01 2.3580892674105264e+01
ITEM: ATOMS x y z vx vy vz
18.295 17.0247 19.8534 -0.418673 -0.788023 0.0608398
22.0604 18.1321 22.2319 -0.595703 -0.429065 -1.43258
17.504 18.8444 21.7361 0.731215 0.451909 -0.128346
23.2438 21.7436 18.5019 0.175111 1.03681 1.94871
22.4152 24.0713 20.0014 0.531388 -0.531715 -0.0531094
21.9349 20.6315 22.6867 -0.539325 -0.399036 -1.17954
21.1203 17.2951 19.6414 -1.75766 0.665 -0.0497581
23.5455 22.14 21.2797 -0.363774 1.00197 -0.943292
19.3261 23.5235 20.0966 -0.757651 -0.361075 1.62712
19.5742 19.2815 23.3116 0.470625 1.19314 0.083162
22.7805 19.382 20.2692 -1.26632 0.117489 0.246722
19.7284 17.0689 22.0456 0.284034 -0.505067 0.749781
21.4375 23.4711 22.2756 -0.579457 -0.271322 -2.24392
21.3197 20.0045 17.9634 0.156313 -1.11697 -0.884259
19.1454 18.5096 17.8903 2.53822 0.314358 0.762308
21.093 21.5905 20.2711 0.321382 -0.532272 1.12794
19.0465 21.1461 18.1461 -0.133358 -0.573601 -0.578195
19.8309 19.3166 20.5237 0.134388 0.134917 -0.274533
20.983 22.8576 17.8641 0.18479 0.106695 1.35144
17.8339 21.4338 20.4166 -0.07616 0.833412 -0.550031
19.3848 21.802 22.5929 1.31119 -0.104068 0.653168
17.087 19.4195 19.0906 -0.350573 -0.243486 -0.293634
ITEM: TIMESTEP
3000
ITEM: NUMBER OF ATOMS
22
ITEM: BOX BOUNDS ss ss ss
1.7222062298804559e+01 2.3661264559089883e+01
1.6824278439651817e+01 2.4036851779775905e+01
1.7725583287704509e+01 2.3580892674105264e+01
ITEM: ATOMS x y z vx vy vz
18.2425 17.0073 19.6857 -0.475361 -1.58136 2.03821
21.8321 18.1836 21.8756 -0.267491 0.616171 -0.768938
17.5247 19.0988 22.0894 -0.56557 0.278532 -0.565594
23.4431 21.707 18.6395 0.953738 1.48365 -1.75232
22.3298 23.7961 19.762 2.33551 1.42538 0.642894
21.8304 20.7698 22.7898 -0.222488 0.636159 1.87744
21.2111 17.6729 19.4343 -0.665962 -0.596307 -1.53192
23.5154 22.1213 21.4323 -1.09004 1.45417 1.22698
19.4586 23.3525 20.1789 -0.403977 -0.660429 -1.11376
19.882 19.2728 23.4875 -0.585864 0.943859 0.134002
23.1035 19.6273 20.1972 -1.20516 -0.498543 -0.255979
19.4706 17.0914 21.8594 0.18569 -1.28447 -2.01515
21.314 23.4459 22.0359 0.875 -0.309955 -1.25159
21.4407 20.0263 17.897 1.30071 -0.098573 -0.216242
19.3379 18.6285 17.9183 -0.949102 -0.475023 1.33116
21.2768 21.4042 20.3128 -0.126473 -0.158815 0.708581
19.0183 21.2443 18.4943 -0.517509 -0.368021 0.546352
19.5472 19.3829 20.6189 1.66597 0.234758 0.174775
21.1494 22.6252 17.8322 -0.292628 -0.509731 0.886581
17.3226 21.4575 20.5699 0.582625 0.908574 0.564469
19.2908 21.5796 22.3672 0.297971 -1.30988 0.209517
17.1483 19.1949 19.2121 -0.8296 -0.130141 -0.869468
ITEM: TIMESTEP
4000
ITEM: NUMBER OF ATOMS
22
ITEM: BOX BOUNDS ss ss ss
1.7222062298804559e+01 2.3661264559089883e+01
1.6824278439651817e+01 2.4036851779775905e+01
1.7725583287704509e+01 2.3580892674105264e+01
ITEM: ATOMS x y z vx vy vz
18.6137 16.9404 19.6525 0.300863 -0.849732 0.803666
21.5551 18.0316 22.0714 -1.23015 -0.132441 -0.61803
17.3249 18.7357 21.8846 0.784911 -1.69013 -1.02943
23.4256 21.9456 18.7976 0.0440477 0.797886 -0.376657
22.3016 24.1561 19.7671 0.73436 -0.700877 -0.445228
21.8868 20.5182 22.5379 -0.594134 -1.11777 1.19239
21.2423 17.6521 19.4656 -0.71457 2.01945 0.750516
23.6639 22.0726 21.2856 -2.65512 -0.140547 -0.398519
19.2686 23.3445 20.0755 -0.239244 -0.13102 -0.899846
19.4256 19.2973 23.3508 1.07933 -0.454863 0.80102
23.0067 19.3912 20.2334 -0.045395 -1.12816 0.0293663
19.1623 16.9195 22.0496 0.156084 0.158788 -0.166611
21.7091 23.6341 21.9805 1.09524 0.888021 -0.355074
21.4967 19.8837 18.0738 0.621605 -1.45628 -0.0542045
19.362 18.6019 17.7472 -1.10766 0.0311045 0.469036
21.1581 21.6078 20.1965 -1.01844 1.79116 -0.0323352
18.8713 21.1866 18.4478 -0.0587486 1.8998 -0.62719
19.6985 19.4285 20.6613 -0.671546 -1.41694 0.429361
20.896 22.7991 17.7896 0.543958 1.10933 0.618115
17.7099 21.2898 20.8619 1.31759 0.486369 0.310825
19.6311 22.0248 22.4045 0.0916787 0.446428 -0.412079
17.2802 19.229 19.3553 1.56534 -0.409571 0.010914
ITEM: TIMESTEP
5000
ITEM: NUMBER OF ATOMS
22
ITEM: BOX BOUNDS ss ss ss
1.7074958404489131e+01 2.3697309471909819e+01
1.6948433286679276e+01 2.3969058052064693e+01
1.7723705872443087e+01 2.2981312062543257e+01
ITEM: ATOMS x y z vx vy vz
18.3172 16.9447 19.6772 1.1412 -0.49235 -1.4884
21.6679 18.3105 22.0004 0.279597 0.352972 0.147574
17.2792 18.4967 21.621 -0.376187 -0.493871 -0.283868
23.2995 21.8497 18.6993 0.567073 -0.861534 0.563447
22.3309 23.9913 19.7557 0.854781 1.20898 -0.449451
22.0798 20.8237 22.8161 -0.839122 -2.17077 -1.68549
21.0475 17.3117 19.3705 1.15095 -0.181961 0.218482
23.8382 22.3306 21.1927 1.55155 0.216635 -0.637086
19.5847 23.4693 20.0906 -1.22501 0.53818 0.367992
19.4912 19.624 22.9215 -1.06585 0.667714 0.163056
23.0664 19.6324 20.4343 0.404033 0.120428 -0.0860029
19.3215 16.9688 22.0493 0.488695 0.750756 0.916348
21.7436 23.4492 22.234 -1.30774 0.454756 0.655095
21.5534 19.7946 18.2677 -0.835614 -0.53394 0.653077
19.3097 18.6536 17.6844 -0.459463 0.650094 -0.971474
21.0455 21.4672 20.4598 -0.636158 -2.49379 -1.05069
18.7663 21.2223 18.4939 -1.0659 1.60073 0.556465
19.684 19.1359 20.2273 -0.922937 1.45291 1.10264
20.8235 22.6653 17.878 1.01394 -0.86976 0.261256
17.9096 21.0262 21.1618 1.22638 1.16844 2.77032
19.452 22.2756 22.5715 0.0591608 0.722561 -0.915451
17.0784 19.2466 19.0832 -0.0033788 -1.80718 -0.807826
ITEM: TIMESTEP
6000
ITEM: NUMBER OF ATOMS
22
ITEM: BOX BOUNDS ss ss ss
1.7074958404489131e+01 2.3697309471909819e+01
1.6948433286679276e+01 2.3969058052064693e+01
1.7723705872443087e+01 2.2981312062543257e+01
ITEM: ATOMS x y z vx vy vz
18.4444 16.7751 19.6774 0.907042 0.851484 0.432255
21.7328 18.2561 21.8458 -0.480915 0.215784 0.301946
17.4595 18.6672 21.7131 0.918672 0.603688 0.92297
23.344 21.6754 18.7326 -1.00005 0.345347 0.98264
22.4149 23.8737 19.865 -1.02536 -1.28742 0.16661
21.8662 20.9646 22.9465 0.2004 0.0945131 -0.419461
21.1997 17.2934 19.4441 1.59476 -0.226253 -0.139321
23.5662 22.0292 21.4536 0.48154 0.364225 1.2648
19.5062 23.573 20.3363 0.936442 0.00633916 0.694108
19.6096 19.7538 22.7055 -1.05402 -0.703319 -1.99198
22.8955 19.5763 20.1175 0.629768 1.29874 0.918301
19.5194 16.9396 21.9316 -0.652836 1.03619 1.50325
21.5639 23.7375 22.2076 2.14829 -2.07131 -1.45249
21.3398 19.8586 17.9579 -0.176241 -0.567022 -1.70971
19.1664 18.3536 17.7213 0.118283 1.44138 0.0855981
21.0652 21.3973 20.5831 0.806048 0.295329 -0.965071
18.8601 21.3045 18.5005 -1.17591 0.192081 -0.0998518
19.6793 19.0952 20.1375 -1.5241 -1.56086 0.628718
20.9383 22.6468 18.0647 -1.17799 0.14341 0.288978
18.0242 21.2971 20.8807 -0.847955 -0.833609 0.169214
19.3835 22.3679 22.5896 0.0667079 0.590128 0.412397
17.111 19.2542 19.2779 0.30744 -0.228835 -1.99391
ITEM: TIMESTEP
7000
ITEM: NUMBER OF ATOMS
22
ITEM: BOX BOUNDS ss ss ss
1.7074958404489131e+01 2.3697309471909819e+01
1.6948433286679276e+01 2.3969058052064693e+01
1.7723705872443087e+01 2.2981312062543257e+01
ITEM: ATOMS x y z vx vy vz
18.255 16.9132 19.6877 1.6765 -0.20599 1.03459
22.0064 18.0425 22.1189 -1.18067 0.305747 -1.32507
17.5101 18.6395 21.5354 0.31298 2.64374 -0.768217
23.3532 21.7514 18.7497 -0.984063 -1.25665 -0.585372
22.4374 24.0332 19.7585 0.977155 -0.241842 0.0501578
21.7146 20.7015 22.8643 0.0736535 0.58261 0.648582
21.0442 17.317 19.4103 1.52751 -0.354567 -1.11332
23.3602 22.0548 21.1964 -1.1836 -0.791547 1.89057
19.6177 23.6329 20.0217 -0.405947 -0.208927 -0.890889
19.5378 19.4345 23.2534 -0.30826 -1.28967 0.617629
22.7686 19.4565 20.2898 -0.514361 0.839779 -0.688081
19.6991 16.9425 21.9239 1.25612 -0.542146 -0.640482
21.4522 23.6866 22.0975 -0.772911 0.675892 -0.862751
21.3732 19.897 18.0069 0.557344 -0.362395 0.807576
19.1793 18.4986 17.7991 -1.1232 0.370891 0.813052
21.0106 21.6115 20.371 -1.46018 -1.32194 -0.917157
19.0213 21.1855 18.4342 0.90864 1.28047 -0.688265
19.7815 19.2633 20.6309 -0.455054 1.56204 -0.942381
21.0339 22.8126 17.8555 0.73036 -0.83041 0.664569
17.9709 21.3939 20.8054 0.0670428 1.29376 0.303083
19.3888 22.0632 22.6723 0.586104 -0.718792 1.45717
17.1738 19.3583 19.2071 -0.28517 -1.43005 1.135
ITEM: TIMESTEP
8000
ITEM: NUMBER OF ATOMS
22
ITEM: BOX BOUNDS ss ss ss
1.7074958404489131e+01 2.3697309471909819e+01
1.6948433286679276e+01 2.3969058052064693e+01
1.7723705872443087e+01 2.2981312062543257e+01
ITEM: ATOMS x y z vx vy vz
18.3469 17.1379 19.9303 -0.154441 -0.88388 -0.196919
21.8265 18.1215 21.9467 -0.0925314 -1.66067 0.0175944
17.5401 19.1425 21.667 0.0868819 -0.489549 -0.867176
23.4025 21.6873 18.7257 -1.23267 -1.1195 0.640864
22.25 23.9897 19.9095 1.60497 -0.211265 -0.539223
21.8478 20.6775 22.6659 -0.569457 0.482303 2.50827
21.0174 17.1009 19.6438 0.878278 -0.023647 -1.1444
23.5114 22.1165 21.2271 -0.19465 0.352496 0.349875
19.4409 23.5458 20.2181 0.527732 1.7667 -2.42662
19.824 19.2855 23.4075 0.604364 -0.314082 0.966708
22.9249 19.5927 20.2007 -1.97094 0.279148 -1.85804
19.6427 16.8851 22.0129 1.7138 1.04946 -0.886246
21.3613 23.2984 22.2565 0.318591 -0.551314 -0.33951
21.3737 20.076 17.9736 -0.399499 -0.162145 0.650086
19.4151 18.2642 17.9302 0.141527 -1.64933 0.784318
21.0758 21.6126 20.1928 -0.302585 1.98835 -0.222798
19.0401 21.3862 18.3729 1.1431 0.269996 -0.466865
19.7563 19.4275 20.4905 -2.16278 0.632397 0.321391
21.1528 22.6671 17.8275 -0.951852 0.551885 1.7102
17.5295 21.6596 20.5141 0.885889 1.05599 0.722162
19.1198 21.6327 22.4608 -0.175922 -0.222956 0.47711
17.2906 19.3828 19.116 0.302192 -1.14039 -0.200779
ITEM: TIMESTEP
9000
ITEM: NUMBER OF ATOMS
22
ITEM: BOX BOUNDS ss ss ss
1.7314870213165381e+01 2.3447921921131055e+01
1.6933121684929382e+01 2.3918609015414042e+01
1.7444921531236048e+01 2.3583130287348446e+01
ITEM: ATOMS x y z vx vy vz
18.3207 17.1664 19.6691 -0.434286 0.650709 -0.899555
21.8192 17.9957 22.0292 -0.0802541 0.430424 0.687275
17.6807 19.1628 22.1342 0.336938 -0.225745 0.462617
23.5327 21.798 18.7879 0.589428 -0.76712 1.27958
22.214 23.9137 19.7973 0.921477 1.65906 1.8764
21.9733 20.5899 22.7955 -0.481004 0.432671 1.91072
21.0867 17.3505 19.4762 0.397232 0.658955 -1.76609
23.4524 22.2339 21.4926 -0.692594 -0.104655 -1.14939
19.3595 23.5109 19.7498 -0.652105 -0.909024 -0.335214
19.904 18.941 23.5448 -0.375646 0.461722 -1.55126
22.8531 19.5575 20.2086 -0.0855935 -2.22551 -2.09388
19.4308 16.9727 21.9012 0.670824 0.513361 0.216094
20.8442 23.5823 21.9979 0.343206 0.552808 -1.23865
21.4643 19.8472 18.0518 0.122143 -0.038983 1.32949
19.0842 18.5873 17.8785 -1.28608 -0.3016 0.318267
21.1652 21.551 20.1362 -0.258426 0.267745 0.983813
19.0843 21.2737 18.3169 -0.43101 -1.93999 -1.31786
19.7786 19.4556 20.5611 -0.172429 1.61879 -0.605645
21.308 22.6173 17.7287 -1.19211 0.260766 2.0378
17.7459 21.6271 20.6042 2.85981 -1.97766 -1.20714
19.4167 21.4177 22.5338 0.440584 1.27883 -0.438941
17.1713 19.5378 19.2945 -0.540094 -0.295549 1.50156
ITEM: TIMESTEP
10000
ITEM: NUMBER OF ATOMS
22
ITEM: BOX BOUNDS ss ss ss
1.7314870213165381e+01 2.3447921921131055e+01
1.6933121684929382e+01 2.3918609015414042e+01
1.7444921531236048e+01 2.3583130287348446e+01
ITEM: ATOMS x y z vx vy vz
18.3954 17.1399 19.71 0.469682 0.438927 0.242794
21.5349 18.1824 22.2767 1.55979 0.454191 -1.53626
17.3577 18.8029 21.8576 0.785503 -1.18185 -0.532421
23.4689 21.8041 18.6459 -0.797891 0.989094 -1.08011
22.2045 24.0439 19.6867 3.24873 -0.0746811 1.84636
22.0712 20.7103 22.7717 -0.297217 -0.173113 2.08698
21.1199 17.5767 19.5088 -0.313791 0.705993 -1.62658
23.6566 22.1175 21.1679 -0.712398 0.399732 2.52155
19.4649 23.2698 20.1645 -0.0323876 0.408787 -2.67147
19.5717 19.3248 23.3213 0.152132 -0.437576 -0.905766
22.9139 19.4848 20.2612 0.953725 1.64262 -0.636073
19.2934 17.0798 21.9778 -1.91756 -0.641404 1.26044
21.4877 23.2106 22.2158 -0.261285 -0.365925 0.0933077
21.6625 19.9469 17.8533 -0.892552 0.215751 0.171891
19.3478 18.6555 17.901 0.403512 -1.08464 0.637706
21.3509 21.5594 20.0862 0.527258 -1.25066 0.856487
18.9629 21.2428 18.4122 -2.21297 -0.0164565 -1.17414
19.7457 19.5316 20.6409 -1.09271 0.166583 -0.243259
21.036 22.7851 17.8107 0.266337 -1.49017 -1.81084
17.5333 21.2059 20.8098 0.751127 1.08009 1.11727
19.4387 21.7342 22.372 -0.505729 0.483321 -0.386362
17.0714 19.2811 19.2382 -0.0813092 -0.268603 1.76849
ITEM: TIMESTEP
11000
ITEM: NUMBER OF ATOMS
22
ITEM: BOX BOUNDS ss ss ss
1.7314870213165381e+01 2.3447921921131055e+01
1.6933121684929382e+01 2.3918609015414042e+01
1.7444921531236048e+01 2.3583130287348446e+01
ITEM: ATOMS x y z vx vy vz
18.2811 17.1037 19.8671 0.238085 -0.66939 0.340792
21.7195 18.088 22.1775 -0.0906625 -0.945245 -0.171673
17.3636 18.8519 21.6133 0.197032 -0.344113 -0.828447
23.3751 21.7865 18.6148 1.81844 1.51588 -1.79023
22.3066 24.0251 19.6966 -0.514728 -1.49434 -1.2414
22.0212 20.4605 22.7236 -2.18798 -2.14556 -2.03124
21.1569 17.2471 19.7417 0.426195 0.293242 0.0981891
23.6203 21.9397 21.2755 0.523643 0.699272 1.22187
19.3189 23.452 20.0258 0.409639 -0.170492 0.116048
19.5224 19.3334 23.2788 -1.20697 0.290177 0.95668
22.9918 19.5776 20.2047 -0.516062 -0.147261 0.968788
19.3892 17.1308 22.1144 0.271994 -0.362637 0.95364
21.5312 23.3259 22.1438 1.8346 0.43857 -1.60984
21.3981 20.1778 18.0404 0.943352 -0.81237 0.699515
19.6134 18.3593 17.9306 -1.23108 2.20638 0.183475
21.1317 21.5736 20.2095 -0.972527 0.462535 -0.201062
18.9044 21.3429 18.3749 -0.194242 1.49823 -0.487504
19.7847 19.397 20.5383 0.518497 0.014699 -0.714143
20.8524 23.0398 17.7554 -0.0267151 1.40678 1.4561
17.6305 21.4385 20.7977 -0.116221 0.292885 -1.07628
19.4809 21.7365 22.4947 -1.2503 -0.0165857 0.41375
17.2964 19.3024 19.0708 1.12603 -2.01065 2.74298
ITEM: TIMESTEP
12000
ITEM: NUMBER OF ATOMS
22
ITEM: BOX BOUNDS ss ss ss
1.7314870213165381e+01 2.3447921921131055e+01
1.6933121684929382e+01 2.3918609015414042e+01
1.7444921531236048e+01 2.3583130287348446e+01
ITEM: ATOMS x y z vx vy vz
17.9845 17.2727 19.6729 -0.265417 0.695387 -0.426973
21.9401 18.2129 21.9896 1.11269 1.8139 0.100368
17.6045 18.9284 21.9795 0.0844053 -1.36409 -0.351539
23.6094 21.8157 18.7011 0.80466 0.219294 0.108179
22.0849 24.0272 19.7926 0.0164083 -2.3268 1.08997
21.9299 20.7432 22.7789 -0.265791 0.341637 -0.836554
20.9602 17.4825 19.6978 0.00854114 0.0357149 -0.916814
23.6764 22.1969 21.2692 0.637691 1.54947 -1.09977
19.4222 23.3109 20.1305 -0.985851 2.39732 -0.753431
19.8131 19.1271 23.2109 0.844118 -0.888156 1.22888
23.2268 19.6108 20.4073 -0.431342 0.0976576 2.07073
19.4884 17.0687 21.8701 -0.634927 -0.773628 0.253078
21.371 23.4235 22.2733 0.950528 -1.85937 0.180952
21.719 19.7989 18.1991 0.55677 0.0889681 -1.04687
19.153 18.5947 17.7389 -1.18359 -0.615708 1.43276
21.3192 21.5714 20.264 -1.3187 -0.866807 0.192672
19.1254 21.095 18.5292 1.89681 1.6206 0.795895
19.6595 19.4423 20.49 1.20425 -0.88068 -0.377787
21.0674 22.4576 17.8358 0.364784 -0.618568 -1.15972
17.374 21.4385 20.5196 -1.464 -0.379092 0.369561
19.2621 21.6398 22.1551 -1.07754 1.24217 -0.56022
16.8991 19.4312 19.1846 -0.854503 0.470788 -0.293381
ITEM: TIMESTEP
13000
ITEM: NUMBER OF ATOMS
22
ITEM: BOX BOUNDS ss ss ss
1.7314870213165381e+01 2.3447921921131055e+01
1.6933121684929382e+01 2.3918609015414042e+01
1.7444921531236048e+01 2.3583130287348446e+01
ITEM: ATOMS x y z vx vy vz
18.1753 16.9405 19.8891 2.30741 2.69877 0.0203028
21.8428 18.2068 22.2733 1.39183 1.20324 -0.661568
17.259 18.793 21.5908 -2.69336 -0.842247 -2.17889
23.3446 21.7115 18.5015 0.304674 0.270051 0.256376
22.0881 24.0453 19.7575 0.0444299 -0.180099 0.16556
21.8824 20.7214 22.6921 -0.0164321 0.671766 -2.15884
21.1241 17.2419 19.8307 -1.14305 0.140112 1.38963
23.6268 22.0695 21.1276 -1.38743 -0.192507 0.544692
19.48 23.4985 20.259 -0.250017 -0.443532 0.650354
19.5674 19.2611 22.9989 -0.717842 0.485536 0.890269
22.7877 19.6274 20.3998 1.27744 0.0546778 -0.684362
19.5599 16.8281 21.8866 0.487196 -0.570809 0.594394
21.7019 23.3503 22.3949 1.25148 0.232046 -1.02481
21.4083 19.934 18.2332 -0.93603 -0.923837 -0.521856
19.3394 18.4173 17.712 -0.877889 0.309188 -0.417647
21.1365 21.6402 20.3563 1.43298 -0.325651 0.919109
19.086 21.4323 18.3243 -0.204775 -0.837919 0.815884
19.7102 19.3751 20.3435 0.35006 -0.644151 -0.177439
20.9912 22.8437 17.784 0.118969 -0.864695 1.77698
17.8481 21.4284 20.7135 -0.363193 0.242186 -0.0381889
19.4567 22.0376 22.5697 0.100088 -0.246549 0.387554
17.2737 19.2861 19.0517 -0.476545 -0.235575 -0.547504
ITEM: TIMESTEP
14000
ITEM: NUMBER OF ATOMS
22
ITEM: BOX BOUNDS ss ss ss
1.6969174607787664e+01 2.3642025246710276e+01
1.7005353714369285e+01 2.3975840271041221e+01
1.7855747559452499e+01 2.3373009254934033e+01
ITEM: ATOMS x y z vx vy vz
18.5211 16.9467 19.5864 -2.55578 2.00287 0.950511
21.7365 18.2346 22.3106 1.33278 0.00600248 -0.537518
17.3912 18.5795 21.477 -0.956102 -0.643197 0.161712
23.1166 21.7999 18.6141 -1.00478 0.412184 -1.05568
22.2822 23.9822 19.8052 -0.654428 0.266818 -1.81321
22.0367 20.6472 22.7923 -1.0548 0.773764 -0.256944
21.1473 17.2946 19.5055 -1.75019 -1.00067 1.60569
23.6652 22.1063 21.2024 0.761598 -0.281087 -0.495797
19.5923 23.5947 20.1968 -0.347063 -0.784258 -0.0744967
19.3103 19.6009 22.8822 0.00564313 -1.88532 -0.441315
22.8681 19.4834 20.4981 -0.36757 -0.191356 1.90571
19.3208 17.0121 21.952 1.74075 -0.961654 0.196498
21.6834 23.5916 22.3198 2.08715 1.52216 0.467499
21.334 19.7653 18.1745 -1.33305 1.35182 -0.779171
19.317 18.5253 17.6026 1.93267 -0.332589 0.297585
21.1611 21.6284 20.4219 -0.90267 -0.787267 0.948902
18.8302 21.255 18.4209 1.43665 -0.659108 -0.59259
19.8504 19.1648 20.4576 -0.338652 0.884267 -1.4151
20.8058 22.6675 17.8058 0.517056 0.540485 0.431171
17.9165 21.2647 20.9768 0.54212 0.0809797 0.209482
19.5834 22.2108 22.6468 -1.05875 -0.601867 2.17583
17.2199 19.3344 19.0407 1.96742 0.287021 -1.88878
ITEM: TIMESTEP
15000
ITEM: NUMBER OF ATOMS
22
ITEM: BOX BOUNDS ss ss ss
1.6969174607787664e+01 2.3642025246710276e+01
1.7005353714369285e+01 2.3975840271041221e+01
1.7855747559452499e+01 2.3373009254934033e+01
ITEM: ATOMS x y z vx vy vz
18.4514 16.9662 19.557 0.373181 0.716774 -0.550111
21.5728 18.2961 22.2669 0.899475 2.11122 -1.06408
17.3483 18.4507 21.5212 0.218153 0.372715 1.31099
23.2252 21.7651 18.6821 -0.327353 -0.122302 0.0596397
22.1886 23.8647 19.8245 -1.05182 0.618516 -0.801213
21.7838 20.7398 22.8173 0.338933 -0.600768 -1.35852
21.3867 17.5595 19.3326 0.23086 -2.18841 0.903493
23.8544 21.9172 21.1978 1.07345 1.75277 -0.108514
19.4688 23.4853 20.2353 1.22578 -2.75427 -0.904287
19.297 19.6931 22.9464 -1.25654 -0.91594 0.967742
22.9138 19.4243 20.3026 -0.91747 -1.85272 0.895797
19.2715 16.9203 22.0655 -1.91881 -0.372123 -1.38344
21.7111 23.6421 22.1347 -2.46494 1.23389 0.677346
21.3902 19.987 18.1189 -0.0388577 0.861444 -1.55417
19.3419 18.4641 17.8732 1.70145 0.615143 -0.130808
21.1081 21.5456 20.4701 1.04192 -0.766234 -0.333042
19.0326 21.306 18.4464 0.913098 0.260975 1.35513
19.7682 19.2294 20.4226 -1.71213 -0.277535 -1.53848
20.9227 22.6368 17.7504 -0.245752 -0.885648 0.70239
17.9667 21.0983 20.8931 0.705444 0.913857 1.44859
19.5548 22.2724 22.7091 0.767546 0.829057 0.934211
17.1315 19.4258 19.1225 0.444381 0.449587 0.471353
ITEM: TIMESTEP
16000
ITEM: NUMBER OF ATOMS
22
ITEM: BOX BOUNDS ss ss ss
1.6969174607787664e+01 2.3642025246710276e+01
1.7005353714369285e+01 2.3975840271041221e+01
1.7855747559452499e+01 2.3373009254934033e+01
ITEM: ATOMS x y z vx vy vz
18.2044 17.0637 19.6241 1.50387 -2.45214 0.462445
21.8043 18.1937 22.2265 -0.223902 0.985155 -1.07905
17.4112 19.0265 21.7589 0.786491 0.06132 -1.37274
23.5207 21.9018 18.4775 1.50112 0.597436 -0.584638
22.2454 23.9696 19.9123 -0.128444 0.159648 0.559963
21.8642 20.7097 22.714 -0.0878303 -0.147502 -0.413913
21.0692 17.56 19.6741 -0.949277 0.678049 0.445331
23.7283 22.0221 21.2884 -0.660214 -2.52152 -0.195195
19.3906 23.4488 20.149 0.252023 0.0224915 1.67113
19.6508 19.2309 23.5978 1.51973 1.48878 0.345501
22.8877 19.4686 19.9871 0.703626 0.425504 0.786367
19.3665 17.0617 22.0191 -2.18012 0.613213 1.12249
21.3039 23.3903 22.183 -1.06498 0.625527 -0.357051
21.485 20.1009 17.9626 -0.17135 0.378215 -0.17026
19.4179 18.6279 17.9438 0.385992 0.181863 1.13615
21.2111 21.5517 20.1794 0.873314 0.0589483 -1.49661
19.1232 21.2309 18.3148 -1.05317 -0.211529 -0.379855
19.7413 19.4294 20.7245 0.446882 -0.607689 1.54876
21.1843 22.6917 17.8278 -0.67677 0.736873 -0.490393
17.627 21.4372 20.4484 -0.180526 0.0924028 -1.49881
19.3055 21.4277 22.4629 -0.00428007 -3.34438 0.226058
17.1476 19.1452 19.2138 -0.592195 2.17933 -0.26569
ITEM: TIMESTEP
17000
ITEM: NUMBER OF ATOMS
22
ITEM: BOX BOUNDS ss ss ss
1.6969174607787664e+01 2.3642025246710276e+01
1.7005353714369285e+01 2.3975840271041221e+01
1.7855747559452499e+01 2.3373009254934033e+01
ITEM: ATOMS x y z vx vy vz
18.4357 17.111 19.596 -0.172741 -1.08468 -1.31471
21.6429 18.2347 21.935 1.89152 -1.03716 1.69311
17.5683 19.1753 22.0943 0.928604 -0.0686118 -0.532944
23.3666 21.5485 18.5802 1.36316 -1.52572 -1.42437
22.268 23.8324 19.8179 -0.846771 -0.0461834 0.879542
21.9301 20.6407 22.7721 -0.117799 -1.14773 -0.441253
21.168 17.6231 19.4515 -1.16558 2.44727 0.837515
23.537 22.3642 21.1883 -1.06063 -1.09088 0.0870815
19.5364 23.5694 19.9442 -1.51789 0.543306 -1.78672
19.5908 19.0712 23.5337 -0.52712 -1.48457 1.15211
23.0495 19.7022 20.4446 0.507237 0.456081 0.516999
19.1889 16.8932 22.0135 1.20662 0.819097 -0.484929
21.2032 23.2829 22.0988 -0.0244195 0.0418293 0.130959
21.5632 19.9651 18.0874 0.220577 -0.323803 0.597195
19.4783 18.6811 17.7379 -1.54341 -0.481552 -0.406992
21.0464 21.4993 20.2997 1.64303 0.726741 0.86051
18.9585 21.3345 18.2187 -0.497092 -1.04592 2.14719
19.6797 19.2948 20.6846 -0.29096 -0.638927 0.560143
21.1241 22.6439 17.7644 0.582293 1.75332 -1.41065
17.677 21.4231 20.579 -1.0843 1.24218 -0.182396
19.3346 21.4853 22.5058 0.41636 1.29338 -0.789267
17.3427 19.3138 19.3425 0.0892934 0.652554 -0.688136
ITEM: TIMESTEP
18000
ITEM: NUMBER OF ATOMS
22
ITEM: BOX BOUNDS ss ss ss
1.7275904062081516e+01 2.3641261518853216e+01
1.6990586578247715e+01 2.4319721379142088e+01
1.7815232333982753e+01 2.3221924309661215e+01
ITEM: ATOMS x y z vx vy vz
17.9779 17.0289 19.6577 0.384615 0.07553 0.273357
21.7433 18.2969 21.6783 -1.70273 0.398948 -0.890289
17.4784 19.0517 21.8462 0.898167 0.304824 0.671354
23.4631 22.0565 18.6631 1.33638 -0.00429438 0.949747
22.217 24.0886 19.9015 0.632256 -0.998702 -1.20159
22.0993 20.7704 22.6389 0.602094 0.280151 -0.117759
20.836 16.9083 19.6818 1.57223 0.14817 -1.07475
23.6788 22.5932 21.173 -1.16327 -0.379736 1.14485
19.4492 23.475 20.1237 0.306787 1.0803 0.0155957
19.746 19.2287 23.311 0.464218 -1.10756 -0.956949
23.5377 19.9578 20.3707 1.04064 0.943173 0.0173836
19.1723 16.9356 21.8103 0.219034 -0.23227 -0.702844
21.3736 23.3563 22.1796 0.787844 -0.584419 0.59525
21.6641 19.1493 18.7447 0.864912 -2.58278 2.30783
19.2842 18.3908 17.8642 0.230933 2.03041 1.42103
21.2456 21.3736 20.282 -1.62239 0.240947 -1.45922
19.2087 21.0774 18.3189 -0.0420077 -1.78591 1.51201
19.6253 19.2332 20.484 -1.00686 0.0200179 0.467848
20.7979 23.1011 18.0073 -2.69235 -0.134517 0.0458321
17.5604 21.455 20.5814 -1.23553 0.184019 -0.635984
19.4036 21.63 22.2637 1.12434 1.04498 -1.49638
17.1278 19.5318 19.1078 -0.999327 1.05872 -0.886326
ITEM: TIMESTEP
19000
ITEM: NUMBER OF ATOMS
22
ITEM: BOX BOUNDS ss ss ss
1.7157865871136224e+01 2.3607463222317460e+01
1.6911287773769264e+01 2.3963280226173460e+01
1.7607003794696205e+01 2.3274521670695911e+01
ITEM: ATOMS x y z vx vy vz
17.9613 17.0482 19.7265 0.756578 2.39006 0.822547
21.7534 18.5451 21.6307 0.043405 -0.606002 0.806141
17.4386 19.0595 21.7303 -1.71713 -1.46823 0.271446
23.7365 22.0847 18.8164 0.463714 -0.430973 -1.95556
21.9765 23.9002 19.6732 -0.378177 0.268442 -0.112105
22.0206 20.8308 22.9366 1.166 0.706013 0.0839645
20.7234 17.2434 19.4483 -1.34651 -0.301299 -1.51146
23.6158 22.509 21.6745 0.175922 -0.640148 0.55267
19.3936 23.1691 20.1832 2.49302 1.12512 -2.44633
19.912 19.0921 23.3161 -1.37094 -2.0033 -0.437084
23.7092 20.0615 20.4444 0.813517 1.38672 -0.305701
19.4605 17.1699 21.7911 0.204363 -0.88692 0.0100592
21.3999 23.3966 22.0438 -0.909361 0.0702041 0.927017
21.678 19.467 18.4223 0.529415 -1.07464 1.08311
19.0103 18.5338 17.7951 2.45218 -0.313021 0.0140152
21.4583 21.322 20.3224 0.842295 1.51254 -0.857005
18.9366 21.2606 18.3117 -1.45999 -0.0267757 0.663288
19.5868 19.4712 20.2996 -1.46005 0.718501 -0.17
21.2188 22.1546 17.6832 -1.22351 -0.362881 1.71307
17.4063 21.4498 20.7376 0.586323 1.06292 1.37606
19.3981 21.4511 22.4637 -0.803457 0.401358 -0.559379
16.8955 19.4696 19.2393 0.142389 -1.52768 0.0312478
ITEM: TIMESTEP
20000
ITEM: NUMBER OF ATOMS
22
ITEM: BOX BOUNDS ss ss ss
1.6980640385822060e+01 2.3664627582589876e+01
1.7086019409497556e+01 2.3742181168316844e+01
1.7577889576833002e+01 2.3092090355768974e+01
ITEM: ATOMS x y z vx vy vz
17.9132 17.4407 19.3413 0.412712 1.13447 -0.152245
21.9437 18.6253 21.4724 0.478072 0.0155926 0.0180954
17.3454 18.5066 21.7157 -1.69019 0.163769 -0.549046
23.4905 21.3702 18.6073 0.996992 -0.857474 0.0323977
21.94 23.6334 19.2816 -0.243307 0.690211 0.0771831
21.9614 20.8968 22.9266 -1.11999 -0.180022 1.04654
20.609 17.1781 19.3222 -0.466372 -0.413481 -0.349484
23.5382 22.7925 21.2293 -0.0332302 0.667756 -1.6987
19.258 23.223 20.3879 -0.202293 -1.2301 -1.11901
19.6984 19.312 22.9224 -1.24571 0.223578 0.0654327
23.9516 20.3176 20.9282 0.636363 -1.38099 -0.366937
19.4986 17.085 21.4871 1.14507 -1.26869 0.975705
21.2916 23.3346 22.0438 -0.985619 -0.43038 0.907243
22.4768 19.0181 18.9261 0.305834 1.54344 0.430236
19.6836 19.1496 17.873 0.144955 1.84603 1.51184
21.2989 21.2626 20.357 0.0138428 -1.04864 0.37591
18.4888 21.5758 18.4944 1.5785 -0.780038 -0.0053836
19.4154 19.4732 20.3081 0.78915 1.30756 -0.863646
20.8639 21.5002 17.9434 -2.45395 0.112307 -1.43056
17.5996 21.4206 21.055 0.893592 -0.132366 0.616114
19.595 21.8179 22.7656 0.944299 0.285218 0.122335
16.8285 19.7561 19.3016 0.101279 -0.267745 0.355982
ITEM: TIMESTEP
21000
ITEM: NUMBER OF ATOMS
22
ITEM: BOX BOUNDS ss ss ss
1.6980640385822060e+01 2.3664627582589876e+01
1.7086019409497556e+01 2.3742181168316844e+01
1.7577889576833002e+01 2.3092090355768974e+01
ITEM: ATOMS x y z vx vy vz
18.1593 17.0267 19.3779 -2.46769 -0.143977 -1.4699
21.8752 18.5004 21.5554 0.95892 0.129748 -0.0957171
17.4548 18.6462 21.6043 -0.194078 -1.27208 0.596772
23.3579 21.682 18.5482 1.48637 0.317895 1.38609
21.8971 23.5858 19.499 -2.05546 -2.0343 0.649347
21.8116 20.9596 23.0806 1.11088 1.03152 -1.83273
20.7089 17.1008 19.2574 0.161838 -0.399676 0.267576
23.8501 22.5563 21.2801 -0.528766 0.473758 0.17631
19.4207 23.1044 20.4982 -2.55181 0.399317 1.40328
19.6567 19.7159 22.8565 -0.97568 0.917286 0.215513
23.7502 20.1376 20.7618 1.03213 0.183863 0.980309
19.4593 17.2509 21.7447 -1.1202 -1.07643 -1.29341
21.8103 23.5353 22.1785 0.712026 0.199791 -0.675888
22.0449 19.2169 18.7234 0.301686 0.296309 0.890137
19.273 19.0122 17.5809 1.05823 -1.34026 -0.694729
21.3869 21.2683 20.7079 1.63433 -0.0548809 -0.358736
18.2979 21.5778 18.4209 -0.238434 -0.0936977 -0.386594
19.5685 19.4408 19.9007 1.33489 0.256108 -0.128486
20.7756 21.5116 18.03 -2.07977 -1.0083 -0.805672
17.6896 21.0766 21.1902 1.58721 1.37833 -0.551763
19.4804 22.3996 22.9212 0.28944 -0.0883332 0.245954
16.9609 19.3842 18.972 0.543942 1.928 1.48234
ITEM: TIMESTEP
22000
ITEM: NUMBER OF ATOMS
22