ITEM: TIMESTEP
0
ITEM: NUMBER OF ATOMS
237
ITEM: BOX BOUNDS ss ss ss
1.0859053425280816e+01 2.9930946252229006e+01
1.0867148630562841e+01 2.9922851084459044e+01
1.0794440935420287e+01 2.9995559155697894e+01
ITEM: ATOMS x y z vx vy vz
20.4526 14.3235 13.303 -0.374551 -0.505256 1.6669
23.3981 13.7847 13.7883 0.263567 0.610215 -0.23932
17.7995 17.4935 13.9646 -1.06 -1.19058 0.95574
17.5071 14.8624 12.8178 -1.49217 0.345891 -1.43229
15.1131 16.4579 13.7796 0.74427 -0.8036 -0.847979
20.745 16.9546 14.4499 -1.36932 -0.746768 -0.873769
19.5935 16.8193 11.8081 -0.636657 -0.136832 0.500015
25.7769 18.3726 13.9255 1.86195 -0.397459 -0.49659
22.539 16.2805 12.2934 -1.08547 0.862997 -1.12343
13.326 20.9965 14.3263 -0.280823 0.614427 0.276684
16.9404 19.9893 12.4697 0.277343 1.3681 0.4473
16.0124 22.032 14.5113 -0.941445 -1.27737 1.55695
19.8859 19.4504 12.955 1.5978 2.32097 0.532145
18.7814 22.2554 13.2929 1.61474 -1.58349 0.90564
21.7269 21.7165 13.7781 -0.227732 -0.628328 2.64771
21.6799 18.7763 10.7985 1.07179 -1.09896 -0.24846
20.5753 21.5812 11.1364 -0.595431 0.626163 1.63079
24.6724 21.1776 14.2634 -1.16407 -0.343803 -1.58444
22.8314 18.9115 13.4403 -0.0775054 -0.90835 -2.18693
23.5209 21.0424 11.6217 0.529995 0.739471 -1.34098
27.3588 22.2131 14.4484 -0.233174 -0.511484 0.303136
13.9328 23.9395 13.9111 -1.35132 -1.28529 -0.567603
16.7018 24.1628 12.6927 -1.33263 0.541417 -0.232343
20.6224 24.5214 14.116 2.28427 -1.20269 2.3063
19.4708 24.3862 11.4742 1.18319 1.7 0.975752
23.5679 23.9826 14.6013 -0.365175 0.0603108 0.860193
25.3618 23.3084 12.4448 0.577982 -1.00702 1.10291
22.4163 23.8473 11.9595 -0.502745 2.78312 0.612614
18.5428 26.4289 13.5158 2.84599 -0.793733 1.40166
14.4374 13.0618 17.7313 1.50873 0.113181 -1.46993
17.1238 14.0974 17.9163 -0.297259 -0.351937 0.0606597
15.9723 13.9621 15.2745 -2.18616 0.956302 0.340613
19.5178 12.5019 16.9544 -0.111121 -0.554914 -0.890721
21.6042 14.4588 15.9448 -0.287177 -1.52632 0.172132
23.6837 12.5513 16.545 -0.69961 -2.24876 -0.528357
25.7701 14.5082 15.5354 1.51531 -0.222505 0.218992
26.0557 13.2749 18.292 0.762403 -0.124837 0.77894
13.8707 18.1887 17.3832 0.56792 -0.686728 0.687987
12.7192 18.0534 14.7415 1.20646 0.898284 -0.492512
13.5783 15.5576 16.2364 0.200509 0.259337 0.527716
16.2647 16.5932 16.4214 -0.382227 -0.131925 2.828
19.8102 15.1329 18.1013 -1.02304 1.06332 -1.16339
18.951 17.6287 16.6064 -0.471359 0.357423 1.99028
21.8966 17.0898 17.0917 1.65181 0.121641 -1.0586
18.6586 14.9977 15.4595 -0.0564595 2.42628 0.0159236
26.0625 17.1393 16.6822 0.980238 0.178999 0.842789
23.6905 16.4157 14.9352 -0.00604276 -1.63253 -0.426638
23.9761 15.1824 17.6918 0.909559 -0.116723 0.0221372
28.1421 15.2318 17.2824 -0.383219 -2.33102 -1.07483
28.7489 18.1748 16.8672 3.17679 -0.67492 0.236584
14.4775 21.1317 16.9681 -0.792295 -0.437674 -0.704443
11.7911 20.0962 16.7831 -1.73828 -1.13659 0.656421
18.0919 20.1245 15.1115 2.1801 -0.257311 0.444491
16.5571 19.2242 17.5682 -0.282302 -0.833699 -0.37357
17.1639 22.1672 17.1531 1.01679 -1.50157 -1.84901
15.4055 19.089 14.9265 -1.10203 -0.532098 0.252205
19.2435 20.2598 17.7532 1.50275 0.55677 0.423009
22.189 19.7209 18.2385 -0.000269411 0.643622 0.0883917
21.0374 19.5856 15.5968 0.117792 -0.191078 -0.486344
23.9829 19.0468 16.082 -0.77592 2.23484 -2.59358
24.8753 20.7564 18.4235 -1.76674 -1.17516 1.14505
22.8784 21.8517 16.4199 1.20681 -0.358561 0.269946
26.6693 20.0823 16.267 -0.30763 -0.61809 -1.56378
29.3557 21.1178 16.452 -1.06651 0.426029 -0.643763
12.398 23.0392 16.3679 0.705635 0.91685 -0.687747
15.0844 24.0747 16.5529 -0.571872 1.61569 -0.754458
17.8534 24.2981 15.3344 1.15563 0.459863 -1.11261
21.7739 24.6567 16.7578 0.948127 -0.690394 1.13601
19.0049 24.4333 17.9762 0.786276 -0.932616 1.76296
19.9329 22.3906 15.9346 -1.22258 0.61535 0.485063
24.4603 25.6922 16.9428 1.04173 -0.0904931 0.199641
25.5648 22.8873 16.6049 0.72267 -0.606338 2.36519
28.2512 23.9228 16.7899 1.33658 -1.0115 -0.797481
26.2543 25.0181 14.7863 -0.432061 1.82795 -0.0894089
16.9253 26.3408 17.376 -0.980226 0.215647 0.520637
17.6148 28.4716 15.5574 -0.543296 -0.816524 -0.471179
15.7738 26.2055 14.7343 -2.73208 -0.523086 0.411619
22.0663 27.2877 17.9046 1.2991 0.591726 1.31093
19.6944 26.5641 16.1576 -0.713233 0.0660585 0.488471
19.9868 29.1952 17.3044 -0.168967 -0.506847 1.27485
22.4634 26.7875 14.9391 -1.85908 2.12607 0.395085
24.7527 28.3233 18.0896 -2.93588 0.700629 -1.68209
27.1467 26.7278 17.1278 -0.754338 -0.204741 0.873501
14.0404 13.562 20.6968 -0.677294 2.26493 -0.764129
16.7268 14.5976 20.8818 -0.99524 -0.382587 0.678687
18.4313 10.8712 21.7385 -0.943124 0.909579 1.5352
16.4343 11.9665 19.7349 -0.144523 -1.35591 -2.39688
19.1207 13.0021 19.9199 -0.305101 2.08629 -0.0798561
21.8897 13.2254 18.7015 0.0411401 0.788031 1.2061
21.4927 13.7256 21.6669 -2.12639 1.43117 -0.440877
21.2003 11.0946 20.5201 -2.40286 1.33182 0.346125
24.2617 13.949 20.4485 0.055114 -0.308638 1.91887
23.9693 11.318 19.3016 0.190615 -0.917996 -0.577331
23.5722 11.8182 22.2671 0.247464 1.63028 -0.754824
26.6337 14.6726 22.1955 0.273179 -1.38069 0.583124
12.3359 17.2884 19.84 -1.65934 0.0551218 -1.20336
14.3328 16.1931 21.8436 -1.02047 -0.935339 1.3368
15.0222 18.3239 20.025 1.11596 -0.193087 0.700295
17.4162 16.7284 19.0631 1.1568 1.63396 -2.05251
17.0192 17.2286 22.0286 -0.719068 -0.11883 -2.01396
14.7298 15.6929 18.8781 1.14847 0.397544 0.745546
20.1026 17.764 19.2481 -0.148107 1.70499 -1.72525
19.7055 18.2642 22.2136 -1.33762 1.19986 0.820291
19.4131 15.6331 21.0668 0.0249529 0.884932 -1.06563
22.1822 15.8565 19.8483 -2.02626 -0.312407 -2.19964
22.4746 18.4875 20.9952 -1.42708 -0.372931 0.395909
24.5541 16.5801 21.5954 -0.598298 -0.0076507 -0.344657
24.2685 17.8134 18.8387 1.19733 -0.530276 -1.29465
27.2405 17.6156 21.7804 -0.312564 -1.11119 0.701324
26.3481 15.9059 19.4389 3.69914 -0.693041 0.269677
29.0345 16.9415 19.6239 0.494705 0.965181 0.064614
12.9427 20.2314 19.4248 -0.0182072 -1.3103 -0.86165
13.2283 18.998 22.1815 -1.5016 -1.42779 0.0853337
13.8351 21.9411 21.7663 -0.035625 -1.77926 -0.359249
10.8631 22.1389 18.8246 0.126151 -1.01646 0.627576
11.1487 20.9055 21.5813 -0.621897 -2.20496 -1.74674
17.7086 19.3595 20.21 -1.69773 1.36936 0.321741
15.6291 21.2669 19.6098 -1.44112 -0.542271 -0.746176
20.395 20.395 20.395 1.15885 0.462283 0.926258
23.0814 21.4305 20.58 0.963489 0.215619 -0.119109
25.1609 19.5231 21.1802 -1.20043 0.362584 0.414779
27.5617 21.792 18.6085 0.690736 0.257585 -1.40133
27.8473 20.5586 21.3652 0.0981804 -0.419197 -0.595933
26.9549 18.8489 19.0237 0.425306 0.762812 0.335613
29.9269 18.6511 21.9654 -1.62432 0.0715309 -1.15088
29.6413 19.8845 19.2087 -0.479562 0.711549 -1.62491
14.4419 24.8841 21.3511 1.4211 -1.31357 -2.24201
13.5495 23.1744 19.0096 0.63808 0.627637 -1.63877
11.7555 23.8485 21.1661 -1.34001 1.02729 -1.28717
18.3154 22.3025 19.7948 0.876308 -0.242284 -0.188078
16.2359 24.2099 19.1946 1.05761 0.543439 1.1374
16.5215 22.9766 21.9513 0.343749 -2.00237 0.148223
20.6874 23.026 21.5419 1.9259 -0.794284 -0.385047
21.0845 22.5258 18.5764 0.491623 0.539933 -1.12932
21.3769 25.1569 19.7232 -2.87354 -1.85409 -0.328001
18.6078 24.9335 20.9417 0.860487 2.03939 -0.32696
25.7678 22.4661 20.765 0.115432 -0.192315 1.15341
23.3738 24.0616 21.7269 0.0712487 0.296643 1.23416
23.7708 23.5614 18.7614 -0.453231 -1.23541 -0.079962
26.0602 25.0971 21.9119 0.280453 -0.628606 -0.189347
28.4541 23.5016 20.95 0.610467 0.192379 1.80417
26.4572 24.5969 18.9464 0.292653 -0.163841 0.875709
14.1563 26.1174 18.5945 0.0578269 -0.19246 -0.380668
16.5283 26.841 20.3415 -0.975353 -0.514562 2.03938
16.8207 29.472 21.4884 -0.45921 -2.6055 -2.51012
17.2178 28.9718 18.5229 -0.0626446 -0.926723 1.5503
21.6693 27.7879 20.8701 0.278313 1.25622 0.765109
18.9003 27.5646 22.0885 1.55635 0.967181 0.471789
19.2973 27.0644 19.1231 -0.855134 -2.19512 -0.291859
19.5897 29.6954 20.2699 -0.414139 -2.68114 1.34146
24.0632 26.1924 19.9082 -0.329864 -0.539437 -1.54143
22.3587 29.9188 19.0515 -0.154232 -1.3848 1.46461
24.3557 28.8235 21.0551 1.78016 -1.0264 0.761268
26.7496 27.228 20.0932 -0.852566 -1.3308 -1.15297
13.6433 14.0622 23.6622 -0.568217 0.463707 1.87287
18.3266 14.0025 25.8509 -0.960612 -0.152406 0.823051
16.0373 12.4667 22.7004 -0.332912 0.181286 -0.785543
18.7237 13.5023 22.8854 -0.100553 -0.987423 -0.0279291
21.0956 14.2259 24.6324 0.906841 0.422971 0.741056
20.8032 11.5948 23.4856 -0.638299 1.30598 0.275846
23.8647 14.4492 23.414 -1.15393 -0.174018 0.439067
23.1752 12.3184 25.2326 0.803094 -0.681035 0.789326
25.0162 14.5845 26.0557 0.19099 0.0957911 0.910684
12.5388 16.8672 24.0001 -0.987454 -0.757802 -0.490462
14.5357 15.7719 26.0037 -2.34149 -2.26738 1.05823
16.3297 15.0978 23.8472 -0.745501 -0.72034 0.0958327
15.2252 17.9027 24.1851 1.39299 1.94717 -0.598885
19.0161 16.1333 24.0322 0.95056 0.4393 -1.11652
21.7851 16.3567 22.8138 -0.515038 0.40056 -2.16663
20.8571 18.3994 24.8554 -1.20797 -0.694549 -1.38034
25.7056 16.7153 24.2371 -0.200438 1.38531 0.965805
22.9366 16.4919 25.4556 0.840765 -1.34429 0.225987
28.392 17.7508 24.4221 0.235196 0.474155 -1.11132
14.1207 20.7077 24.523 0.105612 -1.93106 -0.699597
11.4343 19.6722 24.338 1.59011 2.04825 1.06859
16.8071 21.7432 24.708 -1.47438 -0.760849 -2.29154
15.9147 20.0336 22.3665 -1.30763 -0.625548 -2.09693
17.9116 18.9383 24.3701 0.249802 0.710606 -1.23075
21.5465 20.5302 23.0368 1.13396 1.02641 0.273305
18.601 21.0691 22.5515 0.819682 -0.0509331 0.523784
19.7526 21.2044 25.1932 2.52708 -1.2306 -0.639553
22.6981 20.6655 25.6785 0.0044485 -0.600303 0.417092
24.2329 21.5658 23.2218 -2.23494 -0.437848 -0.42928
23.6261 18.6228 23.6369 -0.143883 0.178414 1.57166
25.3845 21.701 25.8635 -0.239178 -0.535842 -0.0339819
26.3125 19.6583 23.8219 0.709344 -0.56091 1.70244
28.9989 20.6938 24.0069 -1.47394 -0.143853 -3.38127
12.6479 25.5582 23.5076 0.350951 -0.657872 -1.24591
12.0411 22.6152 23.9228 1.41065 0.00297769 -0.155721
17.0995 24.3743 25.8548 0.0792964 -0.910961 1.39597
14.7275 23.6507 24.1078 -0.99159 -0.0651707 1.34316
16.8139 25.6076 23.0982 -0.254362 -1.2804 0.845254
20.9798 25.6571 22.6887 0.448236 -0.032959 -0.375458
21.839 23.1613 24.1836 -1.89087 0.328916 -0.292388
18.8934 23.7002 23.6983 1.76221 -0.754505 -0.0181828
22.1314 25.7923 25.3305 0.661914 -1.00906 1.02906
24.5253 24.1968 24.3686 -0.565976 1.4259 -0.588346
26.9193 22.6013 23.4068 0.889491 1.476 -0.113381
28.0708 22.7366 26.0485 1.13284 -0.541979 0.735191
27.2117 25.2324 24.5536 0.568126 0.156381 0.238597
17.1063 28.2387 24.245 1.9033 1.01589 1.74826
14.7343 27.5151 22.498 1.52077 -0.629525 -2.08353
15.0199 26.2818 25.2546 0.144626 0.258772 -0.723713
21.2722 28.2881 23.8356 0.46699 0.528025 1.64734
19.1858 26.3312 24.8452 1.05101 0.923869 -0.134668
23.6662 26.6926 22.8737 0.257792 0.860117 1.35267
24.8177 26.8279 25.5155 -2.60816 0.477644 0.826954
26.3526 27.7282 23.0587 -0.953548 0.576691 -1.34141
22.2472 14.3611 27.2742 0.503472 0.334097 -2.81964
17.2221 16.8074 26.1887 -0.477312 0.40568 0.815342
15.4282 17.4816 28.3452 1.74445 -1.12749 0.601695
18.3737 16.9427 28.8305 -1.38348 1.65061 -0.311042
20.1676 16.2686 26.674 0.835973 -0.389905 0.206401
21.3192 16.4038 29.3158 0.111032 2.64853 -0.518879
24.0882 16.6272 28.0973 0.115703 0.793067 0.597994
26.8572 16.8505 26.8789 1.26371 2.37891 -0.805811
13.4312 18.5769 26.3416 0.452486 -0.0684643 -0.0544821
17.9586 21.8785 27.3497 1.17341 -0.250648 -0.130502
16.1176 19.6124 26.5266 -0.758586 0.288444 -0.0482566
17.2691 19.7476 29.1683 -1.85427 0.185101 0.373858
20.9041 21.3396 27.835 0.772697 0.581552 1.09862
22.0086 18.5346 27.4971 0.100022 1.6367 1.97979
19.0631 19.0735 27.0119 0.775741 2.00709 -0.68833
19.1101 22.0137 29.9915 0.411087 0.644507 0.613622
20.2147 19.2088 29.6536 2.29856 1.10676 0.080159
23.8496 20.8007 28.3203 0.633904 2.28228 -3.06591
24.7776 18.758 26.2787 -1.21668 -0.36461 2.06644
27.464 19.7935 26.4637 1.38679 -0.0404957 1.75836
15.0131 22.4174 26.8645 -0.863601 -0.309034 1.75874
18.251 24.5095 28.4966 0.357709 -0.0927201 -0.0701694
20.045 23.8354 26.3401 -0.425671 0.0736584 -0.1076
21.1965 23.9707 28.9819 -0.879694 -2.04925 0.180153
22.9905 23.2965 26.8254 -1.60118 0.838098 1.43196
23.2829 25.9276 27.9722 0.664643 1.92622 -1.90673
25.6769 24.3321 27.0104 0.099564 0.074747 -1.65372
17.3919 27.0053 27.0017 0.513755 0.113336 -0.783772
20.3374 26.4665 27.487 0.883274 1.81253 0.648182
ITEM: TIMESTEP
1000
ITEM: NUMBER OF ATOMS
237
ITEM: BOX BOUNDS ss ss ss
1.1382963558459345e+01 2.9661147470614551e+01
1.0982033536979598e+01 2.9343459900644643e+01
1.1256623397384855e+01 2.9515016609853792e+01
ITEM: ATOMS x y z vx vy vz
20.2924 14.6002 13.5344 0.690396 -1.64964 1.34654
23.2506 14.52 14.1942 -0.870838 0.349343 1.38941
18.0092 17.7933 14.1135 0.566537 0.209088 1.35164
17.9786 15.2513 13.4098 -1.30083 -0.936301 0.543988
15.3276 16.5204 13.8071 -0.118678 2.30753 0.37857
20.5943 17.1375 14.698 -0.455386 0.360756 -0.944919
19.8502 16.7778 11.9039 2.18828 -0.619972 -1.68832
25.8752 18.2688 14.4827 0.302013 0.962183 -0.267701
22.468 16.5314 12.7895 0.718354 0.151355 2.64689
13.7703 21.1804 14.536 0.355507 2.74369 0.900758
17.6219 20.1683 12.5223 -2.22194 -1.79603 -1.50464
16.5682 21.8398 14.8486 -0.154565 -0.326841 -0.283865
20.035 19.5328 13.4222 -1.92418 -1.9734 0.564253
19.0127 22.152 13.4805 -0.562443 0.656435 -0.912841
21.556 21.6458 14.0345 -5.0376 0.914723 1.783
21.9203 18.7436 11.4727 -0.194239 0.964518 1.29222
20.4716 21.2161 11.5001 1.89879 4.05676 -2.66294
24.4967 21.138 14.6926 1.05175 -0.803866 -4.13479
22.9276 19.1418 13.883 0.874036 -1.64257 0.321303
23.3514 21.145 12.2362 0.275061 -2.14117 -0.340574
27.0204 22.0491 15.0675 1.99597 -1.20655 1.62604
14.3104 23.4601 14.3638 -0.360898 1.90781 0.0999942
16.8555 24.0658 13.2741 -2.08745 -0.960932 1.11867
20.6578 24.4512 14.2903 0.569969 -0.410429 1.54749
19.3819 24.4765 12.0883 0.545342 0.332292 1.10295
23.331 23.916 14.8178 3.13459 0.836888 -0.738027
25.0338 23.261 12.8732 -0.847158 0.505118 -0.0289138
21.9736 23.3513 12.478 -0.0863124 0.829968 -0.303401
18.6138 26.2088 13.8301 0.35206 -1.3429 0.32365
14.8619 13.4865 18.0321 0.562887 2.46779 -0.842377
17.5243 14.2373 18.1343 0.935878 0.401394 0.80994
16.0311 14.4365 15.7764 -0.742213 -1.21407 0.447109
19.666 12.6282 17.2549 1.9617 -0.491997 -0.148165
21.3815 14.9505 16.2544 2.70381 -0.884531 1.77384
23.2689 12.8628 16.7611 -1.3359 -3.47823 0.903168
25.2801 14.673 15.9544 -1.05685 0.271863 -1.09669
25.4086 13.4982 18.3767 0.765539 -0.777155 -1.25036
14.1725 18.3824 17.3266 -0.606449 1.78444 -0.617857
13.2256 18.6207 15.0764 2.67275 -0.802815 -0.461491
13.9834 15.9913 15.7632 2.4696 -0.246134 -0.0360982
16.4735 16.8819 16.2027 1.27813 2.79581 3.51963
19.9669 15.3068 18.3121 2.31199 1.69764 1.12553
19.186 17.6668 16.757 0.142486 -1.78792 2.64051
21.9955 17.3363 17.4933 -1.91361 -2.54985 1.60699
18.8132 15.07 15.8925 -1.11724 -3.45726 0.215783
25.5443 17.35 16.9246 0.965284 -0.391914 -1.24244
23.3805 16.7223 15.3463 0.106936 2.51259 -1.65793
23.6774 15.3688 17.9778 0.594334 4.47691 3.28512
27.3518 15.4005 17.2521 0.892749 0.678477 1.48027
28.1012 18.1582 16.9513 0.203323 -1.23965 -1.54668
14.7683 21.3601 17.0238 0.723296 1.22202 1.25633
12.2931 20.4978 16.8487 -0.132702 -0.00688625 0.257586
18.5018 20.1121 15.5112 -0.136715 2.72373 1.99818
16.7306 19.1569 17.6491 0.421209 1.84821 -0.230285
17.3399 21.9185 17.5265 0.372124 0.692744 2.25265
15.9496 19.3256 14.8974 0.993523 -0.205668 -1.03308
19.2401 20.2168 18.1224 1.1257 -0.957857 -3.86479
21.946 19.9419 18.5504 -1.15243 -2.83775 0.475786
21.1025 19.4448 16.041 1.61524 2.02674 -1.56962
23.6889 19.1958 16.4382 -0.734198 -1.11509 0.833072
24.4856 20.8136 18.4813 2.17204 -1.00979 0.29067
22.8015 21.8082 16.8247 -1.5797 -0.508017 -2.8831
26.2983 19.9237 16.5075 -1.38752 -0.140974 -1.23482
28.825 20.7141 16.8446 -2.52498 0.110086 -1.14332
12.9565 22.9982 16.9918 0.472753 -0.686842 -2.19431
15.4014 23.8548 16.8766 1.7876 4.78177 1.156
17.9965 24.1237 15.6319 1.88631 -4.11097 3.01044
21.6458 24.3059 16.8363 -1.30369 -3.01238 2.70019
19.067 24.2326 18.0433 -0.564072 -0.851003 2.97439
19.9551 22.2194 16.2857 2.67893 -0.996614 -1.03745
24.0433 25.2649 17.1113 0.535352 -2.29432 -3.76915
25.3361 22.8371 16.8103 -2.85761 -0.38857 2.06255
27.8062 23.6871 17.0066 1.34794 -2.64333 0.917439
25.9361 24.9444 15.3071 -2.71232 2.105 -0.187256
16.8386 25.891 17.5916 -1.75578 1.14848 -0.808351
17.7872 27.6738 16.1047 -0.0441607 0.439136 0.359808
15.972 26.1661 15.0048 -2.13143 1.35116 1.22321
22.0422 26.8106 17.8207 -1.45122 -0.735495 -1.66221
19.9659 26.2129 16.236 -0.563343 1.0362 -0.645365
20.1309 28.8642 17.622 0.48185 0.0970696 1.40847
22.5476 26.3824 15.0367 0.42619 0.150744 0.0181726
24.7216 27.9071 18.2381 0.548217 1.96713 -0.462518
26.6047 26.416 17.4394 -1.35671 -2.07992 -0.860438
14.3094 14.1644 20.3464 -1.624 -0.929678 -2.09406
16.732 14.9222 20.8067 0.0697606 1.78873 1.20692
17.9949 11.5572 21.6717 1.27359 0.811251 0.280067
16.5479 12.377 19.9717 4.50403 0.647832 -0.782004
19.2968 13.2461 19.984 -1.87257 1.63643 -0.264954
21.7971 13.5335 18.9166 0.156089 0.563763 -3.00472
21.3987 13.8025 21.7674 -0.616646 3.67642 1.32141
20.8482 11.4841 20.5404 -0.48815 0.85695 1.13795
23.9561 14.4426 20.7985 -0.737414 -3.6427 3.49669
23.6403 12.0454 19.5142 0.151362 0.469509 -0.00601398
23.0875 11.8848 22.0411 3.59214 -1.32585 -0.164995
26.4691 14.8732 21.9057 -0.446148 0.327911 -0.176102
13.2511 17.0873 19.7874 -0.180842 -1.43833 -0.413423
14.6181 16.4636 21.9184 -1.86428 0.304647 -0.692093
15.6029 18.0646 20.0087 -0.872754 -0.109533 -2.14106
17.6404 16.8081 18.9223 -0.951733 -0.39041 0.894775
17.4614 17.1304 21.9953 -1.13859 2.98423 -3.02709
15.0326 15.9475 18.3643 -1.27728 -1.68569 4.1206
19.997 18.0364 19.2921 -0.550431 0.1684 -4.40036
19.8717 18.5044 22.0276 -0.359179 0.548521 2.18831
19.6486 15.9422 20.9799 -0.77513 1.11817 -0.284295
22.0359 16.287 20.017 0.94787 1.13353 0.613765
22.2672 18.7949 20.8814 0.284251 -3.30283 -0.727035
24.3829 16.9433 21.4864 -1.67393 2.13692 -2.69908
24.0722 17.9849 18.9271 1.49448 1.40398 -1.15053
26.8278 17.8349 21.7201 2.30187 -4.13642 0.160236
25.9099 15.974 19.5401 2.57563 2.52922 2.57686
28.3552 16.8936 19.4101 0.355155 -1.83547 2.83072
13.4889 19.8256 19.322 0.795341 -0.0495775 -0.627474
13.506 18.8056 21.7823 -2.19934 -1.11142 -1.40424
13.9975 21.7545 21.5999 3.55269 0.300639 -0.689431
11.4434 21.6787 18.9677 -1.5304 0.162974 0.985513
11.5151 20.9141 21.5066 -1.25257 -0.92807 0.456087
17.8532 19.4269 20.345 -3.6978 -2.94486 -0.855085
15.9882 20.9962 19.6167 2.15804 -1.55247 0.918518
20.3765 20.5122 20.4492 -3.33883 -1.63875 0.585093
22.8096 21.4603 20.5977 3.89907 -2.80661 0.690353
24.933 19.6482 21.062 -0.744557 1.60548 2.64391
27.101 21.7408 18.6948 0.480945 1.43517 0.543896
27.5495 21.0682 21.3152 -0.502805 4.61588 -0.250641
26.8529 19.0496 19.1778 -5.19295 2.74089 -0.0328961
29.1526 18.511 21.3344 -3.38273 0.85088 -1.78825
29.2391 19.8071 19.2524 -0.154852 1.12499 0.0142167
14.8533 24.8171 21.402 0.10236 2.71013 -0.57921
13.7594 22.9705 19.224 2.51584 0.264474 -0.252491
12.0627 23.5368 21.1548 2.12071 -2.57318 -1.97027
18.4392 22.1118 19.9185 1.68948 1.01261 0.363845
16.2769 23.9783 19.4411 2.94362 -1.03557 1.20841
16.4088 22.8179 22.0127 -0.201925 -0.37805 -1.47407
20.6032 22.8144 21.4197 -0.718116 1.00309 -0.151614
20.8923 22.3547 18.7632 -0.669417 1.67004 -2.13968
21.2415 24.8188 19.6968 -1.58755 1.34933 0.704558
18.6284 24.5612 20.8567 -1.36264 0.630113 1.74016
25.4114 22.3217 20.8071 -1.89843 -3.02268 -0.818282
23.2626 24.0141 21.6211 1.9145 1.68347 -0.323749
23.4022 23.3916 19.0153 -2.4564 -1.65241 -1.51147
25.9775 24.8145 21.7407 -0.0327125 0.650809 0.990852
28.3955 23.2786 20.5378 0.0416487 0.459492 0.165911
26.0982 24.1597 19.0735 1.96787 2.87232 0.11289
14.1892 25.9229 18.9648 0.404603 -1.87485 0.502099
16.409 26.426 20.302 -1.34182 1.07746 -0.224412
16.436 28.8023 21.5285 -0.419344 0.506288 -1.12361
17.7526 28.5755 18.9381 -1.88365 0.435172 1.55386
21.6201 27.2423 20.8762 0.0609096 0.791961 0.362742
18.8888 27.1653 21.9214 0.433379 -1.07648 0.638772
19.4215 26.6438 19.1069 -1.14888 -1.21361 1.82121
19.8954 29.0619 20.2905 2.15929 1.84918 -3.64587
23.9698 25.8664 19.8003 -3.4957 -2.1537 0.803299
22.3278 29.3646 19.4095 -0.276972 -0.272747 2.00248
24.2462 28.49 20.9462 0.909567 2.44952 -0.680723
26.4635 26.9425 20.0264 -1.87464 -1.52821 1.54423
13.8818 14.779 23.705 0.194047 4.04716 0.926751
18.5092 14.2064 25.9121 1.74385 -2.96119 1.81589
16.0184 13.1165 22.5232 2.2209 2.3823 0.35965
18.7183 14.018 22.7382 1.89431 -0.254581 0.240763
21.0758 14.5365 24.4071 -2.39987 0.569011 -0.690839
20.3996 11.9525 23.1049 -1.32311 0.573632 0.430148
23.9365 14.8192 23.2254 0.491933 -2.51846 -3.93037
23.1012 12.8995 24.6987 0.565354 1.56174 -1.94478
24.9418 14.9491 25.7349 2.14981 -1.2349 0.338776
12.8247 17.5134 23.7096 0.517578 -2.47649 1.64824
14.6916 16.0393 25.7438 3.43225 0.785013 -5.53079
16.6527 15.1998 23.9509 -2.6518 -0.876439 2.73413
15.3223 17.8645 24.2508 1.7543 -1.00816 0.245126
19.2408 16.3619 23.9335 -1.92447 1.2653 -0.120837
21.8174 16.7859 22.865 -2.24947 -0.454236 -1.58695
20.8674 18.6792 24.6677 0.835793 -1.66083 -1.27933
25.648 16.9537 23.9326 1.82417 -1.01729 2.11732
23.2974 16.6754 25.2597 -0.51557 0.792931 -0.352282
28.0167 17.9352 24.1322 -5.4932 -2.3866 0.81122
14.5128 20.536 24.2905 -1.1359 1.47473 2.08202
11.9495 20.1986 23.9711 1.20704 -2.27236 -3.00574
17.0605 21.2705 24.4004 1.58604 -0.0523147 -0.625531
16.3306 19.7597 22.2249 0.729312 -0.498387 -0.999844
18.075 18.6979 24.1119 0.757571 -1.04114 2.15148
21.3352 20.5492 22.8492 1.36763 1.17378 -0.95239
18.6956 20.9876 22.3161 -0.617448 0.169544 1.00223
19.7596 21.1567 24.8053 2.89773 -1.76704 1.98757
22.4835 20.8325 25.2265 -0.530155 -0.497615 -0.195803
24.0441 21.6124 23.0432 -0.841223 2.8087 -0.621032
23.5214 19.0639 23.2585 -1.24742 -0.895423 1.13155
25.1889 21.7789 25.52 0.865114 0.34294 -0.545993
26.2686 19.9626 23.7413 -2.6544 0.384567 -2.21854
28.9377 20.6147 23.6522 2.78879 1.13591 -1.95229
13.0689 24.9707 23.3301 1.19864 2.60428 0.382666
12.3222 22.5449 23.6895 1.30831 2.58271 1.78504
17.1739 23.9093 25.5486 0.102242 -0.0920627 -0.474751
14.8812 23.2802 24.1374 -0.318597 -3.67803 0.117495
16.8909 25.3828 23.2543 3.21423 -0.772418 -0.171277
20.7419 25.4027 22.4809 -0.0331332 -4.15206 -2.28004
22.0075 22.9972 23.968 -0.995766 -1.92529 -0.0680133
19.043 23.3905 23.3966 -0.667345 0.991251 0.603403
21.8348 25.7153 24.8895 -1.00252 1.48598 0.000801863
24.3509 24.3566 24.1778 -3.06116 -1.72768 -2.68941
26.6931 22.6879 23.1777 2.83632 -0.941553 4.84863
27.8072 22.2837 25.5733 0.0398338 -1.31137 -1.27066
27.0078 25.1783 24.5496 -0.0133427 -2.18852 -0.0296218
17.4018 27.7627 24.0016 1.05598 2.37546 2.26058
14.8858 27.0193 22.6749 -1.90039 -0.375688 -2.08121
15.3224 25.8033 25.1575 2.42639 -0.659742 1.01093
21.088 28.0391 23.6828 -0.947517 -0.0504188 -1.07446
19.3707 26.0579 24.473 0.285468 -0.846072 1.42462
23.2709 26.5766 22.7525 1.63574 2.72088 -2.45394
24.4458 26.6092 25.3493 0.770396 0.37555 -1.28695
25.8206 27.1637 22.9308 1.11749 0.973819 -0.228998
22.0663 14.798 26.6874 0.00212338 -5.02362 1.03702
17.2917 16.7147 25.8292 0.851581 -0.202521 -2.35046
15.5478 17.6286 27.7919 1.84219 2.14748 -1.02135
18.2959 17.2789 28.0413 -0.320962 1.95572 -1.08337
20.1161 16.5049 26.1994 1.4244 -2.0602 -0.0721671
20.9289 16.6159 28.7609 -1.26547 0.43775 -2.30611
23.9327 16.6152 27.8597 -2.4759 3.18504 -0.819831
26.2984 17.1448 26.6079 -0.10295 -1.16051 1.10147
13.7003 18.6294 25.9992 0.64187 -1.16861 1.41271
17.94 21.8889 27.0304 -1.74273 -2.59669 -0.544483
16.3068 19.7512 26.3788 -4.08966 2.15638 -0.691649
17.8551 19.9048 28.8315 1.62018 0.642297 2.68484
21.0936 21.4397 27.491 3.33726 1.55995 -1.17569
22.0347 18.5714 27.0757 0.608485 2.4683 1.12992
19.2244 19.2022 26.8024 -1.69236 2.39222 -4.49683
19.3977 22.0721 29.4024 -0.175366 -2.84627 -0.635115
20.231 19.3227 29.1152 2.07611 1.13231 2.01057
23.6771 20.8463 27.8911 -0.680908 1.05477 -0.803713
24.3737 19.0849 26.1019 -0.810225 -1.71492 2.49791
27.241 19.6975 26.1728 -0.338132 -0.955238 1.72946
15.2382 22.3782 26.8926 -1.7085 1.53049 0.0296978
18.5491 24.3867 28.1418 -1.86475 1.02024 -2.58783
19.8453 23.7004 26.2483 1.41299 -0.42598 -1.65486
21.2901 23.9735 28.4446 1.11165 -3.11129 1.49054
22.9455 23.05 26.5096 -2.31961 -0.00556735 2.84719
23.3729 25.8925 27.2452 0.660678 -1.11058 1.69648
25.5238 24.3521 26.4087 -3.01752 -0.267676 -1.04017
17.5199 26.3196 26.4942 0.7021 0.504813 1.89391
20.4549 26.1223 26.9686 -2.33028 -0.43155 -4.72554
ITEM: TIMESTEP
2000
ITEM: NUMBER OF ATOMS
237
ITEM: BOX BOUNDS ss ss ss
1.1634645512170037e+01 2.9557953252184568e+01
1.1174818666613671e+01 2.9527464293105137e+01
1.1261886142850930e+01 2.9640984121794720e+01
ITEM: ATOMS x y z vx vy vz
18.1452 14.9211 12.9879 2.07019 -1.37967 1.00439
16.4064 13.9709 15.257 -0.429636 -0.540325 -0.835124
18.7601 15.1554 15.4019 -0.792297 0.343368 -0.844211
20.8926 14.2942 13.3324 0.208589 -4.23883 -0.125887
23.3584 13.8121 14.1974 0.87117 -0.378511 -2.37935
15.7339 16.4809 13.8494 -0.712225 0.226626 -0.433828
13.2855 17.9892 14.6838 0.658601 -1.06396 -2.66801
13.8545 15.6582 15.9049 -1.60401 -1.73688 -1.57759
17.9757 17.3517 14.0499 0.0153371 -1.84773 1.0934
19.9132 16.4517 12.0899 -3.38326 -1.61612 -3.63523
17.3216 19.7418 12.9813 -1.64267 0.370119 0.118295
20.064 19.5317 13.2031 0.141458 1.34437 -3.51756
18.0417 20.1107 15.4003 0.155668 -0.139582 -0.433893
15.6635 19.0869 14.7342 2.7768 0.00760595 -0.0310408
20.9292 17.0374 14.552 0.172523 -1.85338 -0.0676387
22.5752 16.0662 12.4713 0.963802 0.436868 -2.29817
21.0171 19.6454 11.0467 -1.37859 -0.67965 -1.86984
22.736 18.9997 13.6161 -1.23307 3.1566 0.00214543
23.7386 16.2284 15.0859 1.39308 -0.687832 1.17852
25.2085 18.4659 14.1051 -1.20813 0.110673 1.22213
13.3425 20.608 14.7306 -1.8134 -1.56592 0.922795
14.6267 23.9572 13.5165 -0.266265 2.06439 -0.135459
15.7471 21.9701 14.6469 -0.587188 -0.494678 -0.658427
18.3088 22.4273 13.4758 0.266772 -0.540983 -0.261459
17.1456 24.6482 12.7153 0.565791 2.72138 1.83706
19.7961 24.9448 11.5518 0.224662 -0.343106 -0.984267
17.5817 24.4872 15.3423 0.318858 -0.707169 -0.220435
21.4601 21.7061 13.7966 -0.350834 -1.09497 -0.567454
20.1454 22.2475 11.4675 -0.476349 1.05442 1.77021
24.4527 21.0884 13.9097 -0.85068 1.38162 -3.34456
22.7996 21.3195 11.6481 1.09697 -2.22578 -1.66324
20.3068 24.2692 14.1961 -1.42023 -0.997434 -0.423737
23.4221 24.0585 14.7939 4.45345 1.92456 -0.806602
22.329 23.8556 12.1289 -1.21844 2.01408 1.5463
27.1404 22.3869 14.0614 0.952701 2.75059 0.042842
24.7863 23.1476 12.6918 1.30911 -0.158425 0.112951
18.8856 26.5999 13.7082 -0.234027 -1.85975 -1.50592
16.6562 26.6115 14.6204 -0.341355 -0.804243 0.0227634
22.093 26.1446 14.9542 2.10512 0.999012 1.52833
26.3695 24.5784 14.4841 1.93188 -1.02791 0.451804
14.7271 13.5236 17.1941 -1.45403 -1.65821 1.95705
14.4365 13.3394 19.9151 -0.0164669 -2.84312 -2.54631
14.4361 16.0734 18.7499 -0.696578 -0.84192 -1.38359
17.1213 13.9651 17.9938 -1.48996 1.12773 -1.18837
19.1785 12.9545 16.9634 0.82886 1.06941 1.54583
19.8112 15.1657 18.1881 -2.03666 3.03138 0.583102
16.1578 11.7139 18.929 -0.673571 -0.427215 -3.43692
19.5111 12.5857 19.7923 0.778869 -0.937899 -2.04523
21.6047 14.608 15.8599 -2.1623 -1.90988 -2.04768
24.3239 12.8425 16.3492 0.423004 -1.64058 0.259939
23.9779 14.916 17.6667 -0.147946 -2.34409 -1.20215
21.8387 13.007 18.3226 -0.314199 1.07666 0.77736
23.9114 12.0273 19.1771 -3.75844 -3.2072 -0.753732
25.9297 14.6545 15.7013 1.55647 -0.547361 0.324738
25.8639 13.217 18.2135 -0.701133 0.649123 -1.68048
28.0297 15.9194 17.7084 -0.876564 -0.386567 -0.470723
13.8159 18.3204 17.297 -1.23758 -2.17469 -3.13917
12.4904 17.787 19.9412 3.93566 -1.86743 -0.793704
15.1425 18.386 19.9479 -4.1874 -0.507346 0.305375
12.8314 20.5786 19.7516 -0.964005 2.51468 -1.62853
16.3537 16.6558 16.2648 -0.509199 -1.03148 0.298061
18.8359 17.9354 16.7342 -0.486395 0.714843 -0.909676
16.2048 19.3031 17.6043 0.0740076 -0.911596 -0.637726
19.3786 20.05 18.1048 -0.00867935 -0.797102 0.275454
17.4064 16.7114 18.7973 -0.750559 0.131879 -0.513776
20.0672 17.6094 19.5377 -1.81128 1.23448 -0.755226
17.834 19.3705 20.2032 -2.79001 -0.982331 0.126516
21.7042 16.9354 17.0794 -0.347937 1.14845 0.0270477
22.228 19.5461 18.4195 0.00965945 -0.199662 -0.0754842
21.2097 19.6207 15.798 -1.57987 1.00042 -1.47088
23.7 18.951 16.3134 -1.13637 4.12284 -1.03419
22.0376 15.4724 19.6744 -0.0245761 -0.249909 -1.04403
24.1166 17.6345 18.7772 1.00851 -1.69298 0.713489
26.3582 17.4285 16.2443 0.0568352 1.72653 1.29458
28.6779 18.4816 17.1536 1.55359 0.646198 1.44519
26.5788 20.1359 15.8742 2.54266 0.235747 -2.70631
26.3487 15.8133 19.6747 -2.39987 0.0488627 -1.60365
28.9887 17.4765 19.6031 -0.313141 -0.455717 -0.361408
26.7874 18.592 18.7363 1.05296 -1.04456 1.51303
29.7202 19.774 19.4146 2.55126 -0.891418 -0.0138552
14.2656 21.234 17.2017 -4.72903 -0.460795 0.374663
11.6558 19.8313 16.8395 2.25196 -1.16843 -1.88057
13.0112 23.0443 15.5528 0.279201 4.57488 -2.97476
15.03 24.529 16.3355 -3.17229 -0.235421 -0.575026
11.7112 21.9789 17.6673 0.737322 -0.0335857 0.653295
13.7067 23.5304 18.7512 0.284737 -1.26044 0.0446137
16.7737 22.5337 17.1192 -0.440073 1.74406 -0.357094
18.7418 24.2133 18.097 -0.946967 -2.03545 0.512225
19.6315 22.301 16.0379 -1.28527 -0.897146 -0.365729
15.5218 21.2281 19.7654 -1.28294 1.28392 2.14903
18.1723 21.9625 19.879 -2.34277 3.43616 -2.98386
16.1871 24.0759 19.3498 2.04682 1.4752 -1.15415
24.9177 20.8267 18.2041 0.471502 -2.97783 0.250842
22.5257 21.9718 16.6552 -1.48442 2.27887 1.02005
21.6372 24.5727 16.9683 0.0149173 -1.4908 0.304664
20.5866 22.3273 18.6998 -1.70516 -1.28407 -0.0157508
23.7702 23.5906 18.6124 -0.800433 0.314745 2.36601
28.6839 21.6293 16.0946 2.53836 0.787167 -2.4095
25.3191 22.8878 16.3097 0.93765 2.78277 -1.40778
27.6942 23.8322 16.7817 -1.48426 -0.230383 0.0418885
27.6582 21.4301 18.4695 5.1351 -4.26373 -1.35049
26.3481 24.4329 18.9909 1.15648 -0.852471 -1.02845
14.6181 25.8666 18.7199 1.34996 -0.409937 -3.326