ITEM: TIMESTEP
0
ITEM: NUMBER OF ATOMS
236
ITEM: BOX BOUNDS ss ss ss
1.1632767257224899e+01 2.9157231586629180e+01
1.1084165481656422e+01 2.9705835171127696e+01
1.1227819230097589e+01 2.9562180949637153e+01
ITEM: ATOMS x y z vx vy vz
17.2326 13.2539 15.2867 -1.02127 -0.639226 -1.4461
19.0512 14.4002 13.3702 0.640271 0.733639 0.30598
21.2533 13.8905 15.155 0.459341 1.2821 0.450448
23.0719 15.0368 13.2385 1.28931 1.06819 -0.19584
25.274 14.5272 15.0233 -0.672407 -0.099394 1.81472
14.5055 17.4298 15.1966 0.837764 0.154542 -1.57025
14.0513 20.0909 14.1933 -0.105312 -1.2777 0.623259
16.7783 15.915 14.2834 -0.139949 -1.13016 0.649487
18.5262 18.0664 15.0649 -1.08312 -0.280399 2.04607
16.3241 18.5761 13.2801 0.73001 -0.73747 0.6353
18.597 17.0613 12.3669 -0.826018 -0.881044 1.36175
20.3448 19.2127 13.1484 -0.596785 -0.619911 0.182938
18.1428 19.7224 11.3636 0.178175 -1.29429 -0.906248
20.7991 16.5516 14.1517 1.75904 1.03415 0.347739
22.5469 18.7031 14.9332 -0.823986 -0.45319 1.9784
22.6177 17.6979 12.2352 1.79678 2.26424 0.588191
24.3655 19.8494 13.0167 0.0734431 -0.953124 -2.08104
22.1635 20.359 11.2319 -0.60078 -0.41577 -0.674471
27.0219 16.6786 15.8048 0.435407 -0.519472 -0.140976
24.8198 17.1883 14.02 0.266468 -0.727472 1.41834
26.5676 19.3397 14.8015 0.90859 0.807086 1.21621
15.7991 22.2423 14.9748 -0.232017 -0.41712 0.0773569
15.3449 24.9034 13.9715 0.0933403 0.721094 1.23759
15.8699 21.2372 12.2768 1.04973 0.471035 0.751821
17.547 24.3938 15.7563 1.17792 0.375963 0.784949
18.072 20.7275 14.0616 -0.985056 -0.610186 0.229774
19.8198 22.879 14.8431 -0.315047 -0.168466 2.89816
17.6177 23.3886 13.0583 -1.05825 -0.137708 0.490954
19.8906 21.8738 12.1451 0.800894 0.656468 -1.68742
24.2948 20.8545 15.7147 -0.608587 0.0665664 0.474723
21.5677 25.0304 15.6246 -0.291116 2.12151 0.0911214
22.0927 21.3642 13.9299 -0.894095 -0.314096 0.821887
23.8405 23.5156 14.7114 -0.232014 -1.53965 0.360975
21.6385 24.0253 12.9266 -0.831334 -1.31651 1.57827
23.9113 22.5105 12.0134 -1.35891 -1.29746 0.200111
28.3155 21.4911 15.583 1.26757 -0.00663193 0.0246969
26.1134 22.0008 13.7982 -1.27002 -0.749091 -0.684695
17.0927 27.0549 14.753 0.0668306 -0.337104 1.98499
19.3656 25.5401 13.8398 -2.07949 1.46695 -0.329944
21.1135 27.6915 14.6213 0.919979 -0.139611 0.154914
23.3863 26.1767 13.7081 -0.497261 1.63709 -0.723711
25.5884 25.667 15.4929 0.01143 -1.65112 -0.225861
14.9597 14.7687 16.1999 -1.89075 -0.376804 -2.26817
15.3432 13.1127 19.9012 -0.0311308 -1.47535 1.16753
17.1618 14.259 17.9847 1.23207 -0.211292 0.645201
19.4346 12.7442 17.0715 -0.4509 0.00231665 -0.334384
18.9804 15.4053 16.0682 0.770403 0.177813 1.70058
17.616 11.5979 18.988 -2.45647 0.522825 0.622618
19.3639 13.7493 19.7695 0.204733 0.160156 -1.77377
21.1825 14.8957 17.853 1.18695 0.559234 1.07384
23.4554 13.3809 16.9398 -2.07837 -0.349644 -0.412327
21.6367 12.2346 18.8563 -1.50434 0.0906994 -1.13388
23.3846 14.386 19.6378 1.34168 2.51273 -0.709266
25.2032 15.5323 17.7213 -1.7719 0.460749 -0.25363
25.6574 12.8712 18.7246 -0.279925 -2.33806 -0.908962
27.4053 15.0226 19.5061 -0.404236 0.755586 -1.49193
12.6161 17.2886 19.8111 -1.66037 1.28409 0.160406
14.8889 15.7738 18.8979 -1.35285 -0.431098 0.289908
12.1618 19.9497 18.8078 0.909072 1.96309 -0.582396
12.6869 16.2835 17.1131 1.2611 1.5428 -2.17601
14.4347 18.4349 17.8946 -0.412107 0.236559 1.90439
12.2326 18.9446 16.1098 -0.208436 -0.642824 -1.82574
16.6368 17.9252 19.6794 0.922023 -0.288498 -0.309685
18.9096 16.4105 18.7662 1.03853 -0.767341 1.0184
16.7076 16.9201 16.9814 -0.417554 0.406931 -2.19629
18.4554 19.0716 17.7629 -1.37512 -0.552939 -0.80538
16.2533 19.5812 15.9781 -0.212917 -0.740458 -1.65678
20.2741 20.2179 15.8464 -0.116778 1.4537 1.02435
20.6575 18.5619 19.5477 0.041839 -0.511785 0.411727
22.9304 17.0471 18.6345 -1.39775 -0.637939 -2.27269
24.6782 19.1985 19.416 0.112287 0.368759 1.26306
20.7283 17.5568 16.8497 0.599867 0.604015 1.51429
22.4761 19.7082 17.6312 -0.0776216 -0.572019 -0.714991
23.0011 16.042 15.9365 -0.835919 -0.0022043 0.973467
24.749 18.1934 16.718 1.95454 -0.453142 -0.379036
26.9511 17.6837 18.5028 -1.70245 -1.13366 1.27175
28.6989 19.8352 19.2843 1.2345 -0.32439 0.42495
26.4968 20.3448 17.4995 0.31225 -1.28338 0.811029
28.7697 18.83 16.5863 0.374542 1.01407 1.42515
29.1532 17.1741 20.2876 3.20744 -0.651047 0.448803
13.9097 22.1011 19.5892 0.787578 -1.04629 1.56609
15.6576 24.2526 20.3707 1.72225 -0.752936 -0.158632
11.7076 22.6108 17.8045 0.326811 -0.303938 0.624389
13.4555 24.7622 18.5859 1.03562 -0.239145 -0.0230436
13.9805 21.096 16.8913 0.959601 1.44404 -0.28976
15.7283 23.2475 17.6728 -0.216223 -0.506399 -0.147257
13.5263 23.7571 15.888 -0.363324 0.109134 -0.299657
16.1826 20.5863 18.6761 -0.260906 -0.914149 -0.441757
17.9304 22.7378 19.4575 -0.00646797 0.875422 -1.02936
19.6783 24.8892 20.239 -0.789879 -0.0876186 -1.95767
20.2033 21.223 18.5444 1.04446 -1.54141 -1.87905
18.0012 21.7327 16.7596 -0.30286 -0.0604066 0.754487
19.7491 23.8841 17.5411 -1.15609 -0.455843 -1.60075
22.4054 20.7133 20.3291 2.16936 -0.31227 0.497892
21.9511 23.3744 19.3258 -1.33143 -0.553894 -2.04388
24.224 21.8596 18.4127 -1.65521 0.129023 -1.05735
22.0219 22.3693 16.6279 0.759852 -0.48607 1.75942
23.7698 24.5207 17.4094 0.975139 0.154575 0.98775
26.4261 21.35 20.1974 -0.460215 -1.1983 0.00191489
25.9718 24.0111 19.1941 -1.87151 2.10721 0.425394
28.2447 22.4963 18.281 0.0873021 -0.0950903 -0.292231
26.0426 23.0059 16.4962 -0.919867 0.264279 0.559269
15.2033 26.9137 19.3674 0.236113 1.2032 0.556769
15.2741 25.9086 16.6695 1.44311 -1.3276 -2.40495
16.9512 29.0651 20.1489 1.21141 0.505117 1.15862
17.4762 25.3989 18.4542 0.655316 -0.960359 0.897719
19.2241 27.5503 19.2357 -1.66247 0.930721 1.38964
17.022 28.06 17.4509 -1.01974 -0.0132404 1.25361
19.2948 26.5452 16.5378 -0.077037 2.35661 0.110492
23.699 25.5259 20.1073 0.182364 0.830236 -1.11207
20.9719 29.7018 20.0172 -0.667941 1.49188 -0.603006
21.4969 26.0355 18.3225 0.696745 -0.663817 2.37313
23.2448 28.187 19.104 0.0226866 -0.385235 -0.508127
21.0427 28.6966 17.3192 -1.11893 -1.26997 1.05743
23.3155 27.1818 16.4061 -0.126748 -0.887655 0.181941
27.7197 26.1625 19.9756 0.570301 2.50237 -2.89464
25.5176 26.6722 18.1908 3.65232 -0.654992 0.481205
27.7905 25.1574 17.2777 -0.835076 -2.11018 -0.221109
13.0703 14.6275 20.8144 1.22193 0.292334 -1.36032
12.9995 15.6326 23.5124 -0.159366 -0.66172 0.950223
15.2724 14.1178 22.5992 0.398426 -0.0214364 -0.27401
17.091 15.2641 20.6827 -0.782471 -1.3993 -1.36477
17.5452 12.603 21.686 -1.45572 0.18919 -1.43268
19.2931 14.7545 22.4675 1.21484 0.808677 -0.495168
19.8181 11.0882 20.7728 -0.487745 0.53366 1.93692
17.4745 13.6082 24.3839 -1.35627 -1.42684 -0.714258
19.7473 12.0934 23.4708 1.77104 -0.999249 0.607823
21.5659 13.2397 21.5543 -0.116188 -1.34525 -2.25931
23.3138 15.3911 22.3358 -0.688001 2.3239 -0.602301
23.8388 11.7249 20.6411 -0.303985 -0.581973 1.81259
21.4952 14.2448 24.2522 -1.01369 -0.674072 -0.427169
23.768 12.73 23.3391 -1.3073 1.10096 -1.29857
25.5867 13.8763 21.4226 -0.603227 -0.216727 0.649371
25.5159 14.8814 24.1205 1.40168 0.138871 -0.0977507
14.3639 19.44 20.5926 0.497934 0.433615 -1.30117
12.5453 18.2937 22.509 1.36169 1.92555 -0.733252
14.8182 16.7789 21.5959 0.109327 1.68048 1.87846
14.7474 17.7841 24.2938 -0.0967176 -1.03441 1.27845
18.3846 20.0767 20.4609 0.819111 -0.0329281 0.470854
16.566 18.9304 22.3773 0.794907 -0.33882 0.188233
18.8389 17.4156 21.4642 1.81641 -1.05202 0.574203
17.0202 16.2693 23.3806 0.348288 -0.634739 -1.41906
18.7681 18.4207 24.1621 1.86836 1.05841 1.57942
20.5867 19.567 22.2456 -2.95454 0.645345 -1.81803
21.1117 15.9008 20.551 -1.02352 0.341565 -0.663363
22.8596 18.0522 21.3325 0.584535 -1.12974 1.0987
24.6074 20.2037 22.1139 1.30503 -1.05201 -0.769827
21.0409 16.9059 23.2489 -2.23999 0.883863 0.453081
22.7888 19.0573 24.0304 0.112434 0.228123 0.662073
25.1324 16.5374 20.4193 -1.43366 -0.0506923 -3.30773
26.8803 18.6889 21.2008 1.38647 0.117541 1.90331
25.0617 17.5425 23.1172 -0.389241 0.282617 -0.559551
26.8095 19.694 23.8987 0.163436 0.55763 0.00815423
27.3345 16.0278 22.2041 -1.09806 0.802 -0.922431
29.0824 18.1792 22.9855 0.124437 -0.850324 -0.246002
27.2637 17.0329 24.902 1.12847 1.62448 1.04852
12.0911 20.9548 21.5057 1.1217 0.356507 0.75061
13.8389 23.1063 22.2872 0.885604 0.122486 -0.268439
11.6368 23.6159 20.5024 -1.25506 0.253018 0.251204
12.0203 21.96 24.2037 -0.00123644 -1.96335 -0.876936
14.2932 20.4452 23.2905 -0.101568 -1.8246 -0.513223
16.1118 21.5915 21.374 1.09368 1.01283 0.18396
17.8596 23.7429 22.1555 1.41531 0.47967 0.386758
20.1325 22.2281 21.2423 0.0733069 -0.208946 1.12088
16.041 22.5966 24.072 2.18214 -1.37868 2.15644
17.7889 24.748 24.8535 1.45993 -1.74947 0.839546
18.3139 21.0818 23.1588 0.755878 -1.30555 0.249469
20.0617 23.2332 23.9403 0.656085 2.10843 -0.660461
21.8804 24.3795 22.0238 0.374162 0.0168596 -0.414304
24.1532 22.8648 21.1106 0.886346 0.550802 -0.952261
22.3346 21.7184 23.0271 1.06373 -0.457805 0.742037
24.0824 23.8699 23.8086 0.562275 2.08064 -1.90803
20.5159 20.5721 24.9436 1.43804 -0.592873 -2.19817
24.5367 21.2088 24.8119 0.614711 -0.864161 -0.684911
25.9011 25.0162 21.8921 -0.882079 2.21848 -2.43655
28.1739 23.5014 20.9789 -2.92267 -1.77563 -0.22495
26.3553 22.3551 22.8954 -0.508008 1.78343 -0.0308453
28.1031 24.5065 23.6769 -0.36182 -0.550505 0.455755
28.6282 20.8403 21.9822 0.18142 0.614351 -0.890364
28.5574 21.8454 24.6802 0.943412 -1.18047 -0.0368115
15.5868 25.2577 23.0687 1.81143 -0.846706 -0.513233
13.3847 25.7674 21.2839 -0.242073 0.133252 1.47296
15.1326 27.9188 22.0654 1.05213 -0.640642 -1.33788
17.3346 27.4091 23.8502 -0.328019 1.6386 -1.72
19.6075 25.8943 22.937 -1.47738 1.21576 0.86489
17.4054 26.404 21.1522 2.43739 -1.18892 -0.692658
19.1533 28.5554 21.9337 0.210443 -1.98747 0.115511
21.3554 28.0458 23.7185 -0.179308 0.602474 0.152872
23.6282 26.531 22.8053 -1.17976 1.06025 -0.979246
21.4261 27.0407 21.0205 1.53775 0.0733054 -0.954266
23.174 29.1921 21.802 -0.0354949 -0.243712 -0.375489
21.8096 25.3847 24.7218 -1.09443 0.604519 -1.41713
25.4468 27.6773 20.8888 -1.3301 0.605316 0.594416
25.8303 26.0213 24.5901 0.41755 0.256471 0.29718
15.2016 15.123 25.2971 0.172348 1.5708 -0.747271
17.4037 14.6133 27.0819 0.446158 0.520103 -1.44325
19.6765 13.0985 26.1687 0.0606784 2.7684 -0.497326
21.4244 15.2499 26.9502 0.0215276 0.899112 0.663
23.6973 13.7351 26.037 2.25593 1.28392 0.146571
12.4745 19.2989 25.207 0.384843 0.809146 -0.057943
14.6766 18.7892 26.9918 0.649592 -0.706775 0.794881
16.4952 19.9355 25.0753 0.435402 0.167664 -0.979573
16.9495 17.2744 26.0786 -0.821088 -2.39246 -0.48583
18.6973 19.4258 26.8601 1.35932 -0.367952 0.275665
19.2223 15.7596 25.1654 -1.79836 -1.20428 0.624497
16.8787 18.2795 28.7766 -0.661713 2.56281 0.470749
19.1515 16.7647 27.8634 2.74048 -0.949318 1.26334
20.9702 17.911 25.9469 -0.380887 0.522013 0.275108
22.718 20.0625 26.7284 0.571084 0.880725 -0.677682
23.243 16.3962 25.0337 -2.41613 -2.14035 1.18827
20.8994 18.9162 28.6449 -1.49658 0.398663 -0.287265
23.1723 17.4014 27.7317 0.358355 0.450027 -2.67418
24.9909 18.5477 25.8152 0.34778 0.0899426 0.0742601
24.9201 19.5528 28.5132 0.00152972 0.200556 1.1039
25.4451 15.8866 26.8185 -1.48373 1.8393 -0.159199
13.7681 24.1114 24.9852 -0.640493 0.413796 0.751129
14.2224 21.4503 25.9885 -0.573233 -2.67841 -2.79317
15.9702 23.6017 26.77 -0.70794 -0.970029 -0.687573
18.2431 22.0869 25.8568 0.27446 0.762933 0.549873
19.9909 24.2384 26.6383 0.716405 1.90545 0.556016
16.4245 20.9406 27.7733 -2.61212 1.25518 0.419611
18.1723 23.0921 28.5548 -0.885179 1.29889 0.388023
18.6265 20.431 29.5581 -0.806131 0.412949 1.57667
22.2638 22.7236 25.7251 0.0134394 0.360789 -0.768609
24.0117 24.875 26.5066 1.28922 0.109106 -1.24686
20.4452 21.5773 27.6416 0.558981 -0.206218 0.90404
22.193 23.7287 28.4231 -0.0934346 -1.02312 0.659435
24.4659 22.2139 27.5099 1.40701 2.1694 1.18558
22.6472 21.0676 29.4264 -2.93444 -0.611795 0.37098
26.2845 23.3602 25.5934 -1.13259 0.993332 1.841
26.7387 20.6991 26.5967 -0.767502 -2.10409 -1.61156
15.516 26.2628 25.7667 -0.956881 0.324131 -0.113354
19.5367 26.8995 25.635 -0.430857 -0.775481 2.63878
17.7181 25.7532 27.5515 -0.615756 -2.74639 1.15333
23.5574 27.5361 25.5033 -0.94538 -0.261734 0.864726
21.7388 26.3898 27.4198 -1.10043 -1.92177 0.175582
ITEM: TIMESTEP
1000
ITEM: NUMBER OF ATOMS
236
ITEM: BOX BOUNDS ss ss ss
1.1632767257224899e+01 2.9157231586629180e+01
1.1084165481656422e+01 2.9705835171127696e+01
1.1227819230097589e+01 2.9562180949637153e+01
ITEM: ATOMS x y z vx vy vz
17.2505 13.5171 15.6271 -0.566577 -1.27654 1.00035
19.0716 14.6438 13.7994 1.1721 -2.2329 -1.98658
21.3227 13.8226 15.1442 0.464655 -1.90266 -0.488868
23.0246 14.9781 13.5119 0.244242 1.80568 -1.24944
25.2456 14.5051 15.1232 0.659774 -1.45484 0.261512
14.7885 17.4938 15.304 -3.03504 -2.05589 -1.92118
14.3565 20.041 14.3683 -0.273802 0.992564 1.50775
16.925 16.0122 14.4477 -0.717799 0.61592 0.800082
18.5861 17.9585 15.0298 -0.700101 -1.46974 -1.15905
16.4022 18.5525 13.3682 -1.04019 0.564079 -0.102318
18.6726 17.0352 12.5283 2.10045 0.610038 1.15517
20.4194 18.9813 13.0898 -0.157578 0.598578 1.17368
18.318 19.6134 11.6428 1.1282 0.523565 -0.21178
20.9475 16.4594 14.0064 0.270494 2.41063 1.23202
22.5642 18.6838 14.8636 -0.406156 -0.234949 -0.668443
22.6892 17.5672 12.4696 -0.165739 -0.416064 -1.17536
24.3412 19.8027 13.0002 1.84759 -0.628368 -0.543726
22.052 20.1081 11.5466 -3.3949 -1.82839 -0.591974
26.8084 16.6579 16.0422 0.417018 -1.0583 1.97345
24.7874 17.0884 13.913 -0.948129 -0.479505 -0.696888
26.452 19.245 14.831 1.03318 0.152438 -0.895279
15.764 22.2066 15.1493 -0.519815 -1.01439 -0.0541767
15.5819 24.8114 13.9597 -0.235952 -1.60699 -2.69284
16.177 21.1753 12.5393 -2.02175 1.49264 -0.694212
17.5668 24.3857 15.7574 0.241812 -0.329525 -0.736881
18.1517 20.711 14.1691 1.97062 1.51716 0.898696
19.8713 22.7763 14.9511 -1.44065 0.495582 0.743863
17.7252 23.343 13.1933 1.40037 0.784797 -1.8941
19.7541 21.7698 12.1093 0.0181885 -0.0100558 -0.0857419
24.2937 20.9277 15.4741 0.0345965 0.21509 -0.402278
21.4223 25.0034 15.7461 -0.678702 -0.128822 -0.387342
21.917 21.3209 13.9288 0.0509149 2.00658 0.00588088
23.8453 23.5771 14.8076 0.542539 0.569776 1.17914
21.6915 23.9083 12.9143 -1.09516 0.160536 -0.254879
23.8792 22.3158 12.4216 -1.93569 2.46435 -1.43746
27.9529 21.3596 15.7996 1.26512 -0.192821 0.422244
26.0497 21.9309 13.956 2.86757 1.39199 -1.85057
17.1756 26.9112 15.1715 0.7659 -0.158188 -0.923231
19.4137 25.6657 13.898 -1.42194 -0.301383 -1.47089
20.8519 27.7469 14.8658 -0.932219 -0.0403416 -1.04083
23.0931 25.9248 13.8946 0.243545 0.627626 0.129292
25.4013 25.6402 15.6328 -0.756812 -1.64308 -2.67309
15.1238 14.9167 16.3463 0.979857 -0.0696036 0.315534
15.2181 13.3435 20.0018 -1.51571 -1.16314 -1.48654
17.0998 14.3062 18.0069 0.227329 1.89121 0.52128
19.4143 12.8734 17.1738 1.22353 -1.34148 0.928378
19.1575 15.5004 16.3038 2.10622 -0.173683 0.273117
17.5049 11.9262 19.1739 -0.0336786 -0.1858 -2.1765
19.3073 13.7564 19.9128 0.53024 -0.383823 0.188125
21.3505 14.7938 17.8728 0.337405 2.36274 -0.332722
23.6076 13.3489 16.9403 -0.77681 -2.28511 -1.3229
21.673 12.3143 19.0553 -0.513003 0.31595 2.28369
23.4676 14.4219 19.549 -1.48172 2.41191 -0.546822
25.1645 15.502 17.6598 -1.07463 0.859508 1.53326
25.5527 13.2186 18.818 0.162651 -0.556479 -3.02109
27.2348 15.273 19.6261 2.02394 1.50181 -3.06054
12.6465 17.3517 19.7994 -1.15395 -0.697863 1.27993
14.8295 15.7961 18.7408 0.398909 -1.87061 -0.366591
12.3484 19.9531 18.6268 -1.77051 0.650552 -0.288261
12.8942 16.4519 17.1261 -0.282508 -0.120033 2.76125
14.3444 18.4562 17.9276 -0.421949 0.2283 0.842501
12.4993 19.006 16.1058 -1.07073 1.25548 1.47968
16.6448 18.0158 19.863 -0.103847 1.97558 0.393465
18.8152 16.5455 18.8335 0.524676 -0.302519 0.28891
16.6445 16.974 16.9444 -0.679919 -0.822845 -1.5374
18.4481 19.0389 17.5725 0.0923305 2.39249 1.01409
16.3063 19.5903 16.0155 -1.03831 -1.14628 0.80168
20.2955 20.2149 15.9945 0.418257 1.92271 -2.29055
20.6692 18.6748 19.5659 0.248912 2.27004 1.77247
22.8913 17.0702 18.5897 -0.608777 -1.82676 -0.29074
24.6193 19.19 19.4927 2.12539 2.4253 1.49552
20.7636 17.4971 16.9867 0.56456 -1.50526 1.31843
22.5879 19.6531 17.5102 -0.517432 -0.427579 1.24591
23.1133 16.0343 15.9102 1.67129 -2.10463 0.115295
24.726 18.1156 16.706 0.128297 -0.319048 -0.457159
26.9142 17.6751 18.523 -1.34419 -1.75175 -1.64407
28.5653 19.8844 19.1747 0.831684 -0.760002 0.635488
26.3271 20.3843 17.4998 0.0348278 -0.162683 -0.0108344
28.4918 18.8591 16.682 2.21146 -1.20853 -0.929202
28.9037 17.397 20.1865 1.44872 1.36497 -1.03773
13.8694 22.0781 19.5139 2.2654 -0.601266 1.14248
15.4551 24.4018 20.4012 -1.97778 2.03366 -0.414176
12.0778 22.62 17.7146 -1.26403 -0.574226 -1.24767
13.3989 24.7725 18.4187 -0.756995 1.49441 -0.781575
14.0999 21.0876 16.8275 1.64584 0.692214 0.189955
15.6389 23.3549 17.6201 -0.467107 0.574984 0.631662
13.7504 23.78 15.8203 -0.326085 -2.37738 -1.3536
16.2984 20.4564 18.7345 -1.87691 -2.6359 -1.54881
17.8353 22.7805 19.3142 3.24255 -1.01893 -0.236158
19.5683 24.6257 20.2775 0.467785 0.341709 2.07506
20.2348 21.2234 18.6143 2.33385 -1.43032 1.88388
18.0778 21.7178 16.8082 -0.0831763 1.21273 -1.53605
19.7019 23.7386 17.4817 -0.569092 -0.12767 -2.40894
22.4691 20.8298 20.1951 -0.481927 0.418294 -1.66302
21.972 23.4965 19.3643 -1.27788 0.983114 -1.78473
24.2077 21.9158 18.2433 3.6724 -2.16074 0.210556
21.9337 22.3219 16.7121 -1.50179 1.06304 0.601788
23.7668 24.6064 17.4278 -0.401213 2.44371 -0.499658
26.2697 21.3977 20.1858 0.378418 -1.24136 -1.42988
25.8769 23.9639 19.2284 -1.06151 -0.609632 0.572366
28.0479 22.5484 18.248 1.40794 0.748717 0.0577714
25.8948 23.068 16.4503 -1.65243 0.377322 0.0404252
15.2943 26.934 19.387 -0.523538 -0.799665 -0.232459
15.3005 25.9517 16.6967 -1.18354 0.299923 -0.735606
17.0793 28.771 20.2031 -0.00604429 3.23603 -0.674749
17.5064 25.4262 18.4484 -0.596214 0.583416 -1.70542
19.3227 27.5668 19.3208 1.02253 -1.56532 0.770988
17.2133 27.9084 17.6055 2.40565 1.20186 -0.50227
19.2923 26.6772 16.6593 -0.261087 0.711073 2.31555
23.7743 25.6523 20.1929 0.544807 1.61407 -0.0474345
20.9644 29.3515 20.2124 -3.0481 -0.125098 -0.906358
21.3974 26.1058 18.3877 1.92622 1.39368 -0.258377
23.1167 28.0942 19.3202 -0.67482 0.100555 0.829684
21.049 28.4911 17.4065 -1.58976 0.601505 1.04127
23.2741 27.1474 16.4328 -0.0966708 1.6123 1.11981
27.3659 26.0726 20.0375 1.35248 -0.531751 0.448223
25.4039 26.6275 18.1898 0.74529 -0.75236 -1.08707
27.5155 25.1088 17.343 3.26172 -1.44927 -0.277222
13.2792 14.8303 20.7163 -0.945362 1.08893 0.518182
13.1071 15.8731 23.493 -2.56609 0.524697 1.73305
15.2881 14.3243 22.5367 -0.986539 0.0231361 -1.24174
16.9452 15.162 20.6777 -0.719895 -0.550993 0.796792
17.4873 12.6504 21.8225 0.864125 -1.00632 0.0577749
19.381 14.7328 22.4125 -1.07523 -2.56413 2.65305
19.8066 11.4333 21.0097 2.44517 -1.99321 0.0478314
17.5294 13.7921 24.3671 1.30033 -2.72474 0.488598
19.8175 12.3379 23.4419 -1.13888 0.376822 -0.349388
21.7581 13.0855 21.6173 0.769517 1.19938 -0.854663
23.3614 15.3346 22.2563 -0.570364 -1.58095 -1.05168
23.7918 12.0073 20.6674 -0.451234 -1.46753 0.063536
21.5096 14.2914 24.1167 0.861227 0.731509 0.390621
23.833 12.9336 23.2267 0.804633 -1.27894 -0.552185
25.5667 14.0435 21.3244 0.586959 0.498098 0.299153
25.5566 14.8372 24.0926 0.548628 0.877189 -0.0475558
14.379 19.5903 20.6644 0.253896 1.71159 0.313215
12.6186 18.3338 22.4242 1.26706 -0.142781 -1.76535
14.8422 16.8342 21.5282 -1.13889 1.23371 -1.55677
14.6682 17.8796 24.2527 0.345976 -0.206739 -4.10744
18.4897 20.0851 20.4114 -0.469339 0.530022 -1.32169
16.6071 19.0052 22.3731 -0.773458 0.43451 -0.00794785
18.966 17.4937 21.4479 1.17987 0.247825 -0.274628
16.9775 16.4401 23.4544 -1.5129 -0.815965 1.07139
18.9683 18.3963 24.087 1.05578 0.761806 1.79511
20.724 19.514 22.1862 0.480446 -0.12813 -1.73989
20.9717 15.8773 20.361 0.175999 1.37291 -3.05117
22.835 18.0809 21.2439 -1.21003 1.09192 1.57705
24.5626 20.1848 22.098 1.95957 -0.210053 0.0805099
21.0959 16.8942 23.1511 -0.37109 0.728959 2.36041
22.9248 18.9878 24.0545 -0.497255 -0.859477 1.0748
25.1742 16.6262 20.2882 1.56037 -0.19903 -0.638542
26.936 18.8165 21.2008 0.350052 1.58313 -1.28636
25.1321 17.5763 23.1701 0.114738 -1.20803 1.1965
26.8595 19.5332 23.9296 -0.983047 -1.09781 1.157
27.3141 16.1716 22.1894 -0.0464928 -1.37061 1.42182
28.8824 18.2821 22.8568 1.79445 0.326104 0.122387
27.204 17.0629 24.7939 -1.55088 -0.822358 -0.875156
11.9119 21.0484 21.6446 -1.2047 0.283638 1.00352
13.6825 23.1757 22.1937 2.31705 1.24644 -1.2833
11.8794 23.6701 20.4321 -0.796739 -0.195918 1.43458
12.4673 22.0413 24.1648 -1.21378 -0.723751 -0.647612
14.2339 20.4279 23.2013 1.09934 0.385354 0.131055
15.9692 21.6541 21.2561 -0.768991 -1.17127 -0.46979
17.854 23.8 22.1899 -0.430925 1.38365 1.23006
20.0974 21.9733 21.361 0.823389 -2.95607 0.441239
15.8249 22.7419 24.0239 0.67507 1.07242 2.61134
17.7527 24.6842 24.9108 -1.33343 1.85879 -0.316306
18.0884 21.201 23.0296 3.08258 -2.07439 -2.14632
20.2275 23.1856 23.7947 -1.36002 1.56869 -0.348157
21.7921 24.2179 22.0238 -0.071347 -0.572514 -1.31891
24.0901 22.8691 21.0718 0.384366 -1.89877 0.337314
22.5146 21.5026 23.1344 -0.618308 -0.879064 -0.654553
24.1314 23.9862 23.9363 0.95971 0.577631 -0.541913
20.575 20.5551 24.6718 -0.871425 -2.11632 -0.922316
24.6844 21.0445 24.9219 0.425611 -1.1118 1.10079
25.9426 25.093 22.0795 -0.296314 0.231396 -0.479096
28.127 23.4855 21.0051 0.240625 -1.30232 -1.63255
26.3126 22.2544 22.8985 -1.33911 -0.288134 -0.577389
27.8615 24.3917 23.5385 1.2574 1.62557 1.25628
28.6171 20.7588 21.9256 1.46282 0.678651 -1.2972
28.4364 21.6419 24.4833 0.865945 -3.51881 -0.422989
15.3495 25.2373 23.1085 0.332259 -2.63639 0.418263
13.4509 25.7741 21.1969 -0.444032 -0.811864 -0.109832
15.0782 27.6797 21.974 -0.960689 -0.413584 -1.60714
17.1764 27.3205 23.8504 0.271791 1.03296 -0.61904
19.6095 25.8126 23.0803 -0.0651748 -0.914651 -0.154291
17.3808 26.3374 21.3302 -0.383356 -0.201493 -0.42024
19.1691 28.5156 21.9186 0.515412 1.08188 -0.13548
21.3334 27.8806 23.7241 -0.47559 1.75347 1.60584
23.7851 26.4816 22.8572 0.126922 -1.0513 1.94749
21.3538 26.8219 21.1829 -1.61648 -2.47163 1.21623
23.2615 28.7501 21.7666 -1.03675 1.35894 3.21881
21.7209 25.3395 24.8251 0.200979 0.291172 -1.94455
25.3617 27.6976 20.8754 1.39498 1.03151 2.09336
25.6688 25.8452 24.5932 1.17659 1.35068 -1.1537
15.3668 15.3194 25.1116 -0.38265 0.346271 -0.344069
17.2939 15.0517 27.028 -0.322112 0.516663 -1.23349
19.7516 13.2672 25.9769 1.29268 0.895135 0.051865
21.4158 15.0199 26.8699 0.37181 1.07011 2.46209
23.5112 13.7633 25.5639 -1.30947 0.809322 1.77164
12.691 19.2472 25.1896 -2.17177 -0.526458 1.50516
14.6532 18.8649 26.7493 -1.68006 0.777566 -0.011525
16.4272 19.8804 24.9756 -0.872391 -0.664409 2.05652
16.779 17.3374 26.0572 0.41972 1.32818 -0.690066
18.7608 19.3783 26.7758 0.483993 -1.92822 -2.21388
19.2308 15.7216 25.1212 0.94509 0.612425 1.0365
17.017 18.3106 28.5307 0.132737 -1.60651 2.48667
19.1035 16.7633 27.7662 1.2884 -0.0655671 0.611476
21.0516 17.7764 25.8178 0.25962 -0.054368 -1.64033
22.593 20.0636 26.6459 -1.55568 -0.914608 -0.777588
23.3078 16.3947 24.957 -1.08079 0.754941 0.118436
20.7949 18.9893 28.5237 -1.35003 0.180973 1.55382
23.2566 17.5266 27.4942 -0.0636732 -0.492192 0.713499
25.0547 18.5671 25.757 -0.921163 -0.410231 0.54864
24.9098 19.6898 28.0521 1.41313 -1.71257 1.03385
25.4604 16.1985 26.6919 0.769965 0.127168 3.30309
13.8904 24.113 25.0536 -1.10964 1.69226 -0.411951
14.3 21.3837 25.9738 -1.5357 -0.741031 0.636276
16.0708 23.392 26.8065 -1.25125 -0.643229 -0.649138
18.1637 22.0945 25.8785 -1.71666 0.555543 2.68993
19.895 24.0943 26.5747 0.785076 -2.87697 -1.56559
16.5636 20.7964 27.6718 -1.29187 1.71559 2.04293
18.1078 22.9413 28.2944 0.3549 0.91345 1.44233
18.7813 20.5709 29.258 3.60584 -0.123758 1.43889
22.4309 22.6452 25.8331 0.152372 0.652635 0.511486
23.9747 24.8211 26.5874 0.453487 0.34518 1.70579
20.3907 21.6346 27.5473 0.357305 2.46004 -0.113572
22.2507 23.7081 28.1563 -1.45368 -1.28869 -0.214483
24.5517 22.2232 27.4302 -0.334642 -0.248922 -1.55934
22.5075 21.3605 28.9902 -1.67092 -0.979594 1.43616
26.2737 23.2395 25.363 0.235126 -0.432728 0.892685
26.7259 20.7458 26.3625 0.360988 -0.638898 0.624329
15.6576 26.0801 25.6238 0.604532 0.862731 0.184314
19.39 26.7678 25.7102 -1.63242 -0.209647 0.13876
17.7791 25.6332 27.4054 -0.206246 0.852797 2.19551
23.4421 27.2975 25.3009 1.05957 2.28384 -1.7129
21.6315 26.1373 27.3609 -0.663191 2.27222 1.12279
ITEM: TIMESTEP
2000
ITEM: NUMBER OF ATOMS
236
ITEM: BOX BOUNDS ss ss ss
1.1632767257224899e+01 2.9157231586629180e+01
1.1084165481656422e+01 2.9705835171127696e+01
1.1227819230097589e+01 2.9562180949637153e+01
ITEM: ATOMS x y z vx vy vz
17.5684 13.6738 15.5603 -0.37301 -0.96318 0.565468
19.1309 14.4785 13.6876 2.11005 -0.429729 -2.76101
20.9374 13.8496 15.4052 1.50139 0.355079 0.376315
23.1908 15.3595 13.6171 -2.02095 0.990242 0.451443
25.2355 14.9247 15.1866 2.76224 -0.418158 0.834349
14.4453 17.2715 15.1107 1.22294 1.15106 1.60551
14.2035 19.9298 14.1163 0.664039 1.45519 1.05063
16.7745 15.9879 14.299 -0.0541434 -0.270916 2.06462
18.4549 18.1647 15.0673 0.643784 1.33351 0.389966
16.2156 18.4768 13.2153 0.451065 0.967796 0.545678
18.5593 17.1826 12.6167 0.942291 -1.55021 0.248773
20.3324 19.3314 12.9745 0.0258068 2.1844 1.13752
17.9259 19.7923 11.6412 0.539154 1.48983 -0.185572
20.8762 16.4092 14.1062 -1.67574 -0.624623 -1.87207
22.4878 18.6093 14.8581 -0.633967 -1.63122 -0.355299
22.7364 17.9261 12.348 1.02926 -0.223813 2.36924
24.5088 19.9473 12.9215 -1.14836 2.04704 0.709299
22.2691 20.4723 11.4353 0.431468 0.155895 -0.686831
27.0745 16.878 15.8562 0.237435 -0.592263 0.00855691
24.9326 17.2826 14.0325 0.473004 0.464477 2.21184
26.6859 19.3944 14.6793 0.0523544 0.779694 2.29437
15.7203 22.197 14.9506 1.22671 -0.151505 0.19875
15.4676 24.7062 14.4992 -1.79155 -1.2124 -0.361365
15.9706 21.2026 12.6628 -1.95532 0.398988 -0.865236
17.6506 24.2508 15.8255 -2.01058 -1.60544 1.13458
18.0236 20.7437 14.1322 -1.60119 0.330269 2.3051
19.7394 23.0159 14.7826 -0.456937 1.00634 -0.87659
17.5905 23.4154 13.1394 0.122468 -1.6753 2.29749
19.6681 21.9045 12.302 -0.519199 -0.111841 -1.30013
24.3171 20.824 15.5274 2.21709 -0.747856 -1.28758
21.6222 24.9814 15.6475 -1.19822 -1.57154 -0.882841
21.9911 21.3831 13.9786 1.05831 -0.839555 -1.40655
23.9598 23.5986 14.5842 -0.256046 -0.142435 2.08468
21.5633 23.8004 12.9255 -1.14853 -0.943534 1.61326
23.6503 22.3636 12.1756 0.599759 -0.778688 0.791844
28.0834 21.5167 15.8317 2.13765 1.33226 0.840101
26.1548 21.9957 13.9385 -0.621273 -1.14725 0.42357
17.0932 26.774 15.0596 0.138323 0.414382 0.812114
19.3635 25.4765 13.8279 -0.989005 0.204039 0.114566
21.1649 27.4744 14.8819 -2.71601 1.14095 0.92897
23.2219 25.8401 13.7875 1.15583 0.869322 -0.483959
25.3328 25.7198 15.6019 0.992637 -1.53844 -1.26183
14.9816 14.7717 16.3164 0.0147828 1.73854 0.357704
15.4114 13.026 20.1525 1.40035 0.223283 -0.0144718
17.1549 14.2716 17.9832 -2.73357 1.54821 -1.4792
19.3836 12.6596 17.4101 0.0621658 -0.00934464 -0.0569026
19.1763 15.5433 16.1247 1.67635 0.869354 -0.914249
17.5253 11.7044 19.0241 -1.48279 0.336608 -1.33575
19.1953 13.9411 19.6245 -0.693053 -0.0380117 -0.00744028
21.2978 14.7119 17.8265 -0.0668617 0.858883 0.214786
23.2802 13.5528 16.7838 0.67722 0.609714 -0.679868
21.6763 12.2184 18.7588 -0.483358 0.178096 1.36103
23.2991 14.413 19.7748 -0.205662 1.42109 2.22674
25.2171 15.5887 17.7567 -1.13978 -0.0206377 0.503433
25.1498 13.1771 18.6715 -0.617167 -0.430814 -0.91822
27.4531 15.0088 19.7122 1.06443 0.22797 -0.100487
12.5562 17.4158 20.0504 0.377649 -1.99144 -1.90265
14.901 15.7853 19.0562 0.78649 -2.52356 -1.67195
12.3147 20.1371 18.8351 1.78143 -0.756133 -1.01213
12.8712 16.5665 17.5465 -0.966389 0.558998 -0.799881
14.591 18.3773 17.7701 0.534042 0.63113 0.739738
12.5445 18.7938 16.2199 0.583354 2.2189 -1.67883
16.6121 17.8749 19.6284 0.120283 -1.99392 -0.612152
19.0342 16.5569 18.6551 -0.634228 0.93855 0.50211
16.7751 17.0304 16.9137 -0.685737 -0.661397 0.156745
18.5408 18.973 17.6861 0.0579238 0.0597031 -0.354361
16.2312 19.5617 15.8497 1.40703 -0.221567 2.22415
20.3863 20.1658 15.6901 0.338055 -1.48599 0.264526
20.8218 18.6991 19.5109 -0.213503 -0.0938348 0.981874
22.9238 17.0808 18.5165 0.38661 0.232794 1.21629
24.5219 19.1147 19.3792 -1.9051 -0.0402683 0.535908
20.8294 17.517 16.7753 -1.02851 2.48995 1.23184
22.6261 19.7909 17.5617 -2.00738 -1.37161 1.00433
22.9286 16.1685 16.1313 0.164392 -1.07349 -1.12628
24.8312 18.2618 16.6934 -0.890575 0.226862 -0.904504
27.006 17.7772 18.5883 -0.689236 -2.53377 -0.201056
28.5569 19.6549 19.53 -0.263964 -1.22842 -0.649923
26.3022 20.2347 17.6448 -0.899292 -1.27388 -0.293578
28.4005 19.0381 16.8121 -1.08759 -1.65155 1.84129
28.8638 17.2718 20.4453 -0.89732 1.04281 0.546566
13.8925 22.0797 19.6223 0.735793 0.744973 0.67332
15.5811 24.1743 20.4096 -0.50057 0.0990125 0.200138
11.8817 22.6784 18.0206 0.965986 -0.495076 -1.88263
13.4002 24.6675 18.7548 2.0206 -0.726001 1.18313
13.9418 21.0514 16.8887 -3.48373 -0.895292 0.29595
15.6538 23.2873 17.6972 2.27601 -0.685034 -1.27307
13.4144 23.792 16.1527 -0.951322 -0.616275 1.29735
16.0205 20.4727 18.6406 -0.0110609 0.639103 -0.981606
17.8946 22.6776 19.4667 0.736892 -1.88885 0.697254
19.7603 24.9074 20.007 -1.46321 0.220734 0.298088
20.2276 21.2079 18.4561 0.815678 -0.968675 1.95891
17.9222 21.6446 16.9242 -1.53953 -0.720282 -0.505696
19.867 23.9031 17.3497 1.06252 0.42995 -1.19298
22.4079 20.794 20.3866 -0.975355 1.48458 0.0174123
21.9562 23.445 19.295 -0.690138 0.424513 0.811465
24.2267 21.8639 18.5237 -0.932659 -1.45479 1.45846
22.165 22.4007 16.5037 -0.0359641 2.01032 -0.215946
23.7614 24.4791 17.4334 0.122722 -0.567437 -2.63232
26.4064 21.351 20.2778 -0.678014 1.62767 -1.14085
25.8443 23.9669 19.3664 -0.278714 -0.181888 1.69315
28.1291 22.4184 18.5415 -2.08737 0.806587 0.119951
25.9998 22.9233 16.5124 -0.150843 -0.268697 1.04092
15.2702 26.8527 19.3059 0.753605 -1.02678 0.256716
15.0093 26.0026 16.7707 -1.01265 -1.74771 -0.349881