ITEM: TIMESTEP
0
ITEM: NUMBER OF ATOMS
236
ITEM: BOX BOUNDS ss ss ss
1.1697092066495500e+01 2.8926832401944893e+01
1.0781642676183710e+01 3.0000355517361026e+01
1.1650257556099278e+01 2.9289473814151151e+01
ITEM: ATOMS x y z vx vy vz
19.7332 13.1276 15.6275 1.31159 0.158401 -0.275835
19.462 14.2986 13.0103 1.00326 1.66595 0.85059
22.536 13.9942 15.7248 -2.47563 -2.08346 0.989891
15.7032 18.3433 13.6248 2.98846 -0.680757 0.373604
15.0065 15.578 14.0443 2.70389 -0.832563 1.38881
13.3538 17.7239 15.1756 -0.0359502 0.964088 0.822179
18.3237 17.7917 14.6911 -1.1166 -0.427441 1.96222
20.1587 17.0639 12.5908 1.13594 -0.985205 -0.905172
17.627 15.0264 15.1106 1.12516 2.5443 -0.752476
17.3559 16.1974 12.4934 -1.69024 -0.00518814 -3.3782
23.2327 16.7595 15.3053 0.552283 2.13934 -2.14048
22.9616 17.9304 12.6881 0.372698 0.33056 0.0469805
20.4299 15.8929 15.208 0.448589 -1.08209 0.989167
22.2649 15.1651 13.1076 0.25917 0.170247 -0.148435
26.0356 17.626 15.4026 -0.262637 -1.321 1.11023
25.3389 14.8607 15.8221 0.599563 0.96688 -0.94965
25.0677 16.0316 13.2049 1.40256 2.2771 0.895189
14.0505 20.4893 14.7561 -0.310426 -0.499893 1.31371
19.0204 20.5571 14.2715 0.172937 -1.88457 0.150407
18.7493 21.728 11.6543 0.888688 1.75109 -1.92879
18.0526 18.9627 12.0739 -0.93535 0.112342 0.433457
16.6711 19.9377 15.8224 0.64782 0.761302 1.18636
16.3999 21.1086 13.2052 0.972937 -0.0350275 -0.0296251
21.8233 21.4236 14.3689 -1.38909 0.457989 0.404729
23.9294 19.5248 14.8857 -0.518151 0.0498646 0.690221
23.6583 20.6957 12.2685 -1.40764 -0.327356 -1.6918
21.1266 18.6583 14.7884 -0.369847 1.5251 0.983449
20.8554 19.8292 12.1712 0.473944 -0.399515 1.69786
25.844 21.4784 13.9769 0.640974 -1.15419 0.154911
25.7644 18.7969 12.7854 -1.05004 -1.22579 -1.44919
28.0298 22.2611 15.6852 -0.877749 -2.23072 -0.586423
27.9502 19.5796 14.4937 -1.51968 -1.25944 -0.849038
14.7473 23.2546 14.3365 -0.0773514 -0.206092 -0.271659
12.3979 22.6352 15.8874 -0.463967 -0.348247 0.429019
19.7172 23.3224 13.852 0.29507 0.604517 -1.10563
17.3678 22.703 15.4029 0.727359 -0.183441 -0.0984913
17.0966 23.874 12.7857 0.589668 0.091634 0.661476
18.8781 26.0668 13.5822 1.96138 -0.243637 0.580224
16.5287 25.4474 15.1331 0.0718726 0.851783 -1.02391
21.9029 24.1051 15.5603 -0.0749996 0.389455 1.18917
21.6317 25.276 12.9431 -0.683209 -1.1617 -0.0965867
21.5522 22.5945 11.7517 -0.408679 0.356984 1.60678
23.8175 26.0587 14.6515 0.86802 -0.0619601 0.0977029
23.7379 23.3772 13.46 0.469115 -0.818031 0.892421
25.9236 24.1599 15.1683 1.45211 -1.60274 0.779892
18.3102 27.6402 15.9296 -1.8384 0.130985 -0.983294
21.0638 26.8494 15.2905 0.0792185 -1.29591 0.755993
15.5488 13.2361 19.2787 -0.609954 0.470761 1.64922
15.2777 14.407 16.6615 0.439604 0.620768 -1.30102
18.1693 12.6845 20.345 -0.21015 -0.642397 0.220116
17.8982 13.8555 17.7278 -1.69191 0.0984863 -1.15581
20.0043 11.9567 18.2447 -1.36819 1.10339 -1.45691
20.9722 13.551 20.4424 0.137185 0.172365 -1.84475
22.8072 12.8232 18.342 -1.03584 -0.633276 -0.606624
25.61 13.6897 18.4393 -0.319718 0.588459 0.0271419
15.9744 17.1724 16.242 -0.595794 0.709661 -1.54886
14.5928 18.1474 19.9905 -0.532451 -0.90763 -0.474994
13.8961 15.382 20.41 -2.71406 -0.630037 0.428978
13.625 16.553 17.7928 0.0378524 2.81808 -0.318327
19.5627 18.2152 19.5059 1.75688 -0.685595 -0.080047
18.866 15.4498 19.9255 0.419702 0.723739 0.330727
18.5949 16.6208 17.3083 1.50611 1.04385 0.350453
16.2455 16.0014 18.8592 -0.436663 -2.40911 -0.942616
24.4717 17.1829 20.1201 0.69388 0.227241 -1.59488
24.2006 18.3538 17.5029 -0.393456 -0.650531 -1.7037
21.6689 16.3164 20.0228 -0.323916 -1.10187 0.652079
21.3977 17.4873 17.4056 -1.30353 -0.231434 2.02931
23.5039 15.5885 17.9225 1.08931 -0.423127 0.536949
20.701 14.722 17.8252 -1.12807 0.373132 -0.754266
26.3067 16.455 18.0198 -0.797784 -0.221974 0.542915
28.4924 17.2377 19.7281 0.726992 -0.135217 0.624793
28.2213 18.4087 17.1109 0.038711 -0.934732 0.357588
15.2895 20.9127 19.5709 -0.764079 -0.0876876 -1.81274
15.0184 22.0837 16.9537 1.53358 0.0925534 -0.829466
12.669 21.4643 18.5046 -0.302437 -1.22953 0.998117
14.3217 19.3183 17.3733 -0.474658 -2.66851 1.34744
11.9723 18.6989 18.9242 2.26586 1.25663 0.314679
11.7012 19.8699 16.307 -1.51577 1.83211 -0.0138122
20.2594 20.9805 19.0864 -0.204882 1.71307 -1.67296
19.9883 22.1514 16.4692 -1.83294 1.43768 0.38095
17.6389 21.5321 18.0201 -1.51744 -0.345321 0.524404
19.2916 19.3861 16.8887 2.43887 -1.10344 -0.637246
16.9422 18.7667 18.4396 0.0390012 -0.795292 1.41101
22.3656 19.0817 19.6033 -1.7981 -1.20595 1.06717
22.0944 20.2526 16.9861 1.11009 -0.376083 0.196586
24.2802 21.0353 18.6944 0.843152 1.55313 -0.253176
24.009 22.2063 16.0772 -0.369573 -0.382171 -0.132507
26.4659 21.818 20.4027 -0.0433251 -1.71602 -0.531323
26.3863 19.1365 19.2113 0.0622928 1.79974 1.83136
26.1152 20.3075 16.5941 0.714656 -0.204553 0.115669
28.3009 21.0902 18.3024 0.152227 1.72139 -0.826266
14.4505 23.6571 19.3011 0.509397 -0.725016 0.948903
14.1793 24.828 16.6839 -1.24364 -0.578482 0.520459
11.8299 24.2087 18.2348 0.826069 1.93774 0.848059
19.4204 23.7248 18.8166 0.897454 -0.737606 1.146
19.1492 24.8958 16.1994 -0.135782 -0.462546 0.516004
17.071 23.1055 20.3675 1.00482 -1.56256 -1.74818
16.7998 24.2764 17.7503 -1.41035 -0.554085 -1.93545
16.2319 25.8499 20.0976 -1.07485 -0.905662 1.61551
22.174 22.9341 18.1775 -1.55345 -0.638234 -2.33146
21.335 25.6785 17.9077 1.75933 -0.483027 -0.414312
24.3597 23.7168 19.8859 0.244903 0.919212 1.18865
24.0886 24.8878 17.2687 0.192378 -0.14588 0.768533
26.2743 25.6704 18.977 0.040474 -1.80262 -0.790005
26.1948 22.989 17.7855 2.21033 -1.25022 2.1215
28.3805 23.7716 19.4939 0.114752 -0.904556 -0.602574
28.1093 24.9426 16.8767 0.65761 -0.526856 0.777624
15.9608 27.0208 17.4804 -0.879738 -0.625013 0.412251
13.6114 26.4014 19.0313 1.86732 1.08942 1.90635
15.3928 28.5942 19.8278 -1.57634 0.218868 -1.07887
18.5813 26.4692 18.5468 -0.223119 -0.590442 -0.618145
17.7422 29.2136 18.2769 -0.189399 -1.01426 -1.96455
19.928 29.9963 19.9853 0.672739 -0.895157 -0.625094
20.767 27.2519 20.2551 0.853596 0.498522 0.939546
20.4959 28.4229 17.6379 -1.29313 -0.0924272 0.656047
23.5207 26.4612 19.616 0.594464 0.654036 -1.68437
23.2495 27.6321 16.9988 -1.07557 -1.30385 1.56567
22.6816 29.2055 19.3462 -0.774132 2.3247 -0.580976
26.0032 26.8414 16.3598 -0.634622 0.59823 0.819166
25.4353 28.4148 18.7072 -0.487013 -0.580034 1.75297
15.8199 12.0651 21.8959 -0.430676 2.60588 0.563225
14.1673 14.2111 23.0272 -1.23878 0.363422 -0.208454
19.1371 14.2789 22.5427 3.77469 -0.766049 0.289449
18.4405 11.5136 22.9622 -0.322053 1.67715 -0.245331
16.7878 13.6595 24.0936 1.51674 -0.0288739 1.77462
20.2754 10.7857 20.8619 -0.578181 -2.16923 -1.89325
24.0461 13.2466 23.1569 1.91262 -1.05652 0.413015
23.775 14.4176 20.5397 -2.90234 0.663208 -2.00607
21.2433 12.3801 23.0596 -2.49471 0.516753 0.578492
23.0783 11.6522 20.9592 1.78897 -0.978095 0.452532
26.849 14.1131 23.2542 0.876 2.11488 -0.941058
25.8811 12.5188 21.0565 -1.70542 -1.16025 0.399338
14.864 16.9764 22.6077 -0.362902 -2.63839 -2.56264
12.5146 16.357 24.1586 0.604318 0.35945 -2.56519
12.2434 17.528 21.5414 0.212213 0.128485 1.19824
20.105 15.8733 24.7404 1.01125 1.99781 -0.460418
19.8339 17.0442 22.1232 0.854937 -0.998528 1.67021
17.4845 16.4248 23.674 -0.737088 -2.27955 -0.379355
17.2133 17.5958 21.0568 1.09844 0.984922 -0.184251
16.5166 14.8305 21.4764 0.274731 0.487917 -1.0467
22.9078 16.7398 24.8377 -2.10561 -0.458383 -0.576001
22.6367 17.9107 22.2205 -1.83311 0.372612 -0.439106
21.94 15.1454 22.64 0.176028 -0.453886 -0.724676
24.7428 16.0119 22.7373 -0.477819 1.46882 -0.842578
26.9286 16.7946 24.4457 -0.107399 -0.778485 2.39845
26.6574 17.9656 21.8285 1.21167 0.389853 -1.39172
26.5778 15.2841 20.637 -0.912558 0.626995 -1.72134
28.7636 16.0668 22.3453 1.56349 -0.316269 0.01729
15.8318 18.5708 24.8054 -0.164911 -0.953851 -0.249595
15.5607 19.7417 22.1882 0.055456 0.85826 -0.860476
13.2113 19.1224 23.739 1.53276 -1.35976 -2.13669
12.9402 20.2933 21.1218 -0.969536 -0.0237971 1.507
14.9927 21.3152 24.5355 0.0283886 2.27637 0.275387
12.3722 21.8668 23.4692 0.613659 0.158517 -0.646337
18.1812 19.1902 23.2545 -1.27066 1.18738 0.90579
17.91 20.3611 20.6373 -0.00459142 0.591887 0.170247
19.9626 21.3829 24.051 -0.953666 0.976191 -1.05034
17.3421 21.9345 22.9847 -1.38497 -0.591125 -0.650268
20.8017 18.6386 24.3208 1.08029 0.155957 -0.174297
20.5306 19.8095 21.7036 1.97338 -0.796154 -0.441691
22.7163 20.5922 23.4119 -0.535578 -0.0347082 -0.345088
22.4452 21.7632 20.7947 1.07094 0.542309 1.04381
24.5513 19.8644 21.3116 -0.292623 -0.556863 -1.77008
24.8224 18.6934 23.9288 1.4231 0.51353 1.0504
26.737 20.6471 23.0199 1.4574 2.02255 -0.729672
28.9228 21.4297 24.7283 -0.545203 -0.307703 0.338803
28.8432 18.7483 23.5368 -2.35404 1.32491 0.242321
28.572 19.9192 20.9196 -0.658257 1.38771 0.188556
14.7216 22.4861 21.9183 -1.05014 -1.33839 1.20209
12.1011 23.0377 20.852 0.417823 0.773963 0.86402
14.1537 24.0595 24.2657 0.463618 -0.0305653 0.0934739
13.8825 25.2305 21.6485 0.378806 -0.626084 -1.07596
19.6915 22.5539 21.4338 1.12595 -0.199455 0.794171
19.1236 24.1273 23.7812 0.695732 0.122876 1.84644
18.8524 25.2983 21.164 0.490285 0.56892 1.63766
16.5031 24.6789 22.7148 -0.0811357 -0.992105 0.263583
21.8772 23.3366 23.1421 0.330324 1.21765 0.461046
21.6061 24.5075 20.5249 -1.00207 -0.0501951 0.962985
21.0382 26.081 22.8723 0.0739624 -0.353857 2.0995
24.0629 24.1193 24.8505 0.997493 -0.223847 0.061003
23.7918 25.2902 22.2332 0.00508606 -1.31958 -0.87954
24.6309 22.5458 22.5031 0.340462 -0.63636 -0.358465
26.8166 23.3285 24.2114 -0.706715 -0.507197 -0.852105
26.5455 24.4995 21.5942 -1.50092 -1.37163 0.00209192
25.9775 26.0729 23.9416 0.308969 0.463005 -0.202703
28.6516 22.6007 22.1111 -1.07559 0.732039 -1.25823
15.664 27.4233 22.445 1.51102 0.0402158 -1.10954
18.2845 26.8717 23.5114 0.0321751 -1.79387 -0.206305
18.0134 28.0426 20.8941 1.57193 2.19047 0.732078
20.1991 28.8253 22.6025 0.204042 0.180291 0.746671
23.2239 26.8636 24.5806 -0.504331 0.492917 2.00751
22.9527 28.0346 21.9634 -0.166613 -1.37072 -2.21915
25.7064 27.2439 21.3244 1.05591 -1.25954 -0.269873
19.4083 13.1079 25.1599 1.12679 0.0261212 0.819112
22.2111 13.9745 25.2572 0.885996 -0.752018 2.1844
13.4824 17.9514 26.3562 -0.242676 0.0608223 -0.00511268
15.1351 15.8054 25.2249 0.631644 0.837068 0.200114
18.7235 16.8482 28.4889 1.37464 0.946057 0.267743
18.4523 18.0192 25.8717 1.66233 0.430843 0.448826
16.1029 17.3998 27.4226 -0.281837 0.180136 2.12332
17.7556 15.2539 26.2912 -0.787472 0.0806053 0.424683
21.0728 17.4676 26.938 1.35143 0.371443 0.868885
23.2586 18.2503 28.6463 1.17587 0.397455 -1.15892
23.179 15.5688 27.4549 -2.65852 -1.96701 -0.558038
20.3761 14.7023 27.3576 1.40372 -0.672306 -1.34012
25.0936 17.5225 26.546 0.480442 1.19399 0.469475
25.014 14.841 25.3545 -1.43974 0.887549 1.17613
15.2639 20.1442 27.1527 1.32041 0.272803 0.973295
12.6434 20.6958 26.0864 0.11506 -1.06493 1.63827
20.2338 20.212 26.6682 0.637908 -0.0882599 -0.462165
17.8844 19.5926 28.2191 -1.83247 -0.452639 -2.07172
17.6133 20.7636 25.6019 -0.390935 0.351647 -2.02182
19.6658 21.7854 29.0156 -0.993444 0.415228 0.496285
20.5049 19.041 29.2854 0.371032 -0.333511 1.09818
22.9874 19.4213 26.0291 -0.630625 2.08744 -2.66826
22.4195 20.9947 28.3765 -1.63357 1.92699 0.241208
22.1484 22.1656 25.7593 0.77849 2.34193 -3.10751
25.1732 20.2039 27.7375 0.275379 -0.291368 -0.610623
24.902 21.3749 25.1203 -0.734969 -0.23445 1.62322
27.0877 22.1576 26.8286 -0.397782 1.50709 -0.977097
27.0082 19.4761 25.6371 -0.616621 0.356732 -0.231267
14.4248 22.8886 26.8829 -0.70122 -2.03307 0.327106
19.3947 22.9564 26.3984 -1.06491 -0.714778 -1.28435
17.0453 22.337 27.9492 -0.200659 -0.30949 3.02941
16.7742 23.5079 25.332 -0.211254 2.00401 0.194699
18.8268 24.5298 28.7458 -0.805994 -0.492195 0.887748
18.5556 25.7007 26.1286 -0.177177 -1.70117 0.403808
16.2063 25.0814 27.6794 1.72928 -0.70115 -2.01849
21.5804 23.739 28.1067 -1.19247 -0.958337 -0.801668
21.3093 24.91 25.4895 0.135099 0.687437 1.37274
24.3341 22.9483 27.4677 -1.97333 1.36689 -0.402699
23.495 25.6927 27.1978 -0.813464 0.855089 1.69454
26.2487 24.902 26.5588 -0.210228 0.16845 -0.749416
15.9351 26.2523 25.0622 0.267289 0.273398 -0.608219
20.7414 26.4834 27.8369 1.37778 0.723996 -0.368628
20.4702 27.6544 25.2197 -2.11846 0.818329 0.559381
ITEM: TIMESTEP
1000
ITEM: NUMBER OF ATOMS
236
ITEM: BOX BOUNDS ss ss ss
1.1697092066495500e+01 2.8926832401944893e+01
1.0781642676183710e+01 3.0000355517361026e+01
1.1650257556099278e+01 2.9289473814151151e+01
ITEM: ATOMS x y z vx vy vz
19.8955 13.4896 15.6099 1.59171 -1.18351 -1.63305
19.4369 14.8164 13.2063 0.42084 -1.02303 -0.727788
22.4203 14.1328 15.5901 -0.932743 -1.12153 2.53001
15.6471 18.6584 13.5244 -2.19681 1.0148 -1.76418
15.1151 16.0248 14.2995 -1.55784 -1.07371 -1.99079
13.6311 17.921 15.1722 -0.995703 -0.637593 0.233746
18.3111 17.8769 14.7605 0.716802 -1.14191 -0.499474
20.0135 17.3094 12.2706 -0.735106 2.39264 -1.11078
17.6071 15.1276 15.121 -1.75869 -1.91433 1.03834
17.1992 16.5176 12.5317 0.665971 0.943547 0.682916
23.097 16.9563 15.3364 -0.48922 -2.17737 1.58883
22.7014 18.0706 12.3724 -0.921297 0.393461 -0.629759
20.381 16.2199 15.161 2.55715 1.31169 0.939218
22.0995 15.3015 13.2579 0.365929 -0.319015 0.335957
25.9913 17.6456 15.4755 0.0332152 -1.55951 1.38393
24.9682 15.0374 15.8837 1.50481 -0.505743 0.187705
24.6824 16.328 13.3917 1.94041 -1.5452 -0.803216
14.1862 20.59 14.6904 -1.41357 -0.874908 -0.502572
19.0892 20.5937 14.265 -0.805515 0.733541 -0.438128
18.8953 21.6267 11.8765 0.508061 2.76392 0.829181
17.9974 19.0142 12.2751 -0.225131 -0.544642 -0.952187
16.7103 20.1235 15.7864 2.05041 -1.26174 0.825414
16.599 21.2274 13.0911 -1.29054 0.497239 -0.610258
21.6767 21.4444 14.2333 0.823818 -0.086237 0.156101
23.7905 19.5654 14.8456 2.43631 -1.93151 0.222058
23.3776 20.6923 12.2449 -0.379089 1.276 -1.55084
21.1489 18.6231 14.5734 -0.902706 0.940168 0.768717
20.716 19.8964 11.8466 -1.49205 1.89343 -1.68
25.7898 21.3949 13.8416 -0.39646 -0.16752 -0.0728548
25.475 18.9751 13.0243 0.275392 -1.11344 0.447497
27.7825 22.1415 15.7426 0.557297 -1.02347 -0.718742
27.6083 19.5734 14.8136 1.92915 0.610873 -3.74056
14.9832 23.2978 14.2902 0.451282 -0.0866434 -1.60682
12.7695 22.6192 16.0595 -1.05189 1.66503 1.4296
19.7674 23.3262 13.7921 -1.10111 -0.0379978 2.80242
17.4773 22.7186 15.288 0.616362 -0.371159 0.184455
17.3416 23.9635 13.0133 1.47247 1.42109 -4.18448
19.0688 26.0219 13.801 -0.175081 -0.900072 -3.61263
16.6346 25.6114 14.9654 1.72639 1.09963 -1.19122
21.9111 24.0027 15.5072 0.87938 0.173773 0.72684
21.7178 25.1185 13.0727 -1.29941 -0.365297 -1.37619
21.5229 22.5394 12.0034 -1.41401 1.75773 -1.75104
23.8018 25.9227 14.5185 -0.29305 0.443294 -1.57149
23.7967 23.3025 13.2077 0.00334319 -0.979117 -1.37867
25.8546 24.2156 14.88 -1.46955 1.34917 -2.21944
18.3271 27.4313 16.0017 -0.498061 -1.20062 -2.73748
21.0822 26.848 15.1303 -0.506239 -0.424194 0.444353
15.7288 13.5802 19.465 -1.82437 -0.790226 -0.548274
15.4903 14.7456 17.0099 -1.58294 -2.66279 -0.608577
18.2242 12.7099 20.0382 -0.811055 0.382378 -0.418343
18.1006 13.8475 17.7122 -1.56453 -1.22638 -1.22035
20.4182 12.295 18.3607 -1.02331 -1.91187 -0.551679
21.1098 13.7445 20.4557 -1.02493 3.61233 -1.03048
22.8011 13.1238 18.3162 -1.33542 -1.37039 -0.609296
25.2264 14.0182 18.4586 2.20431 -0.0348686 -0.458626
16.1101 17.3761 16.2329 1.58899 1.71026 4.39292
14.6005 18.155 19.9958 -0.693318 0.0798733 -1.46437
14.2625 15.418 20.415 0.595632 -0.20904 -0.418359
13.6386 16.7203 17.7141 -0.135405 -1.4364 0.653868
19.5792 18.2244 19.3989 1.34207 1.70053 2.53525
18.9668 15.5425 19.9492 0.132063 -1.30172 -0.738295
18.4955 16.643 17.357 -0.662498 -1.28616 -0.465565
16.3386 16.2508 18.9015 0.934852 1.18439 1.10874
24.416 17.2217 20.3302 1.14826 -0.290511 1.04281
24.0696 18.2456 17.4625 2.1956 -0.446456 0.156397
21.6302 16.5902 20.1691 1.03519 -2.09858 -0.988877
21.3095 17.6809 17.5014 -1.49669 -1.23901 0.747667
23.3084 15.8151 18.0018 1.29918 1.52391 0.90484
20.8567 14.8634 17.6927 0.642487 0.961002 -0.270648
26.2145 16.5596 17.985 0.627069 1.2181 0.863043
28.2486 17.5491 19.7773 2.32333 -0.687284 -1.55844
27.9114 18.5686 17.4126 0.937066 0.0428891 -1.15417
15.2035 21.0301 19.5601 0.633645 -1.11202 -0.457797
15.0567 22.2191 16.9369 -1.71066 -0.75338 -0.13718
12.766 21.5554 18.5022 -0.424823 0.555791 0.963651
14.617 19.437 17.4573 0.768231 0.271383 -0.899441
12.2513 18.7969 18.9125 -1.85776 -0.163745 0.764198
12.2202 19.8201 16.3774 0.455164 0.0702319 -1.57152
20.3345 20.8291 19.1736 0.834462 0.176456 3.7873
19.8821 22.0446 16.6605 -0.897777 0.417377 -2.30504
17.6571 21.5725 18.1931 0.0214369 0.869854 -1.58039
19.2339 19.3945 16.8647 -0.834041 0.0472939 -0.502795
17.1489 18.8755 18.5372 1.89673 -0.27236 -0.265054
22.1837 19.1473 19.6604 -1.24898 2.67466 0.474222
21.9256 20.25 16.8963 -1.30974 0.531351 -0.4272
23.9349 20.9466 18.6702 -0.967266 0.829101 0.50944
23.8816 22.2375 15.8551 -0.179143 -0.151314 2.14735
26.1054 21.7024 20.3067 0.21224 0.550173 0.159865
26.0428 19.2533 19.2829 1.45738 1.13721 1.29832
25.7351 20.287 16.5921 -1.26557 0.198231 1.83519
28.0387 21.0742 18.2625 -0.106198 -2.0192 0.444237
14.7389 23.5878 19.3927 0.603182 -0.937354 -0.217357
14.4198 24.9223 16.5851 0.661724 0.250066 -0.226443
12.4346 24.1809 18.1812 -1.5876 -1.77904 -0.359506
19.4966 23.5995 18.7994 -0.552844 1.35644 0.0594983
19.2556 24.7499 16.0751 -0.813611 -1.26566 -0.576242
17.2588 23.1249 20.2762 -0.589582 2.28616 0.665458
16.8741 24.4329 17.5378 1.41449 -0.2635 0.748263
16.5023 25.5835 20.0679 -0.648181 -0.695562 -0.432933
21.9465 22.843 18.0718 0.886493 0.585917 -1.38872
21.4463 25.6909 17.6981 -0.22812 -1.27989 1.07427
24.3547 23.6872 19.7103 1.75067 0.4371 -0.356047
24.0159 24.7325 17.013 1.14634 -0.203721 1.05958
26.2288 25.5619 18.8374 0.488475 -0.940257 0.77267
25.8379 22.7997 17.7452 -2.78429 -0.544433 -1.34681
27.9755 23.35 19.5075 1.68539 1.76412 0.0311358
27.6863 24.5789 16.814 1.89904 0.198374 -0.386421
16.0595 27.0965 17.3808 0.645259 0.530817 -2.20846
13.9747 26.3671 19.3278 -0.876929 2.09016 0.842997
15.7439 28.2226 19.6644 -0.35736 1.17806 0.0916966
18.7306 26.3777 18.5079 -0.432234 1.52329 0.985759
18.0527 28.9634 18.4152 0.212554 0.107574 -0.547148
20.3608 29.6112 19.9787 -1.05348 0.372574 1.42266
20.8662 26.9674 20.0947 0.198836 -2.14357 -0.712267
20.4725 28.379 17.3683 -0.196282 2.39994 -3.29332
23.4594 26.162 19.3518 0.0217474 -0.574679 -0.112446
23.2976 27.5296 16.6262 -0.367896 -0.943076 -0.152616
22.7221 28.9113 19.3051 -0.822673 2.8915 1.59053
25.9148 26.6439 16.3223 -0.170324 -0.249089 1.42231
25.1546 28.0072 18.5176 1.24053 0.0434798 0.958493
16.3116 12.5041 22.1598 0.254083 -1.26871 1.1359
14.4628 14.4723 22.9371 -1.29698 -1.27429 -0.549364
19.2555 14.3135 22.5709 -1.54277 -0.690458 -0.196772
18.6295 11.7035 22.8777 0.366307 -1.05838 -0.743516
16.8395 13.7587 24.2152 -0.19565 0.623464 -1.57479
20.3848 11.3339 20.9019 -0.40163 -0.0851944 -0.370618
24.0795 13.3935 23.2632 -0.258724 -1.37251 0.940737
23.7466 14.5194 20.7084 -1.77734 0.808014 1.40437
21.3651 12.44 23.1761 -1.2143 -0.456595 0.55968
23.0993 12.0137 20.9867 1.00221 -3.28993 -0.442291
26.4225 14.6365 23.3659 1.33104 -0.728186 0.674047
25.7396 12.9599 21.0597 0.162812 1.17187 -1.24659
15.2172 17.0522 22.5247 1.65028 0.657511 -2.13203
13.0485 16.4851 24.0972 -2.1972 -0.257046 0.195474
12.6796 17.3469 21.5825 -1.83485 -0.786582 0.78726
19.9838 15.8565 24.881 0.378455 -0.570957 0.231879
19.8739 17.2625 22.0826 -0.0690222 -0.747081 -0.99664
17.5505 16.3586 23.8332 2.56236 0.320499 -1.98902
17.3803 17.775 21.108 0.0393961 -0.0361762 -1.45455
16.9665 15.0338 21.5703 0.431622 1.30488 0.522873
22.6673 16.8003 24.9196 -0.780028 0.0726096 -0.029234
22.4892 17.9367 22.19 1.55754 -0.141312 -2.21348
21.8213 15.0714 22.876 -0.655201 1.40675 0.953996
24.4635 16.1021 22.8223 -0.0628296 -1.9001 -0.837748
26.9115 16.9648 24.711 0.999416 -0.905925 1.61729
26.4999 18.0148 21.9905 -1.12761 0.270632 3.11674
26.5833 15.4772 20.7328 3.38483 1.60685 -2.03132
28.4039 16.2441 22.5488 0.486517 -0.675844 0.619708
15.7874 18.5194 24.9502 -1.81498 -0.0085931 0.309081
15.6346 19.658 22.1118 0.181124 -0.117793 0.432266
13.2156 19.2071 23.886 -1.1398 0.993982 -1.85798
12.9228 20.1115 21.3099 -1.99067 -0.661505 -0.30142
15.3118 21.1395 24.4715 1.61839 1.63167 -1.12224
12.6921 21.7365 23.4514 -3.30824 0.951196 1.15112
18.2132 19.1834 23.2421 -0.832937 -0.246244 -0.964023
17.9756 20.4074 20.6426 0.934758 -0.946012 0.101358
19.9201 21.2625 23.8765 -1.06623 -0.311101 0.101732
17.6318 21.9175 22.8734 0.774128 1.12583 0.341178
20.7682 18.609 24.195 -1.38391 -0.542445 1.21303
20.5735 19.8308 21.4698 1.17059 0.344473 -0.508825
22.679 20.473 23.4359 1.48136 -0.697073 -2.62373
22.35 21.7128 20.7481 -3.10964 -1.28023 -0.926313
24.2117 19.8434 21.303 0.584691 -1.714 0.532857
24.8089 18.5308 24.3008 -0.587448 0.457741 -0.727634
26.2863 20.5437 22.9127 -2.52314 -0.641058 -1.10248
28.3767 21.3484 24.81 1.30065 0.734807 0.874257
28.5286 18.9509 23.5185 1.83444 0.736384 -1.73323
28.2504 20.0746 20.9706 1.60354 -0.569229 -0.82342
14.9042 22.3744 22.1451 1.67534 -0.43264 0.142994
12.6143 23.0899 20.8614 -1.29536 -0.571855 -0.151783
14.2624 23.722 24.3973 -1.17587 0.984268 1.05862
14.0507 24.9909 21.8183 -0.452022 0.660324 2.56856
19.7813 22.3913 21.3579 -0.0828012 -2.27856 -3.0354
19.0697 24.1078 23.6443 -0.0951127 0.877718 2.28783
19.0061 25.2546 21.0558 -1.34336 0.297761 0.516766
16.66 24.438 22.733 0.348799 -1.73589 0.603966
21.8263 23.0614 23.0355 -0.356636 2.46221 0.738198
21.635 24.3644 20.3667 0.676701 1.5885 -0.603384
21.0736 25.7989 22.8869 0.72337 -0.757413 0.65581
23.9267 24.0316 24.8388 -1.31252 -0.74262 -1.02496
23.594 25.17 22.0737 -0.351822 0.248799 0.466229
24.5653 22.5252 22.6056 0.062149 0.571316 -0.186487
26.7212 23.2896 24.1808 0.305488 0.277907 -1.08049
26.541 24.543 21.5584 2.55445 2.4188 0.733615
25.4154 25.9362 23.8455 0.114671 1.91598 -1.2641
28.2983 22.4202 22.2303 1.31726 0.481475 -0.908914
15.6842 27.0761 22.2037 -0.512385 -0.515465 0.732123
18.1473 26.764 23.4697 -0.719765 2.30231 -0.476917
18.1431 28.0152 20.9916 0.299877 -0.516282 3.10071
20.41 28.357 22.5533 1.18196 1.90862 0.57966
22.9722 26.6334 24.5731 -1.80933 0.447542 0.788281
22.9374 27.7391 21.8552 0.503575 -0.218358 1.32416
25.4247 26.873 21.1797 -0.275756 2.32825 1.22077
19.6088 13.2978 25.1019 2.45346 -0.785981 4.25992
22.207 14 25.5185 0.89593 -0.720846 -0.153102
13.821 17.9374 26.359 -0.627771 0.949502 -0.281532
15.3338 15.6609 25.3734 1.22803 0.299309 0.977669
18.8287 16.879 28.3589 2.19458 -0.553397 3.55145
18.4729 17.9739 25.9689 -1.25562 -0.99322 -1.50362
16.2237 17.2664 27.3842 0.10933 -0.666644 -0.147573
17.8822 15.0707 26.5384 1.82962 -1.55514 1.66255
21.0597 17.4452 26.9627 -0.778591 0.616293 -3.40316
23.2094 18.3743 28.5972 -1.3191 -0.367512 2.63269
22.9602 15.7319 27.2472 -1.20484 1.19031 1.02289
20.3415 14.8486 27.2993 -2.31021 -0.256183 2.54503
24.989 17.606 27.0328 0.453281 -0.842736 0.595177
24.8822 15.339 25.5025 0.268103 -0.903966 2.28381
15.4582 19.961 27.4141 0.683876 0.751487 0.817009
13.1859 20.7809 25.9815 -2.60825 0.464178 0.56903
20.3046 20.0578 26.7129 1.10993 0.771821 0.48784
17.9621 19.4617 28.3185 0.762726 0.893786 2.91057
17.5772 20.5426 25.7334 0.903932 0.50031 0.202633
19.5673 21.5758 28.7275 -1.22526 -0.00696572 1.52731
20.6832 19.1269 29.059 -0.314208 -0.232516 -0.0389771
22.9314 19.2988 26.2291 -1.51084 -1.29146 -0.181894
22.334 21.0752 28.4237 -0.340908 -0.811507 0.288595
22.0318 21.9002 25.7684 -0.695513 -1.13626 -0.693253
24.7769 20.3732 27.8442 -0.800209 -0.903421 1.31263
24.8702 21.2707 25.1558 1.638 -0.293868 -0.483543
26.7229 22.2947 26.8911 1.84239 0.239473 0.338534
26.8146 19.4821 25.9759 0.519282 -1.80155 -0.525772
14.6763 22.6596 26.8075 -0.349659 0.152959 -1.1383
19.3002 22.797 26.2537 0.0554646 0.487211 -1.09533
17.0481 22.2251 27.9998 -0.762693 0.581313 0.738305
16.8953 23.2577 25.3131 1.0143 -1.88172 -0.916185
18.822 24.2882 28.6243 0.712058 -0.765356 0.718298
18.6395 25.5199 26.1994 -1.31816 2.51291 -1.66632
16.4159 24.782 27.4555 -0.13456 -0.0833131 0.98066
21.3229 23.6066 28.1385 0.689238 -0.656457 0.516197
21.1894 24.5548 25.4325 -0.725127 -1.66193 -2.09794
24.188 22.8503 27.5077 1.11524 -0.389592 -0.309692
23.3312 25.5783 27.1283 0.135512 0.186761 1.94507
25.951 24.7151 26.516 1.21543 -1.28677 0.749921
15.7633 25.9136 24.6378 -1.91253 1.10307 0.47757
20.9095 26.2908 27.5226 1.34286 1.67408 2.55677
20.3935 27.2083 24.934 1.19324 1.64544 0.614833
ITEM: TIMESTEP
2000
ITEM: NUMBER OF ATOMS
236
ITEM: BOX BOUNDS ss ss ss
1.1697092066495500e+01 2.8926832401944893e+01
1.0781642676183710e+01 3.0000355517361026e+01
1.1650257556099278e+01 2.9289473814151151e+01
ITEM: ATOMS x y z vx vy vz
19.947 13.1647 15.7863 -0.345763 0.55513 0.959168
19.6031 14.5679 13.1034 1.76504 1.51002 1.70085
22.6262 13.9598 15.7755 -1.71461 -3.24319 -1.58963
16.1414 18.1846 13.6806 -0.105084 -2.85066 -1.16084
15.2898 15.7372 14.4824 1.70651 0.500968 0.389333
13.7579 17.8725 15.4357 2.51622 0.124537 -1.04758
18.3612 17.5937 14.6309 0.381272 1.90515 0.349081
20.0433 17.0972 12.6231 1.11524 1.63054 -0.128177
17.7253 14.7098 15.1189 -0.0149016 -1.25693 1.39512
17.4295 15.9311 12.8182 -0.561633 1.32555 -0.999114
23.265 16.5373 15.5147 -0.302002 0.428634 3.24777
22.9193 17.9758 12.8144 1.55213 1.33074 0.994083
20.2684 15.7478 15.4048 1.06033 -0.423633 1.71517
22.1016 15.4433 13.4477 -0.282463 0.838834 -1.02778
26.0409 17.487 15.7001 0.722282 -0.429387 0.978344
25.3084 14.8963 15.6803 1.85963 0.328996 -0.00890811
24.8959 16.3595 13.5086 -0.0147457 2.65027 0.185766
14.1292 20.506 14.6617 -0.114724 1.82176 0.573186
18.8895 20.5855 14.164 0.878697 0.858729 -1.22458
18.8805 21.6057 11.7178 -1.03535 -2.87321 -0.413057
18.195 18.9957 12.079 -0.683007 -1.94936 -0.00540578
16.59 20.098 15.7887 0.263679 2.17664 -0.518635
16.2937 20.9662 13.1299 0.407787 -1.11775 1.0656
21.7675 21.2683 14.2994 -0.320432 1.33433 0.264596
23.9904 19.3788 14.8475 -2.09852 1.09121 -1.91466
23.521 20.7086 12.408 0.449798 1.69781 -0.226699
21.1568 18.5142 14.807 -0.523503 0.468353 3.09787
20.9283 19.8897 12.1849 -0.219661 -0.42151 0.887541
25.8054 21.3713 13.8823 -0.266789 -1.46517 0.0686527
25.7968 18.9326 12.9389 -0.123092 1.46363 -0.875424
27.5787 22.2418 15.8502 0.227524 1.32605 -3.03596
27.7821 19.411 14.8958 0.140914 -0.921162 0.50559
14.7427 23.1379 14.4314 2.0756 -0.362941 2.53039
12.5119 22.4825 15.7443 -0.123154 -0.681834 -1.19475
19.8457 23.2184 13.5683 2.68172 0.823315 -1.99465
17.2714 22.6954 15.3162 0.770561 -0.0249123 1.69162
17.2557 23.8036 12.9786 -2.93974 0.338489 2.24596
18.9149 25.854 13.5911 0.0474881 0.292095 0.217661
16.5658 25.5792 15.0349 -1.82785 -0.939806 1.91306
21.855 24.1387 15.3918 -0.648523 0.823445 0.860799
21.4631 25.1158 13.0091 0.673154 0.831083 0.994472
21.729 22.6225 11.8282 3.50777 -0.839956 0.532711
23.6671 25.9669 14.9967 -0.841304 -0.00673698 0.917801
23.7317 23.4381 13.3837 1.29086 -1.71541 0.10695
25.6423 24.1048 15.2928 0.0259015 -0.320102 0.227898
18.2288 27.5461 15.927 1.42213 -1.38299 0.793128
20.947 26.989 15.3328 0.45657 0.034044 -1.49477
15.8041 13.3918 19.3391 0.295145 1.20553 -1.45583
15.1084 14.6326 16.8164 1.05275 -1.70637 0.871365
18.1203 12.5039 20.3544 -0.850513 -0.380078 -0.765262
17.8753 13.8292 17.878 0.588723 1.06596 -0.665626
20.173 12.0042 18.3839 -1.35649 -0.31811 0.514503
20.9042 13.5469 20.4472 -1.05546 -0.0809974 -0.200136
22.9188 12.907 18.3814 -0.0657901 -0.536283 -0.445901
25.6 13.774 18.2547 -2.03147 0.272506 -1.16413
15.9816 17.1872 16.4379 0.112245 -0.0619053 -2.13812
14.4417 18.2349 19.9863 0.0401016 -0.352347 -1.93949
13.9947 15.2552 20.2977 0.639378 -1.31427 -0.436152
13.5335 16.616 17.7952 -0.570005 0.945535 -0.16215
19.2692 18.2982 19.3827 -0.328822 1.18109 -0.00883896
18.8356 15.3431 19.9333 0.317146 2.47706 0.690112
18.5863 16.4834 17.4012 -0.739776 1.93171 0.994842
16.2738 16.0829 18.9328 -1.30366 -2.02357 1.22822
24.3366 17.3283 19.9151 0.40673 1.3844 -1.64742
24.131 18.3801 17.4779 -1.02871 -0.0801384 -1.1101
21.5312 16.5154 20.0173 0.145249 3.42324 -2.24042
21.3217 17.5509 17.3836 -1.97434 0.954668 0.899075
23.5657 15.5233 17.9746 0.242025 -0.266789 -1.09211
20.8137 14.635 17.8745 1.01063 -2.00432 0.784536
26.3228 16.4533 18.1009 -0.411994 1.33962 0.750678
28.2332 17.2376 19.9086 0.530358 -1.91226 -0.54474
28.116 18.5276 17.3759 -2.60056 -0.19901 -0.0681776
15.1235 20.9222 19.7038 2.71926 0.832127 3.02794
14.9867 22.1649 16.8853 -0.513613 -0.138703 -0.289377
12.3238 21.3535 18.3807 -0.111961 0.600312 0.612393
14.2859 19.4222 17.4968 0.808799 0.934162 1.10275
12.0506 18.7489 18.7786 -1.38257 -0.473728 -0.0367757
11.8707 19.9525 16.375 1.25338 -0.159107 -1.89476
20.1799 21.0985 19.1271 0.0878719 0.304252 0.143524
20.0164 22.1163 16.3064 -1.31935 0.51252 -0.612412
17.4995 21.4795 17.9816 1.2099 -0.25723 -0.337737
19.0862 19.2956 16.7499 1.13537 -0.148423 2.81637
16.8333 18.7421 18.3898 0.612896 1.09515 0.85114
22.3084 19.1848 19.6804 -1.77457 1.66436 -0.160651
21.9627 20.2804 16.9863 -0.255324 -0.697908 2.1411
24.3133 21.1115 18.5835 -2.24279 -0.624129 0.576906
23.9469 22.2139 15.9796 -0.686357 -1.06772 1.21347
26.4648 21.852 20.4324 -0.92184 -0.523593 -0.77053
26.334 19.0695 19.2423 0.128189 -0.920036 -1.35707
26.0495 20.1751 16.5229 -1.21815 -0.695464 1.10125
27.9452 21.0979 18.2382 -1.29183 0.690391 0.0303416
14.4446 23.6092 19.2915 0.970262 -1.52899 0.263618
14.137 24.8545 16.6164 1.88916 -0.427865 -1.06624
12.2701 23.9163 18.0404 -1.52765 -0.587072 -1.55981
19.4389 23.7687 18.5799 1.02121 -2.15271 1.28859
19.1553 24.8593 16.0086 0.107897 -0.906233 -0.410041
16.9941 23.3114 20.2854 2.35886 -1.51357 0.553275
16.7712 24.4488 17.596 0.891088 -0.970908 -0.545416
16.3373 26.0197 20.2418 0.891215 -0.985182 -1.63883
22.2227 22.9932 18.119 -0.696689 -0.0261016 1.02456
21.266 25.7229 17.7919 -0.146896 -2.16934 -0.627854
24.3704 23.7715 20.0691 1.57105 -0.978755 -0.713851
24.1025 24.9222 17.3911 -2.88965 -2.82555 0.160386