ITEM: TIMESTEP
0
ITEM: NUMBER OF ATOMS
23
ITEM: BOX BOUNDS ss ss ss
1.5421021719286404e+01 2.4499394705018918e+01
1.6031233267675894e+01 2.4716868376172965e+01
1.7773717456619142e+01 2.3016282466482867e+01
ITEM: ATOMS x y z vx vy vz
18.0456 19.7756 21.9459 -0.385108 1.57456 -1.68878
19.6983 17.6297 20.8145 0.942856 -0.748154 0.0959495
19.4272 18.8006 18.1973 0.50097 -0.683021 0.931209
15.4251 20.3272 20.8795 -0.1992 -1.03602 1.97137
18.7304 16.0353 18.6169 -1.19985 1.94076 -2.56398
17.0778 18.1813 19.7482 -1.04218 -0.742262 0.249815
20.6661 19.224 23.0122 1.38442 0.368091 1.27397
22.5011 18.4962 20.9119 -0.202401 0.524195 0.123226
22.23 19.6672 18.2947 -2.32359 -0.891074 0.462923
24.3361 17.7684 18.8115 2.30717 -0.642959 0.417843
21.5333 16.9018 18.7142 0.850629 0.156645 -1.05219
17.7745 20.9466 19.3287 -2.64698 0.967474 0.726605
19.8271 21.9684 22.7424 0.323909 0.334567 -1.41425
19.5559 23.1394 20.1252 0.736887 0.795704 0.283139
17.2065 22.52 21.6761 0.12933 -0.576888 -0.321872
18.988 24.7128 22.4726 -1.81162 0.882628 -1.42794
20.395 20.395 20.395 0.77958 -0.165833 -0.0927168
20.1239 21.566 17.7778 1.59644 -1.5993 -0.51204
22.5807 21.1777 22.1033 1.55031 0.518171 0.308006
22.3096 22.3486 19.4861 -2.30511 1.17126 0.773246
21.7417 23.9221 21.8335 0.820447 -0.426281 0.565934
24.4953 23.1313 21.1945 0.633908 -0.956703 0.736984
24.4157 20.4498 20.003 -0.440832 -0.765545 0.153537
ITEM: TIMESTEP
1000
ITEM: NUMBER OF ATOMS
23
ITEM: BOX BOUNDS ss ss ss
1.5750173230239200e+01 2.3865139656999073e+01
1.6482416471656204e+01 2.4216648025295889e+01
1.7157865461594277e+01 2.3252946693269774e+01
ITEM: ATOMS x y z vx vy vz
18.3982 19.6791 22.3498 0.817518 2.34265 -3.37515
19.9504 17.2768 20.6997 1.38073 3.2976 0.223344
19.2475 19.0291 18.0289 0.210284 -0.3672 3.88464
15.7625 20.7308 20.489 0.71324 -1.43445 -0.84724
19.0304 16.5116 18.8085 -1.45491 0.775952 -1.86789
17.4528 18.7299 20.205 -1.21718 0.859117 1.32976
20.8571 19.3668 23.0891 -1.11265 3.49529 -3.74063
22.6172 18.3053 21.3669 -2.21378 1.26628 -3.76416
22.2474 19.4253 17.2301 -0.720105 -1.46875 1.8111
23.7225 18.4167 18.8159 3.0404 0.195024 0.13431
21.4446 17.7682 18.87 -0.00248036 -1.10723 1.71715
17.7499 21.1394 19.0409 0.28914 -1.95816 1.54414
19.6674 21.9505 23.1244 0.949582 -1.1042 -3.13507
19.5541 23.2049 19.9245 -0.101465 -3.54478 3.51999
17.696 22.0433 21.4181 -2.28533 0.241167 -0.520121
19.3058 24.2476 22.028 -0.72695 0.960133 1.85779
20.1743 20.1566 20.3697 1.16214 1.23364 -0.492887
20.2185 21.2695 18.093 1.41464 -1.90778 2.08405
22.8631 20.8645 22.5447 -0.78293 -0.308512 -0.858105
22.4362 22.4849 19.3526 0.216097 -0.246217 1.77753
21.5594 22.9183 21.8168 -1.2395 0.570032 1.89181
23.8782 23.0703 21.2971 1.01257 -2.26843 -0.469952
23.2517 20.4957 20.1223 0.650943 0.478833 -2.7044
ITEM: TIMESTEP
2000
ITEM: NUMBER OF ATOMS
23
ITEM: BOX BOUNDS ss ss ss
1.6201207827762609e+01 2.3902222095701983e+01
1.6520004014728272e+01 2.3730813053351522e+01
1.7639406889377472e+01 2.3442404075015325e+01
ITEM: ATOMS x y z vx vy vz
18.4631 19.1324 21.525 1.09876 2.77264 0.496814
20.228 18.6838 20.0453 2.09545 0.810258 1.85865
19.0927 18.9634 17.5425 0.565895 0.959207 -3.07762
16.1631 20.4103 20.6035 0.790465 1.37236 -0.12217
18.5937 17.0418 19.1957 1.13095 0.0169216 0.505393
16.5507 18.4964 19.6092 -1.42366 -0.601601 1.00859
20.7943 19.3989 22.8816 -3.03448 -0.829029 -1.82491
22.5922 18.4358 21.2369 -0.548817 -0.918887 -0.1337
21.771 18.7983 18.1754 1.34547 -3.65 -3.82266
24.1803 18.2729 19.1196 1.12755 0.687572 2.19244
21.2845 16.4606 19.0664 0.299495 0.157021 -0.335484
18.3836 20.6879 19.1569 -2.69297 0.0691084 -1.51629
19.559 21.3307 23.4858 3.49274 0.322047 -1.2143
19.2674 23.1931 19.7109 1.56483 -0.113944 -0.694233
18.021 21.8367 21.684 -3.23696 -2.58737 0.780054
19.5398 24.0051 22.4993 -2.46779 -0.32435 -0.164242
20.5343 21.2354 20.8708 1.64594 -0.820191 1.05878
20.8364 21.3383 18.1852 -4.61579 -0.157903 2.94982
22.4184 21.3626 22.5593 1.25076 1.80623 -0.039851
21.8466 23.3124 19.3218 -0.763673 2.11873 0.993177
21.7177 23.611 21.8229 0.252568 2.54941 1.14523
24.1101 22.7309 20.8898 2.92265 -2.77067 -1.15921
23.1369 20.3464 19.8971 -0.79939 -0.867558 1.11572
ITEM: TIMESTEP
3000
ITEM: NUMBER OF ATOMS
23
ITEM: BOX BOUNDS ss ss ss
1.6606862171358888e+01 2.3924023000484233e+01
1.6850922876958681e+01 2.3847732699661755e+01
1.7427541609649595e+01 2.3810258035026710e+01
ITEM: ATOMS x y z vx vy vz
18.6009 18.725 21.6011 -0.136932 -0.765839 1.33124
19.5192 18.9636 17.0853 -1.58129 2.2683 -3.00221
16.298 20.0342 21.0627 1.70369 3.18529 -0.264154
19.8648 16.4632 20.0215 -0.450059 0.865431 -1.02107
17.9064 17.9384 19.1883 4.54277 -3.61318 0.267057
17.9766 20.8101 19.1842 -1.82766 0.10997 2.4105
20.3569 22.0997 23.6947 -4.02512 1.13107 -3.31298
19.0617 23.2928 19.5209 0.967554 0.704139 2.27244
17.4732 22.3355 21.5472 -2.33843 -2.0807 -0.119077
20.1085 23.9927 21.7519 0.851843 1.55703 -0.145304
20.3722 19.2105 19.7744 -0.233662 -1.05334 2.34216
20.2814 19.825 23.5345 -1.30192 2.22225 1.05396
21.7417 17.9018 22.3668 0.583606 -0.0756872 -0.942679
21.8696 19.1491 17.3215 -1.2523 1.82486 0.824759
23.0822 18.8885 20.3469 1.74777 -1.44762 -0.40488
21.1038 17.0708 18.5309 0.997395 0.59659 -0.159658
19.8189 21.2417 21.0895 -0.724166 1.39037 -0.998575
20.4049 21.6139 17.6757 -0.58419 -2.15913 -0.409584
22.1578 20.6542 21.8932 -1.3751 -0.391538 0.800898
21.8556 23.0358 19.8358 0.153541 -2.57253 0.724779
22.445 23.1825 22.7622 1.41208 -0.882646 0.544953
23.8891 21.759 20.708 2.56632 -1.35943 -2.02888
22.8967 20.8967 18.5877 0.304252 0.546356 0.236318
ITEM: TIMESTEP
4000
ITEM: NUMBER OF ATOMS
23
ITEM: BOX BOUNDS ss ss ss
1.7544686552669962e+01 2.3678516168129036e+01
1.5893104322879200e+01 2.4255547389615458e+01
1.7061747383126043e+01 2.3873924698317509e+01
ITEM: ATOMS x y z vx vy vz
18.5286 18.4196 21.7695 -0.776567 -0.0389146 1.87704
19.7484 19.3486 17.2494 0.269769 0.868215 0.00258744
17.526 20.3419 23.0831 -1.06161 -2.30555 0.0334335
19.4298 16.1985 20.6344 1.29115 -0.58143 2.28796
18.6977 17.8972 19.1101 0.215555 -1.72284 -0.41516
19.9287 19.8703 23.4255 -0.816062 -0.760549 0.590287
21.0424 20.2982 19.5557 -3.5329 3.4586 -1.20093
20.9937 17.9119 21.0165 0.501424 2.77176 -0.695703
22.1849 18.9321 17.3182 1.89674 -0.150693 -1.83614
23.3573 19.2184 19.6998 -0.918595 -2.80862 1.74918
21.2502 16.8501 18.7519 -3.40838 1.64523 1.19795
18.1047 20.1881 19.4197 2.89382 -0.799373 1.78786
19.3151 22.422 24.0509 0.405213 2.04037 0.676005
18.9641 22.956 19.1086 1.19993 2.42119 0.0194158
17.8911 23.1869 21.483 0.480086 -2.64601 -1.58977
20.3873 23.9419 21.3086 0.835144 -2.34158 -1.81741
19.0573 21.3383 21.477 -1.55022 -3.02832 -1.65929
20.9059 21.5777 17.2129 -2.01429 4.06813 -0.981839
22.3174 19.9044 22.4696 -0.174217 -1.89526 2.66841
21.6065 23.0552 19.1747 0.221215 1.2374 -2.16132
21.5162 22.5302 22.7075 2.82026 -0.675344 -1.42751
23.1521 21.6157 20.9809 -0.710549 0.166955 0.409059
23.1796 21.0817 18.0778 1.93309 1.07664 0.485896
ITEM: TIMESTEP
5000
ITEM: NUMBER OF ATOMS
23
ITEM: BOX BOUNDS ss ss ss
1.7777975972149466e+01 2.3384354149809806e+01
1.6218620476721853e+01 2.3700834408119341e+01
1.7137460057500057e+01 2.3844038536963588e+01
ITEM: ATOMS x y z vx vy vz
18.7048 18.404 21.7466 2.20577 1.7288 0.154398
19.827 19.3972 17.227 2.79928 1.11807 -1.67907
19.2738 16.3414 20.4871 -0.623967 -1.14846 0.0721106
18.8213 18.2011 18.7661 -0.278034 2.03569 2.45357
20.1973 19.8007 23.9049 3.77393 0.269476 0.773107
20.9857 17.5883 21.0674 1.16211 -0.815634 -0.0675836
22.3636 19.2456 17.443 0.564564 0.107457 -0.0214885
23.0898 18.9419 19.8014 1.27825 -2.02652 -0.853162
21.0444 16.847 18.3382 0.509983 1.01627 -0.849357
22.4768 19.9423 22.3675 2.19342 0.792517 0.400916
17.7419 20.8671 23.1061 -2.13272 0.0253854 -4.19014
20.7986 20.2845 19.4364 -0.88032 0.182576 -1.3107
18.0319 20.3059 20.1817 -3.38883 1.47381 1.9568
19.1638 22.8147 23.4914 3.50533 -1.8426 -0.533603
18.8488 22.4302 19.0117 0.283823 0.314488 1.13636
17.6366 22.9325 21.1664 -1.26526 1.80289 1.50082
20.027 23.7383 21.215 -2.69074 -0.254682 -3.82193
19.9062 20.8318 21.585 -1.50798 1.36599 1.07783
21.0054 21.6783 17.064 -0.265627 -1.17897 -1.1103
21.3286 23.2858 19.2485 0.55556 -2.13555 2.12129
21.4749 22.223 23.1856 -1.48321 0.768667 0.321621
22.8676 21.719 20.7534 -4.79311 -4.13879 2.0006
23.4693 21.2646 18.4905 0.477775 0.539112 0.467915
ITEM: TIMESTEP
6000
ITEM: NUMBER OF ATOMS
23
ITEM: BOX BOUNDS ss ss ss
1.6266833074053157e+01 2.3667659189969630e+01
1.7181602394393909e+01 2.4037191790361568e+01
1.6936246422753737e+01 2.3524996878157033e+01
ITEM: ATOMS x y z vx vy vz
19.1818 18.7134 21.6573 -1.77286 -1.0413 -2.23835
19.3064 18.7078 17.8752 -0.163287 -1.98817 1.94832
19.5036 17.22 19.8497 -0.0794895 -0.595853 -1.06254
17.7565 19.2174 19.4049 -0.803082 1.94017 1.08956
20.8013 19.7138 23.3491 1.97215 3.3312 1.60068
21.9787 17.8629 21.68 -0.100113 -0.725215 -2.71203
21.9732 19.1495 16.9356 -0.746213 2.01492 0.402001
23.4814 18.9497 20.1232 -1.28816 2.05701 1.4239
22.1352 17.2036 18.2956 4.86943 -2.057 0.623383
23.1722 19.6091 22.8792 -0.192467 1.15271 -1.35529
16.9538 20.7768 21.8702 -1.38604 -0.411312 -1.00528
21.2056 19.5294 19.4814 0.369103 -0.992253 -1.19805
16.2189 21.2324 19.7057 -1.87195 0.513091 -0.401066
18.8403 22.2263 23.2396 -1.89552 1.4821 0.679761
18.641 21.493 18.8342 2.1875 -0.687473 -0.413001
17.9772 23.3147 20.7289 0.335787 2.44566 0.507281
20.5345 23.6636 22.0501 0.684277 0.601104 0.527257
19.9383 21.2511 21.2316 0.198429 0.396318 -1.30477
20.7435 21.6662 17.5777 -3.01802 -1.41216 -0.363255
20.9988 22.9834 19.6226 -0.263312 -1.63831 1.25793
21.8795 22.129 23.4103 1.85085 -3.96451 4.63494
22.7176 21.3168 20.9007 0.483247 1.74528 -1.92184
23.1456 21.1551 18.3824 0.629747 -2.16602 -0.719556
ITEM: TIMESTEP
7000
ITEM: NUMBER OF ATOMS
23
ITEM: BOX BOUNDS ss ss ss
1.7017274092748497e+01 2.3713872115812006e+01
1.7226905995096264e+01 2.3761862819759838e+01
1.6503304797820565e+01 2.3831501896769506e+01
ITEM: ATOMS x y z vx vy vz
18.3073 17.4662 21.6912 -1.45722 0.277554 0.0545575
19.0115 19.1862 17.396 -0.853029 -1.06074 -1.44264
19.4306 17.1046 19.2406 0.925255 1.40668 1.92841
18.0375 19.4151 19.7081 -1.78042 -0.0739591 1.06909
20.0117 19.7684 23.5538 0.596271 -0.200907 2.38868
20.7353 18.1887 21.5993 -0.222653 2.30368 -2.7068
21.7663 18.0164 17.2108 -0.095374 3.71015 -2.51313
23.2061 20.4955 20.2208 -0.339508 2.23675 -1.10266
22.5767 17.9718 19.3982 -0.456678 -2.32018 -0.214306
22.8846 19.7509 22.5071 1.28342 -0.459102 0.687818
18.171 20.2422 22.0867 -1.45389 -0.107652 -1.84314
20.6773 19.4935 19.2489 1.14832 -0.0661355 -2.8604
16.434 21.4138 20.1358 -1.48884 0.123164 1.93478
19.2917 22.3608 23.3865 -0.0133067 0.488045 -0.41278
18.713 21.7141 18.4807 2.76296 -2.49597 -0.699171
18.4878 22.5759 20.4596 -0.429973 0.81628 -0.846986
20.6027 23.6415 21.8685 -0.74646 -2.02469 -2.06133
20.6594 21.1373 21.319 0.934033 -0.835504 1.4227
20.7267 20.9877 16.8339 -0.175779 -0.149738 1.53923
21.4666 22.8633 19.581 1.34328 -1.76219 0.0847334
22.1662 21.8047 23.7233 2.74126 1.51672 1.82267
22.9402 22.8143 21.672 -2.2769 1.67864 3.614
22.7808 20.672 17.763 0.0552443 -3.00089 0.156676
ITEM: TIMESTEP
8000
ITEM: NUMBER OF ATOMS
23
ITEM: BOX BOUNDS ss ss ss
1.7752182687807760e+01 2.3265068350315577e+01
1.7036425532587316e+01 2.3806941667044139e+01
1.6540893382495494e+01 2.4210077010798681e+01
ITEM: ATOMS x y z vx vy vz
18.5714 18.2595 22.0126 -1.85517 -2.06912 -2.33229
18.936 19.9858 16.5458 -1.65687 -0.0511803 0.832026
19.8826 17.0403 19.6827 0.634628 -0.24768 4.99986
18.1873 17.7154 18.56 3.73714 4.04062 0.425292
20.3807 19.6223 23.9952 -0.0937098 -1.72879 0.215151
21.4104 18.0556 21.5645 -1.16155 1.73821 -1.88853
20.7154 18.6446 16.7712 -0.0819159 1.54683 3.04131
23.2585 19.943 20.6235 -2.47716 1.63361 0.947069
22.1354 17.9008 18.8253 1.64198 -0.328692 -1.27046
22.7555 19.9951 23.1523 2.35561 -0.589802 -1.0118
18.2461 20.7941 22.8671 -0.114464 2.0203 -1.66551
20.0414 19.8182 19.1172 -0.235439 1.4457 -3.23011
17.7542 20.2366 20.5159 -2.05953 -0.659829 2.43675
19.1902 23.0505 23.49 -1.33677 0.574458 0.600604
18.6313 21.8357 18.2629 -2.39629 1.13374 0.239808
18.982 22.8118 20.6623 -0.221214 -2.38526 1.81286
20.6879 23.8021 21.6306 -0.455102 -0.735502 -2.31189
20.705 20.8095 21.5809 0.0430099 -1.85587 -0.398019
20.9909 21.6058 16.5858 2.09429 -1.68158 -0.854606
21.1101 22.518 19.0464 1.34216 0.869974 -0.956044
21.1913 22.0408 24.2068 -0.258382 -0.927009 0.818265
22.8359 22.338 21.2433 2.13265 -0.465164 -2.06808
22.4854 20.2616 18.1427 0.422098 -1.27797 1.61835
ITEM: TIMESTEP
9000
ITEM: NUMBER OF ATOMS
23
ITEM: BOX BOUNDS ss ss ss
1.7630416087643496e+01 2.3008399005157582e+01
1.6895649105898034e+01 2.3656678378399150e+01
1.6791417333065368e+01 2.3847433272038248e+01
ITEM: ATOMS x y z vx vy vz
18.8523 18.5828 21.3572 2.16352 -0.963326 -2.85571
18.7602 20.0193 17.5439 -0.161758 2.55991 1.36408
20.0879 16.955 19.3419 -2.90137 2.12348 0.103091
17.9193 18.0874 18.91 0.850748 0.549079 2.73388
20.1557 19.8027 24.1204 -2.03097 -0.0728256 0.644338
21.4963 18.1699 21.2978 0.41549 -3.22133 -0.981419
19.9279 18.3041 16.9321 0.0520129 -0.314208 2.85236
23.0088 20.2789 20.5217 1.95967 2.06622 -0.958149
22.7715 17.7838 19.1262 1.41813 1.38732 1.04959
22.3785 20.0489 22.9188 -1.1304 -1.48603 -2.65889
17.9199 20.507 22.7743 0.410362 -3.16299 -3.13016
20.9109 19.7646 19.0131 2.34785 -0.00588691 2.71083
17.9351 20.454 20.0951 1.66928 0.757788 0.54726
19.2935 22.7546 23.5438 0.945197 -2.13021 -1.23002
19.4596 22.1173 18.9666 -0.27867 -0.320237 0.290187
17.8939 22.6875 21.2259 -2.55035 2.35546 0.733954
20.4176 23.6457 20.8112 -2.05001 2.80936 -1.59503
20.1634 20.8979 21.6112 -0.424364 -1.62766 -1.4651
20.9632 21.2585 16.9273 -1.40337 -0.514991 -1.3956
21.9891 22.376 19.2863 2.75499 -0.116498 0.316993
21.3455 22.2494 23.8893 -0.00671148 3.46491 2.65246
22.5606 22.5909 21.6296 0.0190085 -2.29442 -0.735216
22.8742 19.7487 17.2413 -2.06829 -1.84292 1.00625
ITEM: TIMESTEP
10000
ITEM: NUMBER OF ATOMS
23
ITEM: BOX BOUNDS ss ss ss
1.7448881327424424e+01 2.3222428531950143e+01
1.6700893735743438e+01 2.4106419681919110e+01
1.6785476743064184e+01 2.4010054134472906e+01
ITEM: ATOMS x y z vx vy vz
18.7143 18.2718 21.6182 -1.9676 0.86728 -1.71365
18.6184 20.0202 17.3613 -1.47242 -0.322224 2.91867
20.4287 16.6387 19.5169 1.18468 3.06385 -0.503482
18.3078 17.7833 18.5481 -0.291633 2.56108 -1.23923
19.8231 19.7078 23.8257 -0.0299175 -2.85566 2.14268
21.3533 18.4815 21.6002 -0.315872 -2.84668 1.79121
20.8979 18.5503 17.0669 -0.813673 -0.483059 0.132427
23.1553 19.9773 20.4909 1.20879 3.2264 1.30893
22.5062 17.9278 18.9907 -0.828494 -0.36388 1.35744
22.3885 19.9333 23.2377 0.650173 -1.3147 1.23438
17.5614 20.9059 22.4475 1.33193 -2.98236 -0.532315
20.4317 19.6826 19.2116 -1.87114 -1.06491 2.24185
17.7572 19.8874 20.1246 -1.17577 2.0884 -1.97776
19.0496 22.7526 23.4927 1.09499 0.128295 -0.125749
18.9306 22.0318 19.0333 0.737424 -0.350963 -0.309452
18.5417 23.0992 21.1541 -0.0431733 1.39628 -4.12805
20.9893 23.7309 21.4228 -3.29029 -0.174204 -1.31917
20.1019 20.9276 21.4931 0.597848 -1.05366 0.167053
20.477 21.5249 16.8607 -3.31283 -0.0513989 -1.02041
21.5332 22.1616 19.0818 1.11827 -4.01607 -2.14531
21.6043 22.3762 23.4732 -0.0184528 -0.263729 4.5963
23.2704 22.2711 21.5395 4.779 3.95578 -1.64385
22.6432 20.4413 17.4936 2.72815 0.856129 -1.2325
ITEM: TIMESTEP
11000
ITEM: NUMBER OF ATOMS
23
ITEM: BOX BOUNDS ss ss ss
1.7744672503614005e+01 2.3073276605990046e+01
1.6859878946349607e+01 2.3739274629043365e+01
1.6977103898269846e+01 2.4710066798082373e+01
ITEM: ATOMS x y z vx vy vz
18.8063 18.4681 21.5531 2.1704 0.967366 -1.7684
18.4075 20.2048 17.255 -1.99094 -0.407318 0.323487
20.1695 16.8625 19.991 -0.334369 -0.0141646 0.181604
18.2144 18.1852 18.5927 0.549864 1.34508 0.820999
20.3153 19.6956 23.8798 -1.89563 -1.63595 2.7624
21.4883 18.221 21.4441 -0.41793 -0.976957 0.0608484
20.7938 18.1793 16.9931 0.859969 2.28058 -1.49892
22.8921 19.7874 20.0694 -0.0340336 -2.18919 -0.409407
22.6751 17.6964 18.4951 5.0394 2.25383 0.709454
22.4696 20.0856 22.6892 -0.679144 3.46323 0.302254
18.1614 20.5905 22.7515 1.22391 -1.10275 0.823997
20.4405 19.4995 19.1896 -1.77835 -1.55875 2.7815
17.5784 20.4077 19.9447 1.88879 2.66134 -1.30621
19.6529 22.9591 23.2373 -2.20488 1.10675 -1.46077
19.3917 22.1528 18.7294 1.96564 1.07563 -0.657349
17.8988 23.0005 21.1197 1.18664 -2.20756 -0.847387
20.2838 24.0639 20.7163 1.80545 0.344887 1.39962
20.4236 21.275 21.4774 -1.25642 2.6877 0.827016
20.6326 21.0348 16.7042 -2.68698 -2.21858 -0.272969
22.0609 22.4297 19.8932 -0.0576576 -1.15092 1.06441
21.3258 21.696 24.671 0.142215 -2.39458 -1.66426
22.1739 22.8646 22.3737 -0.096224 -0.621669 -1.52565
22.8289 19.7247 17.3146 -3.39971 -1.70801 -0.646257
ITEM: TIMESTEP
12000
ITEM: NUMBER OF ATOMS
23
ITEM: BOX BOUNDS ss ss ss
1.7415702014722768e+01 2.3931899588992209e+01
1.6882071353352771e+01 2.3945641887337676e+01
1.6899100012741570e+01 2.4216940789167896e+01
ITEM: ATOMS x y z vx vy vz
18.4227 20.4047 17.5911 0.920314 1.55576 -0.263235
20.3888 17.0059 19.7502 3.0828 1.33667 1.76948
18.3064 17.9234 18.8546 -0.355706 -4.33114 -0.392566
19.6738 18.2275 16.7154 -4.0439 1.34164 -1.10171
23.7319 19.4515 20.5764 -3.26825 -1.48459 -2.57569
21.8253 17.9116 17.7443 -1.47318 -1.18841 -0.724063
20.4172 19.6752 19.2509 0.851062 -0.324809 -1.40006
17.5236 20.0202 20.0006 1.02061 -1.25676 -0.793472
19.7667 22.432 18.5452 0.520199 0.0618647 0.63875
20.8884 20.5819 16.5427 3.00935 -0.476359 -0.0222648
22.1735 22.1092 19.8391 0.532129 0.985328 0.375473
22.7577 20.0735 18.1185 1.58554 -0.20576 -1.75911
19.0044 18.4571 21.477 -1.6307 0.727508 2.56757
20.219 19.1099 23.6586 0.146375 0.976831 2.8475
21.7564 18.5766 21.5757 0.0374107 0.205166 0.483946
22.883 20.5828 22.666 -0.816652 0.445435 0.292889
18.3287 20.6517 23.0453 1.44777 0.644052 -2.30893
19.3506 23.4153 23.2097 -0.687524 -0.599441 4.51469
18.1988 22.5273 20.8011 2.12267 0.787818 -0.63672
20.2719 23.9631 20.702 -2.7838 0.117792 -1.25711
20.5743 21.2595 21.715 1.1277 1.11564 -3.42503
20.6055 21.5293 24.2394 0.520205 0.874266 -0.344223
22.0164 23.1958 22.4661 -1.86441 -1.30849 3.51389
ITEM: TIMESTEP
13000
ITEM: NUMBER OF ATOMS
23
ITEM: BOX BOUNDS ss ss ss
1.7603167571328346e+01 2.3083593722128402e+01
1.7133238044840162e+01 2.3904217118144068e+01
1.6032751669426272e+01 2.4131598167694996e+01
ITEM: ATOMS x y z vx vy vz
17.8933 20.337 17.6521 1.86961 -2.21273 -0.307362
20.8553 17.1701 19.6621 -1.69572 0.142046 0.400104
18.3913 17.1289 19.1927 -0.326305 -0.728239 1.04972
19.102 18.3578 17.1209 -0.973711 0.727439 -0.964113
22.4502 19.5111 20.1952 -0.298192 0.238036 -1.79171
21.812 18.741 17.5741 2.54336 2.13495 -0.169276
19.8616 19.6962 19.2842 -1.355 0.569655 1.2078
17.3206 19.6374 20.1332 -4.06101 -1.35352 1.57716
20.9304 22.468 18.6797 1.42859 -4.46389 0.0627467
20.2584 20.7744 16.5883 0.63004 -0.448769 -1.58899
23.0829 22.4751 20.214 -1.46969 2.02064 0.458186
22.8084 20.9724 18.0834 0.0889888 -1.00683 2.08501
19.2721 18.3941 21.4482 2.51912 0.182778 -1.70398
20.625 19.544 23.8593 0.837571 3.16012 1.74949
21.638 17.8487 22.3285 -0.496666 3.92601 -2.45466
22.823 20.1473 23.0354 1.75142 -2.47107 0.0937647
18.2322 20.6853 22.5231 -2.85843 -0.00606924 0.836534
19.0234 23.4158 22.3575 1.62783 -1.0812 -0.848785
18.4753 22.0304 20.0446 0.63111 1.26125 0.571042
20.9476 23.7788 20.8669 1.31408 2.84614 2.65928
20.8928 20.9408 21.6317 -1.09909 -0.94374 -2.61532
20.0511 22.1384 23.9158 -0.557659 -1.19445 0.378909
22.3384 22.892 22.694 -0.050245 -1.29855 -0.685545
ITEM: TIMESTEP
14000
ITEM: NUMBER OF ATOMS
23
ITEM: BOX BOUNDS ss ss ss
1.7114859848457105e+01 2.3199696572776002e+01
1.7313634027896597e+01 2.4171891832243862e+01
1.6610716753972159e+01 2.4202335152054815e+01
ITEM: ATOMS x y z vx vy vz
17.9124 20.5263 17.6379 0.846468 4.12172 1.60966
21.3248 17.3662 19.8051 0.346178 -0.66118 2.05802
18.3687 17.4773 19.3133 -0.391274 -2.18734 0.642151
19.2113 18.2157 16.8566 1.37061 2.21027 -2.21725
22.9795 19.3891 19.9224 -0.754135 -1.04062 2.06853
21.679 18.1846 17.424 -0.344996 -2.0479 -1.77388
19.9162 19.6215 19.1746 0.12176 -0.906817 0.0800931
17.3826 19.6929 20.0938 -0.487385 -0.595008 -0.744797
20.76 22.5645 18.5584 0.0244639 1.37745 -1.46717
20.3619 20.7905 16.5702 -1.56498 -0.798468 0.599909
22.895 21.9673 20.5556 1.71738 2.62775 -1.42959
22.3853 20.9605 18.2751 -2.01322 0.70371 0.738818
18.6526 21.9343 19.8931 0.736109 1.25631 0.609645
19.3944 18.5305 21.6617 2.7429 1.85585 -1.25863
20.4596 19.8537 23.7978 -0.803074 -1.04013 1.56095
21.7676 18.1775 22.1306 1.26678 -0.897815 1.66201
23.1403 20.2002 22.5761 -0.0595468 -1.03575 0.364676
18.1274 21.2656 22.6492 -0.287528 -1.93654 0.562148
19.1654 23.2953 22.3568 0.330553 1.33075 0.529254
21.0353 23.7369 20.519 -0.495471 -3.20767 -0.982826
20.6759 20.9287 21.2658 -0.375517 0.169873 -0.197949
19.7801 21.9822 24.7231 0.44503 0.762113 -1.5903
21.7096 22.4236 23.3247 -2.37109 -0.0605383 -1.42347
ITEM: TIMESTEP
15000
ITEM: NUMBER OF ATOMS
23
ITEM: BOX BOUNDS ss ss ss
1.7709334244238018e+01 2.3206875768434699e+01
1.6842887519228444e+01 2.3602082162675938e+01
1.6539612643718897e+01 2.4401707000744253e+01
ITEM: ATOMS x y z vx vy vz
18.0163 21.0444 17.4306 -1.27863 -1.46563 0.616326
21.2172 17.1783 20.1049 -0.515416 2.02372 0.0335022
18.7013 16.9575 19.311 -0.382002 -0.327276 -3.53669
18.8018 18.4569 17.0164 1.67758 -1.24634 1.3513
22.7643 19.3963 20.4276 -0.0316017 0.035791 -0.41052
21.3266 18.3663 17.7329 0.939738 0.234712 0.259692
20.0692 20.0288 19.12 -0.648126 -0.407418 -1.96821
17.6012 19.1381 19.271 0.835884 -0.331548 0.233518
19.8061 22.8335 17.7165 -1.4533 -1.48207 1.15877
20.5021 20.6487 16.3981 1.37802 1.48699 1.11548
23.4953 21.6663 20.9825 0.808034 -1.64957 -1.11834
22.1338 21.6304 18.8745 -1.96969 0.0274048 1.31063
18.474 22.0253 20.0595 0.55522 0.863715 -3.2927
19.1253 18.5921 21.3776 -1.52417 -0.754271 0.481324
20.3201 19.489 23.8428 0.876884 -0.365565 3.89353
21.7956 18 22.325 -1.42017 -2.10861 -3.23913
23.1564 20.0143 22.9755 -0.188373 0.798935 1.3493
18.3054 20.8678 22.6225 0.49661 1.52969 -1.66471
19.1661 23.2841 22.3252 0.741246 -0.154888 0.937071
20.7254 23.4009 20.3485 1.0414 1.74996 -0.994889
20.7424 21.022 21.6526 -1.24547 -1.73736 2.53859
20.3413 22.2592 24.2379 1.52817 1.15214 3.30072
22.4978 22.7849 22.932 -0.221835 2.12747 -2.35455
ITEM: TIMESTEP
16000
ITEM: NUMBER OF ATOMS
23
ITEM: BOX BOUNDS ss ss ss
1.7294391393847739e+01 2.3272704675929859e+01
1.7192846085002021e+01 2.3358894165309351e+01
1.6495023458939677e+01 2.4049825277394671e+01
ITEM: ATOMS x y z vx vy vz
17.9002 20.4526 17.6483 4.17659 -0.834407 -0.942775
20.9928 17.3397 19.5193 0.0811599 0.894656 1.2613
18.2177 17.7532 19.2546 0.00480276 0.74038 0.3673
19.5196 17.8863 17.318 1.67163 2.46256 -2.90885
22.7343 19.7077 20.0221 -0.112698 -0.270683 1.20345
22.2844 18.9281 17.5333 -2.91419 -1.7051 3.31564
20.2313 19.9272 19.0822 -1.79698 0.929485 -3.25614
17.1504 20.1091 20.069 1.3927 -0.90043 0.387978
19.7992 22.2799 17.5534 -0.775511 -4.40952 0.398965
20.5063 20.2008 16.3024 -1.98903 1.92328 -1.4557
22.1435 21.6791 18.274 -0.981281 1.13191 0.0894428
18.5904 22.1897 19.984 0.908697 -0.222566 -0.291016
20.7997 22.9649 19.9433 -1.68412 1.94936 0.757503
23.3256 22.0328 21.2059 -0.230871 -0.417758 -0.765159
19.1431 18.5984 21.5007 -2.01259 -1.00931 0.536887
20.4847 19.3756 24.1961 -0.07867 0.18337 1.22545
21.498 17.9227 21.9209 -1.90714 1.37471 1.37106
22.8173 20.015 23.2437 0.752545 0.150423 -2.06849
18.3149 20.8529 22.6129 0.904374 -2.21104 -0.3181
19.4809 23.3769 22.4385 0.888163 -1.11044 -0.880906
20.7503 20.8637 21.7627 2.27947 1.6795 1.58773
20.1872 21.9345 24.4182 -0.408228 0.156347 -1.62275
22.2132 22.694 23.2814 1.83116 -0.484714 2.00717
ITEM: TIMESTEP
17000
ITEM: NUMBER OF ATOMS
23
ITEM: BOX BOUNDS ss ss ss
1.7292655322479597e+01 2.3243839026437946e+01
1.7443823487150539e+01 2.3241904581528622e+01
1.6153174972185049e+01 2.4307150668069568e+01
ITEM: ATOMS x y z vx vy vz
18.1714 20.2417 17.7777 0.974103 -0.8499 -0.403837
20.6947 17.4204 19.3873 0.311608 0.0784306 3.36151
18.023 17.8257 19.095 -0.762397 0.328912 -1.44483
19.7879 17.8779 17.133 1.26903 2.36848 0.345262
22.5032 19.402 20.1796 2.06305 2.4467 1.69677
22.1369 19.1535 17.6818 -1.02886 -3.18147 -2.0205
20.0552 19.823 19.3214 1.35193 0.258981 -4.33934
17.3314 19.8232 20.6464 0.301103 0.273748 3.39097
20.2172 22.3117 17.8034 0.266114 1.31644 -0.109011
20.5662 20.4492 16.3331 -3.18072 -2.03091 0.817141
22.5701 21.4986 18.2341 0.460379 2.2588 1.7629
18.4322 22.087 19.6776 0.336113 0.204045 -0.147533
21.0892 23.1627 20.1569 -0.788299 -1.2813 -1.20272
23.2979 22.0489 20.8131 1.23551 -0.921884 -0.180348
18.9865 18.257 21.6866 -0.938961 -1.85019 -2.2693
20.2071 19.1653 23.9038 -2.42446 -2.00387 2.41804
21.5253 17.9122 22.1867 -0.210019 0.880128 -0.156806
22.6002 20.5494 23.1039 -1.02874 0.853016 -2.28091
18.2573 21.0841 22.8093 0.0851373 0.749201 -0.729263
19.5913 23.1711 22.4343 -0.219698 1.252 -0.566039
20.5381 20.9464 21.5157 0.44376 -0.930803 -1.1619
20.5157 21.5394 24.3794 2.06377 -0.973116 1.94003
21.9869 23.3346 22.8251 -0.579444 0.754561 1.27973
ITEM: TIMESTEP
18000
ITEM: NUMBER OF ATOMS
23
ITEM: BOX BOUNDS ss ss ss
1.6899844901820408e+01 2.3067529343175909e+01
1.7501805517706600e+01 2.3286831460359942e+01
1.6329609364765513e+01 2.4115518547679205e+01
ITEM: ATOMS x y z vx vy vz
18.1105 20.1756 17.6688 1.03903 -1.5377 1.0347
20.7228 17.5341 19.5341 0.424521 -1.70359 -0.960437
18.1602 17.8804 18.6137 -1.73703 -0.76071 0.104307
19.6543 18.3397 16.5356 -0.529343 2.64651 0.158094
22.222 18.8512 17.9281 -0.301759 0.709115 -1.2686
20.0342 19.9229 19.2046 -1.45991 0.342197 1.05525
19.603 22.2066 17.9265 -1.44135 -2.10879 -1.32068
20.9999 20.4216 16.3947 1.18625 -1.58624 1.04184
22.12 21.422 18.6105 2.67319 1.98602 3.14849
21.0981 23.2172 20.2136 0.779657 -0.518093 -1.06258
22.991 19.2236 20.5464 -2.13144 0.522729 -0.0882052
16.8299 19.633 20.4745 0.1427 -2.5937 -0.0576605
18.4082 21.7823 20.2927 -1.37915 1.81574 -1.09306
23.3969 21.8761 20.7561 4.11733 -0.849867 -0.0738497
18.8599 19.0604 21.5389 -0.161857 1.59419 0.0899822
20.1869 19.3159 23.8586 -0.993082 -1.88011 -0.361088
21.4975 17.8896 22.2271 0.643352 1.47377 0.0686121
22.9105 20.1931 23.1513 1.53699 0.948459 -1.72114
18.1635 20.8462 23.0149 -0.747935 2.07658 0.343352
19.4206 23.1569 22.1825 0.405402 -0.262937 1.60978
21.0145 20.8631 21.6534 -0.436294 0.825912 -0.657022
20.646 21.9141 24.2157 -0.251744 -0.922661 -0.149357
22.0347 23.3595 22.5427 -1.37753 -0.216811 0.159277
ITEM: TIMESTEP
19000
ITEM: NUMBER OF ATOMS
23
ITEM: BOX BOUNDS ss ss ss
1.6899844901820408e+01 2.3067529343175909e+01
1.7501805517706600e+01 2.3286831460359942e+01
1.6329609364765513e+01 2.4115518547679205e+01
ITEM: ATOMS x y z vx vy vz
17.8327 20.4171 18.0199 1.11734 0.711176 0.954936
20.8105 17.2462 19.3375 -0.45218 -0.804514 -1.40326
18.1983 17.8523 18.9435 -0.658482 1.83271 1.15952
19.6019 17.9165 17.0096 -1.52127 2.03464 -0.0782265
22.1018 18.6979 17.4601 -1.99752 1.88901 -1.78527
20.1726 19.9434 18.9783 1.30898 -0.0957885 2.29197
20.214 22.586 17.8219 -1.63107 -1.71464 0.0722974
20.3481 20.3059 16.3664 2.94097 -2.29978 0.382488
22.5202 21.303 18.4583 -1.42248 -1.88058 0.828474
21.2288 23.1944 20.0215 0.530042 -0.0474075 -0.166384
22.5008 19.2709 20.0714 3.35038 1.14192 3.53549
17.5007 19.941 20.5595 0.456937 -0.55354 0.417397
18.627 22.1683 20.1108 -1.39652 -0.49689 -1.33139
23.4559 22.0555 21.0082 -0.179786 0.867527 1.7812
19.3656 18.4168 21.2821 2.42468 -0.386442 1.74001
20.2122 19.3719 23.8372 -1.93032 -0.0897103 -1.54591
21.8784 18.1874 22.4396 -0.962828 0.0558835 -4.85325
22.5843 20.6785 23.1666 -1.4348 -0.0164936 0.828756
18.0126 20.8184 22.9985 0.677861 0.266018 -0.710626
19.3077 22.9744 22.405 -2.03291 0.422914 0.623995
20.6406 20.9954 21.5282 1.30071 -0.370415 0.940797
20.0229 21.6663 24.4836 0.66785 0.410411 -0.198166
21.9475 23.0776 22.7771 0.844426 -0.876 -3.48485
ITEM: TIMESTEP
20000
ITEM: NUMBER OF ATOMS
23
ITEM: BOX BOUNDS ss ss ss
1.7055423436164798e+01 2.3296847825483241e+01
1.6783211951575247e+01 2.3753504677107301e+01
1.6780355119948027e+01 2.4269262644268579e+01
ITEM: ATOMS x y z vx vy vz
18.5144 20.4178 17.6402 -0.968821 -0.452617 1.30976
20.132 16.7366 19.5499 -1.85919 -0.695645 0.861296
17.7549 17.8206 18.96 -0.884334 -1.84465 -1.13837
19.7015 18.0692 17.0833 -0.00932895 1.18655 -1.85851
21.9956 18.2048 18.4985 -0.00382079 1.45313 1.20587
20.0953 19.6843 19.4355 -0.916176 0.180697 0.514248
19.8827 22.4884 17.7486 0.289119 -1.06619 -1.11173
21.1517 20.2769 16.8667 1.38302 0.858559 0.61627
22.0673 21.5953 18.5411 0.372935 -1.04106 -0.708372
20.6127 23.5308 20.3663 1.66784 0.134463 -0.951513
23.4067 19.7494 20.2794 1.08998 0.00833235 -1.19987
17.0889 19.9217 20.1005 -0.0674074 1.18612 -1.26667
18.6825 21.8809 20.2012 -1.68684 2.62452 -0.00167255
23.3034 22.337 20.9313 1.89776 1.97033 1.45568
18.7952 18.0758 21.4921 1.73105 0.267117 3.54926
20.1187 19.7151 23.4024 1.66927 -0.740237 -0.102042
21.3281 18.4128 21.3104 -0.489191 2.17347 1.64068
22.9287 20.2944 22.8911 -0.570893 0.663445 -0.417598
17.7621 20.4336 22.3319 0.500005 -0.0678906 -0.432343
19.3887 22.6456 23.152 -2.73206 -0.871612 0.365561
21.0328 21.229 21.3584 -0.381797 -2.70791 -1.91134
21.5013 21.8611 24.2611 1.3696 -2.44021 0.353878
21.8396 23.7036 22.6832 -1.40072 -0.778706 -0.772478
ITEM: TIMESTEP
21000
ITEM: NUMBER OF ATOMS
23
ITEM: BOX BOUNDS ss ss ss
1.7356665292207893e+01 2.3629439865485164e+01
1.6881789433794001e+01 2.3640095194434505e+01
1.6773147843230152e+01 2.4196624819709037e+01
ITEM: ATOMS x y z vx vy vz
18.4578 19.8831 17.0383 1.90106 -0.686085 2.19617
20.2621 16.8361 19.5647 0.398334 -1.31189 0.0978039
17.7248 17.9561 19.3221 -0.359098 1.80004 0.104895
19.7779 17.8663 17.2278 -1.52624 -1.42574 1.61525
21.9907 18.2535 18.3019 0.759841 -0.595233 0.595899
19.9845 19.5131 19.5349 0.220257 1.77556 -1.28037
19.4625 22.0371 18.3661 1.32944 2.50798 0.205756
20.8332 20.2523 16.8525 -0.555866 -1.30082 0.522879