ITEM: TIMESTEP
0
ITEM: NUMBER OF ATOMS
249
ITEM: BOX BOUNDS ss ss ss
1.1113709408739933e+01 2.9676290648780750e+01
1.0514647803638564e+01 3.0275352042769871e+01
1.0598770672290989e+01 3.0191229441915901e+01
ITEM: ATOMS x y z vx vy vz
18.2837 13.8283 13.1971 -1.27947 1.22374 0.795162
21.1247 14.2781 13.104 1.61763 0.970541 0.357024
15.0717 15.969 14.4876 0.531613 0.532223 -1.27045
17.9127 16.4188 14.3945 1.00241 0.104567 0.826494
16.1152 18.3166 13.1905 -0.559301 -0.252245 0.460028
19.3271 16.1759 11.9 -2.30976 1.31372 0.467884
20.7538 16.8687 14.3015 0.133944 0.28946 1.16056
23.9658 14.728 13.0109 -1.79859 0.341177 -0.267254
23.5948 17.3185 14.2084 -1.00435 -1.3159 1.05742
22.1682 16.6257 11.8069 -2.45445 0.516739 0.740792
26.4358 17.7684 14.1153 1.07185 -1.59217 -1.73329
15.7442 20.9071 14.3879 -0.644962 -0.252946 0.654951
12.9032 20.4573 14.481 -0.275831 0.279888 -0.80328
17.1586 20.6642 11.8934 -0.640681 2.14246 -2.61516
20.3706 18.5235 10.6028 -0.296348 -1.27019 -0.137868
19.9996 21.114 11.8003 -0.176214 -0.387229 0.155921
18.9562 18.7664 13.0974 -2.78745 0.640181 -1.83141
18.5852 21.357 14.2949 0.792495 0.866793 -0.759322
22.8407 21.5639 11.7072 -1.87377 -0.355686 -2.05131
21.4262 21.8068 14.2018 -0.302828 -2.40347 -0.961583
24.6382 19.6661 12.9113 -0.321123 -2.59517 -2.54444
21.7972 19.2163 13.0044 -2.2291 -2.15515 1.1527
24.2673 22.2567 14.1088 2.37473 1.20291 0.179473
13.9466 22.8049 13.1839 1.22091 -0.139207 0.593381
16.4167 25.8453 14.2883 1.88117 -0.667159 -0.154217
19.6287 23.7046 12.9978 -0.149077 -0.86544 -0.364073
16.7876 23.2547 13.0908 1.29887 -0.107603 -0.228654
19.2577 26.2951 14.1952 -0.870576 -0.362724 0.747228
22.4697 24.1544 12.9047 -1.22737 -0.867958 -0.763358
25.3107 24.6043 12.8116 0.423134 0.827988 1.33564
27.1083 22.7065 14.0157 1.28819 0.749782 -0.303263
22.0987 26.745 14.1022 1.96876 -0.544908 -0.42264
15.4549 14.3142 18.1862 -1.73434 1.38436 0.225867
18.6669 12.1735 16.8957 1.44165 0.509397 0.37632
16.8693 14.0713 15.6916 1.59731 -1.66387 0.784339
24.3489 13.0732 16.7096 -2.23614 -0.446535 -0.370703
21.5079 12.6234 16.8026 0.378052 0.686254 0.369033
11.8597 18.1097 15.7781 1.94396 -0.711104 -0.60855
13.6573 16.2119 16.9822 -0.0403737 -1.67564 -0.524653
18.2959 14.7641 18.0931 0.654881 -0.515545 1.64164
19.3393 17.1116 16.796 1.78815 -1.02328 0.583786
16.4983 16.6618 16.8891 -0.39881 -0.600443 1.66176
19.7103 14.5211 15.5986 0.775707 -0.610977 0.891644
21.1369 15.2139 18.0001 -1.49194 -0.692073 -2.27721
23.978 15.6638 17.907 -0.110605 2.27721 0.175703
22.5513 14.971 15.5055 0.589514 0.169612 0.190857
25.0214 18.0113 16.6099 0.489863 0.860675 0.209405
22.1804 17.5615 16.703 -0.979374 -0.695011 -0.389054
26.819 16.1136 17.814 -1.45207 -0.603784 -0.619965
25.3924 15.4208 15.4125 -0.597072 -2.18766 -1.63149
14.3298 21.1501 16.8825 -0.997369 1.05041 -1.19274
11.4888 20.7002 16.9756 0.747062 -0.620272 2.10493
14.7007 18.5595 15.685 -1.16904 -0.244179 1.94445
13.2863 18.8025 18.1796 -0.705773 2.30777 -0.79225
17.5418 19.0094 15.592 0.970398 0.508307 -1.09641
20.0118 22.0498 16.6964 -0.433328 0.28313 2.00562
17.1708 21.5999 16.7894 0.80947 0.708241 1.00101
20.3828 19.4592 15.4989 -0.186077 -1.22449 0.748153
16.1274 19.2523 18.0866 -0.927094 0.614769 -1.54478
18.9684 19.7022 17.9935 -0.282392 0.525045 0.234649
23.2238 19.9091 15.4059 0.16432 -0.308422 -0.411195
21.8094 20.152 17.9004 0.229142 0.482384 -1.0327
24.6504 20.6019 17.8074 0.18204 0.12239 1.08158
28.9059 20.8088 15.2197 0.363451 1.16117 0.810523
26.0648 20.3589 15.3128 0.938574 0.424842 0.951629
27.4915 21.0517 17.7143 -1.48355 0.150561 -1.17567
27.8624 18.4612 16.5169 -1.81315 0.261043 0.535648
11.1178 23.2908 18.173 0.895298 -0.182221 -0.412244
13.9588 23.7406 18.08 -0.923653 0.211412 0.282705
12.5322 23.0478 15.6785 0.890782 -0.230014 0.106432
15.0023 26.0882 16.7828 1.40645 -1.05548 -0.963581
15.3732 23.4977 15.5854 0.208579 -0.973845 0.491186
16.7998 24.1905 17.9869 0.823365 -0.944375 1.60192
19.6409 24.6403 17.8938 -0.711992 -0.652244 0.169604
18.2142 23.9475 15.4923 1.32716 2.44335 -0.787723
22.4819 25.0902 17.8008 -0.921347 -0.0872528 0.965986
22.8529 22.4996 16.6033 -0.035871 -1.05698 -2.08879
23.8963 24.8472 15.3062 1.62403 -0.613239 -2.10077
21.0553 24.3974 15.3993 0.192885 2.74435 -0.433204
25.6939 22.9495 16.5103 0.348264 -0.673718 -0.157423
28.1639 25.9899 17.6147 -0.250411 -0.780141 -1.37967
25.3229 25.54 17.7077 -1.43696 -1.4168 0.216723
28.5349 23.3993 16.4172 -0.688325 0.317592 0.138872
26.7373 25.2971 15.2132 1.82315 0.284244 2.1474
18.8867 28.8857 15.3927 -1.52311 0.068997 -1.16205
17.4723 29.1286 17.8872 0.0416572 -0.929353 1.3352
17.8433 26.5381 16.6898 0.602394 0.581936 -1.39047
20.3133 29.5785 17.7942 2.75169 -0.44321 0.349918
20.6843 26.9879 16.5967 -0.766835 -1.90453 0.126871
23.5253 27.4378 16.5037 0.206388 0.918075 -0.806668
15.838 12.6594 21.8848 -0.299104 1.68688 -1.7666
19.05 10.5187 20.5943 0.989123 1.04823 0.229328
18.6791 13.1093 21.7918 -0.345619 1.4121 0.969106
17.2525 12.4165 19.3903 2.17542 -1.28535 2.1378
20.0935 12.8663 19.2972 0.0717448 -0.952015 -0.436947
21.5201 13.5591 21.6987 0.925078 0.502373 1.08021
24.7321 11.4184 20.4082 -2.95001 -1.90198 -0.321556
21.8911 10.9686 20.5012 3.51501 -0.750628 0.359804
24.3611 14.009 21.6056 0.993509 0.334049 0.894863
22.9345 13.3162 19.2041 0.597443 1.98312 -1.93321
27.2022 14.4588 21.5126 -0.641592 0.356364 -1.94003
25.7755 13.766 19.1111 0.369131 -0.00896411 0.0862332
12.2429 16.4549 19.4767 0.89489 0.258247 -0.313615
15.0839 16.9048 19.3837 -0.372768 -1.07076 0.618785
14.0405 14.5572 20.6808 1.2694 2.03947 -0.688659
13.6695 17.1477 21.8782 -0.276161 -1.30253 -2.37505
17.9249 17.3546 19.2906 2.10221 -0.331417 0.388625
16.5105 17.5976 21.7852 0.666307 2.11207 -0.744454
19.7225 15.4569 20.4947 -0.912803 -1.35374 -1.2774
16.8815 15.007 20.5877 0.952547 -1.23887 -0.30009
19.3516 18.0474 21.6921 -1.81689 -1.16698 0.632855
23.607 18.2543 19.1045 1.58269 0.0170077 -0.929408
20.766 17.8045 19.1975 -1.01247 -0.00522639 1.28105
22.5635 15.9067 20.4016 1.63514 -1.00365 0.686078
25.4046 16.3566 20.3085 3.053 -0.812 0.366064
28.2456 16.8064 20.2155 -1.4483 1.69539 -0.0889831
11.501 21.636 21.8716 -1.48575 -0.310591 0.232999
14.7129 19.4953 20.5811 0.401925 0.0326559 -0.581712
11.8719 19.0455 20.6742 -1.21729 -0.402505 -1.76542
14.342 22.0858 21.7786 -0.751277 0.028627 0.252469
12.9154 21.393 19.3771 0.0789139 1.77615 1.82851
20.395 20.395 20.395 1.08374 1.58526 -1.96989
17.554 19.9452 20.4881 0.0405108 -0.794471 1.25383
18.5974 22.2927 19.1909 -1.6178 0.0644015 -1.15372
15.7564 21.8429 19.284 0.717773 -0.154861 0.785935
23.236 20.8448 20.3019 1.53069 2.13209 0.599897
22.1926 18.4973 21.5991 1.28398 0.00428735 1.77886
25.0336 18.9471 21.506 0.399384 0.381128 -2.59544
26.0771 21.2947 20.2089 -0.880493 -0.246532 1.82677
29.289 19.154 18.9184 1.01788 -0.250488 0.291287
26.448 18.7042 19.0114 0.00129431 -0.383941 2.12608
28.9181 21.7445 20.1158 -0.510905 0.418547 1.04565
27.8746 19.397 21.4129 1.38968 0.00566416 -1.17444
15.3854 24.4334 20.4815 0.560112 -1.1198 0.934536
12.5444 23.9836 20.5745 0.196798 1.68039 -0.771443
17.183 22.5357 21.6855 0.808359 2.03935 -0.46614
20.024 22.9855 21.5925 -1.07329 -0.897647 1.38674
18.2265 24.8833 20.3884 -0.600867 0.465265 1.54813
22.8651 23.4354 21.4994 0.222556 1.19322 0.502825
21.0675 25.3331 20.2953 0.892044 1.88668 0.555729
24.2795 23.1924 19.0048 1.91395 1.02957 1.68225
21.4384 22.7426 19.0979 -2.68786 -0.622254 0.334632
23.9085 25.783 20.2023 -0.952346 0.401146 0.437409
28.5471 24.3351 21.3133 0.652009 0.115957 -1.241
25.7061 23.8852 21.4063 -0.823388 -0.533847 -0.593551
26.7495 26.2328 20.1092 -0.955444 0.857353 1.81285
27.1205 23.6423 18.9118 4.58935 -1.10354 0.542014
13.5878 26.3312 19.2774 -1.16451 0.395915 0.280363
15.0145 27.024 21.6789 1.38429 0.113624 -0.297014
16.0579 29.3716 20.3818 -1.17832 0.554159 0.359605
19.2699 27.2309 19.0913 -0.100454 -0.610748 -0.770789
16.4289 26.781 19.1844 -0.361627 -0.167404 2.78078
18.8989 29.8214 20.2888 0.914188 -0.177072 0.0791047
17.8555 27.4738 21.5859 -0.155163 -0.548958 1.06436
21.74 30.2713 20.1957 0.926794 1.4599 -0.119367
24.952 28.1306 18.9052 -1.52286 0.87236 1.46575
22.1109 27.6807 18.9982 -0.887152 -1.37819 1.55413
23.5375 28.3735 21.3997 0.17787 0.164234 0.675499
20.6965 27.9237 21.4928 1.36639 -0.214588 -0.317014
20.1057 13.8021 24.1933 -0.305936 -1.4164 1.27608
17.2647 13.3522 24.2863 0.0474787 0.489653 -0.202454
21.9033 11.9043 25.3973 -0.827008 -0.0350701 -0.256954
23.3177 11.6614 22.9028 0.957591 -0.510775 0.736562
20.4767 11.2115 22.9958 -1.27025 0.691822 -1.05158
22.9467 14.2519 24.1002 1.39546 2.07739 1.12067
12.6261 14.8001 23.1753 0.993029 0.501732 0.745777
15.0961 17.8405 24.2797 -0.0300864 -0.177867 0.987286
12.2551 17.3907 24.3728 -0.509821 0.000351567 0.613255
15.4671 15.25 23.0823 -0.0491595 -0.401089 -0.706414
14.0527 15.4929 25.5768 -0.77798 0.565029 1.82132
18.3081 15.6998 22.9892 -0.133348 -0.515982 0.356789
17.9371 18.2904 24.1867 0.91544 0.990886 -0.286682
16.8937 15.9428 25.4838 0.629872 -1.24627 0.207199
19.7347 16.3926 25.3907 -1.51536 -1.37429 -0.635718
23.9902 16.5995 22.8031 -0.850444 -0.129455 -1.86687
21.1491 16.1497 22.8962 1.28425 -1.29053 -2.27797
22.5757 16.8425 25.2977 -1.63542 -0.149392 -3.31299
29.6722 17.4992 22.617 0.183072 -0.302036 0.983765
26.8312 17.0494 22.71 -0.107496 0.67329 1.44139
25.7877 14.7018 24.0072 -0.647938 0.589255 -1.49687
28.2578 17.7422 25.1115 -0.00491104 0.266586 -0.649002
25.4168 17.2923 25.2046 -0.0681439 0.836954 0.752742
11.8841 19.9812 25.5703 -0.164028 0.644074 -0.0845385
14.7252 20.4311 25.4772 -1.09891 -0.472126 1.79035
13.2985 19.7383 23.0757 1.04247 0.418001 -1.31604
12.9276 22.3288 24.2731 -0.770881 1.38273 0.260003
17.5662 20.8809 25.3841 1.02606 -0.560626 -1.30154
18.9806 20.638 22.8896 -0.32671 -0.634514 0.233556
16.1396 20.1881 22.9826 1.37302 -0.302123 0.218752
20.7782 18.7402 24.0936 0.209409 -1.96615 0.110384
23.2482 21.7806 25.198 0.495142 2.33222 -2.98216
20.4072 21.3308 25.2911 -0.263121 -0.951682 0.0860003
23.6192 19.1901 24.0006 -0.1556 -1.76291 -0.293332
24.6626 21.5377 22.7034 0.278145 -0.629726 -1.22505
21.8216 21.0878 22.7965 -1.40316 0.387841 -0.262043
26.4602 19.6399 23.9075 -0.0539357 -0.271473 -0.343005
26.0893 22.2305 25.105 -0.688001 1.48216 -0.68527
29.3012 20.0898 23.8144 -0.0147029 -1.91609 -0.508567
27.5037 21.9875 22.6104 0.714801 -0.558101 -0.888361
13.971 24.6764 22.976 1.12914 -0.394828 0.106706
15.3976 25.3692 25.3775 -1.42538 1.07596 -1.42939
19.6531 25.5761 22.7899 0.433496 0.562827 1.48352
16.812 25.1262 22.883 -1.15812 -0.591108 0.199401
15.7686 22.7787 24.1801 -1.16256 0.345308 -0.751986
18.2387 25.8191 25.2845 -0.486029 -2.65475 1.12904
18.6096 23.2285 24.087 -0.593241 2.60034 0.509448
22.4941 26.0259 22.6969 0.589455 0.582247 -1.61698
21.4507 23.6784 23.994 0.320728 0.771048 0.602903
21.0797 26.2689 25.1914 0.940193 1.58394 0.27439
24.2917 24.1282 23.9009 1.14262 0.455233 2.36053
28.9303 22.6803 25.0119 -0.671609 1.37055 -0.468239
27.1327 24.5781 23.8078 0.634776 -0.964207 -0.627855
16.4411 27.7168 24.0804 0.180037 0.788657 -1.27204
19.2821 28.1666 23.9874 -2.18228 1.42158 -0.346378
22.1231 28.6165 23.8943 -0.361425 -0.588122 -1.58267
23.9207 26.7187 25.0984 -2.27975 0.8241 0.522391
25.3351 26.4758 22.6038 0.63063 -0.982362 1.03329
18.6913 14.045 26.6878 0.715763 -0.755879 1.00903
15.4793 16.1857 27.9784 0.571314 0.00834809 0.398722
13.6817 18.0835 26.7743 -0.426367 -0.702125 2.45021
18.3203 16.6356 27.8853 -1.06231 -2.19476 -0.447491
21.1613 17.0854 27.7922 2.27321 -1.16528 -0.634318
24.3733 14.9447 26.5017 -0.211913 0.833823 -0.897073
21.5323 14.4949 26.5948 -0.634289 0.140449 -0.146084
24.0024 17.5353 27.6992 -0.530928 -1.64042 0.339316
26.8434 17.9851 27.6061 0.0332008 -1.4323 0.799531
17.9493 19.2261 29.0828 -0.386719 0.215898 1.52696
16.1518 21.1239 27.8787 -0.0848106 0.178619 -1.7951
19.3638 18.9832 26.5882 -0.606012 1.6823 -0.193646
16.5227 18.5333 26.6812 -0.914758 -2.28858 -0.479866
18.9928 21.5737 27.7856 0.983838 1.52456 0.868196
20.4194 22.2665 30.1872 -1.43705 -0.639829 -1.33292
23.6314 20.1258 28.8966 -2.05072 1.95449 0.349091
20.7904 19.676 28.9897 -0.560372 2.03182 0.0495694
21.8338 22.0236 27.6926 0.344669 0.195737 -0.853947
22.2048 19.433 26.4951 2.64531 -0.930656 1.32218
25.0458 19.8829 26.4021 0.192685 -0.01176 -0.0412503
27.8868 20.3327 26.309 -1.95698 1.6518 0.563238
14.3542 23.0216 26.6747 -1.9056 -1.18143 0.996024
16.8242 26.062 27.779 -1.44957 -0.56553 -2.13882
20.0362 23.9213 26.4885 0.46691 0.154445 1.72069
17.1952 23.4715 26.5816 0.400275 -0.704356 0.653034
18.6218 24.1643 28.9831 -0.712011 -0.888448 -0.635329
22.8773 24.3712 26.3955 -0.160348 -1.33139 -0.792464
21.4629 24.6141 28.89 -0.02856 0.738429 -0.95992
24.6748 22.4734 27.5995 0.798431 0.175051 -2.13361
25.7183 24.821 26.3024 -0.364842 -0.521722 0.0547767
19.6653 26.5119 27.686 -1.30894 -0.150344 0.51737
22.5063 26.9617 27.5929 1.1602 0.497783 1.22807
ITEM: TIMESTEP
1000
ITEM: NUMBER OF ATOMS
249
ITEM: BOX BOUNDS ss ss ss
1.1113709408739933e+01 2.9676290648780750e+01
1.0514647803638564e+01 3.0275352042769871e+01
1.0598770672290989e+01 3.0191229441915901e+01
ITEM: ATOMS x y z vx vy vz
18.3532 14.0103 13.4018 -2.19626 0.378207 -0.385106
20.8154 14.2415 13.0706 1.62443 -1.99105 -0.018429
15.0178 16.2337 14.8866 -0.875409 -0.900012 -0.16007
17.9231 16.3754 14.4462 0.500319 -0.722358 0.484008
16.1208 18.1623 13.2328 1.60872 0.303068 -3.17539
19.2082 16.2854 12.1588 0.618453 -0.586362 -1.13813
20.711 16.6909 14.3457 -0.729052 2.54544 -0.833676
23.6079 15.1534 12.9656 3.26715 0.863265 -0.387367
23.5637 17.4969 14.1492 1.21119 -0.231641 1.98443
21.9229 16.608 11.9818 0.734345 -0.299215 2.16039
26.1687 17.9248 14.365 0.758807 -0.505285 -0.857894
15.8495 20.6642 14.2919 0.386631 -1.20264 0.478161
13.0047 20.436 14.4871 -0.242019 -0.36163 -1.45322
17.54 20.8221 12.1684 -1.4676 -0.395274 -1.34602
20.1249 18.5636 10.8939 -0.640378 0.354898 -1.5702
20.1086 21.1295 12.099 -0.297371 -0.892149 -0.380728
18.852 18.7009 13.318 -0.591905 0.503489 0.939498
18.6264 21.2861 14.4183 -0.363842 1.08193 1.79785
22.7612 21.9227 12.1575 1.62649 0.0698922 -2.02002
21.5859 21.7301 14.2784 -1.86153 2.05611 1.88895
24.6312 19.8694 12.9825 -0.767105 -0.478996 -0.668687
21.9149 19.1911 12.9233 -1.19305 0.0818002 0.271983
24.2467 22.2761 14.1521 0.629622 0.3726 0.0416994
14.2995 22.6015 13.2038 -0.762282 0.553504 -0.284981
16.8272 25.588 14.3861 -0.463971 -0.489855 -1.95487
19.8653 23.4952 13.2056 0.0808394 -0.483025 0.214376
16.92 23.2367 13.1392 2.66105 -0.0592493 -2.48616
19.4498 26.0785 14.2235 -0.448837 -2.74942 -1.06638
22.2859 24.3222 12.961 -1.63774 -0.934917 -0.388198
25.0446 24.6046 13.3252 -0.422888 -0.126088 0.0636464
26.9887 22.85 14.1024 1.85477 -0.10137 0.990095
22.1459 26.5882 14.489 0.701157 1.16929 0.060274
15.5423 14.2566 18.3451 0.477038 2.6879 -1.00877
18.553 12.318 17.1908 -0.734028 -1.45411 -0.21177
16.7481 14.1612 15.7876 -0.532619 -0.480127 4.02493
24.1595 13.2565 16.8574 1.02643 2.18611 -0.494693
21.4786 12.6204 16.8418 -0.32162 -0.0659855 -0.186165
12.0507 18.3171 15.7485 0.104446 -1.55603 -0.448887
13.6621 16.302 17.0729 1.6252 -2.29171 0.047121
18.2171 14.6637 18.1386 0.715271 3.50708 1.47669
19.3618 17.0459 16.8665 -1.7277 -0.222848 -0.803851
16.4384 16.6032 16.9851 1.97545 -0.401732 0.149306
19.7358 14.3387 15.6409 0.457564 -1.41668 -0.593853
21.1177 15.3916 17.8513 -0.326573 0.282874 1.0771
24.0444 15.6168 17.7732 0.849517 0.968693 0.0550171
22.3373 14.7304 15.442 -0.76732 0.860359 0.604524
25.0577 18.0532 16.6561 -1.74929 0.832942 1.88058
22.1675 17.5414 16.6073 0.447628 -0.0954584 -2.71569
26.9424 16.1051 17.8271 0.0827972 0.461794 -1.44663
25.0726 15.6601 15.3682 0.977938 1.12312 1.39186
14.1344 21.3201 16.8718 0.0653188 0.0428619 -0.0889343
11.5786 20.6471 16.901 -1.00886 -1.94498 -0.665304
14.8352 18.7419 15.7153 -0.639186 -0.550431 -0.609167
13.153 18.835 18.3268 -0.188441 -0.733235 1.44419
17.5261 18.9999 15.8003 0.392445 -0.413439 0.097376
20.0117 21.9223 16.8673 0.10446 -2.39941 1.524
17.0719 21.587 16.8718 0.829854 0.777172 -0.375241
20.3655 19.3968 15.4012 -1.18971 1.97372 -0.36084
15.8736 19.2111 18.2138 -0.746207 0.162977 0.868721
19.1074 19.6142 18.119 1.81925 1.30741 2.59747
23.2882 19.8321 15.3818 -0.131896 0.193234 0.43711
21.8415 20.1826 17.7804 -1.27256 -0.540483 1.74522
24.5701 20.5485 17.8161 0.316984 -1.38416 1.42999
28.6435 20.9151 15.5079 0.464977 0.206914 -1.95332
25.8485 20.3381 15.2874 0.526888 -1.07192 -1.84149
27.4505 21.0517 17.8964 -0.739056 1.20582 1.41214
27.6525 18.2964 16.5324 0.335012 -1.69293 2.57761
11.4672 23.0031 17.7073 -3.24483 0.872949 0.736732
14.0723 23.8987 18.0585 1.65988 -0.740007 0.288041
12.676 22.9137 15.3944 -2.05686 1.62776 0.24893
15.315 26.172 16.7186 0.0809112 0.226091 -1.78111
15.4606 23.5586 15.3815 -1.39416 -0.355129 0.789042
16.9441 24.1883 17.9374 0.880798 -1.81662 0.0826143
19.6996 24.4137 18.0164 1.41816 0.518409 -0.607551
18.3842 23.8167 15.468 0.377324 -0.932926 0.877752
22.4283 24.9468 17.8846 -0.928546 0.0582338 1.56209
22.8049 22.5843 16.6461 0.155253 0.832812 -0.702121
23.9978 25.2308 15.6331 -0.853978 1.49211 1.5072
21.0773 24.3893 15.5286 0.824653 -1.18733 0.912834
25.7009 22.9874 16.5271 -0.747601 -0.833711 0.744661
28.0822 25.5512 17.5623 -0.278249 0.419344 -1.60586
25.186 25.61 17.871 1.07983 1.61105 0.305145
28.3009 23.2977 16.3961 0.124919 -0.364665 -0.565704
26.7331 25.158 15.2274 0.82321 1.26857 -2.62707
19.0211 28.7649 15.9394 0.551233 1.37325 -1.27089
17.4592 29.0064 17.917 -1.6697 -0.553482 1.36497
18.0198 26.4224 16.7539 -0.830758 -1.72081 -0.218866
20.4062 29.4456 17.9748 -0.0974297 1.32701 0.0902209
20.771 26.8859 16.7448 0.60522 0.422923 0.46593
23.3734 27.7087 16.5584 0.288395 2.37877 -0.162861
16.1924 12.9787 22.0225 -0.690136 -0.0209162 0.894728
19.5667 10.629 20.5223 -1.68844 -2.27257 0.630962
18.8388 12.8988 21.7691 -2.73654 0.95062 -1.22357
17.2387 12.4389 19.6 -1.10602 -0.862827 -0.933109
20.2993 12.9893 19.1431 0.83935 0.774532 -2.24317
21.5982 13.394 21.8715 -0.815821 0.339437 0.769873
24.62 11.6504 20.2032 0.112685 0.783857 -1.29565
21.9078 11.1209 20.4727 -0.504508 -2.55357 -0.49541
24.417 14.0391 21.6478 -0.245603 -1.0545 -0.606515
22.9398 13.343 19.2376 -0.313015 0.256749 -0.50915
26.8758 14.6898 21.3451 0.00622687 1.06161 0.0326395
25.6436 13.8936 18.9256 1.62296 -2.45612 -1.04975
12.4532 16.718 19.7705 -1.82707 0.858121 0.0531327
15.0697 16.8517 19.613 2.03629 1.87049 0.0298815
14.0039 14.5045 20.7459 1.01959 -2.60569 -0.76843
13.6378 17.2913 21.9977 -1.60969 1.64629 -2.45675
18.0106 17.2597 19.4416 0.741666 1.87182 -1.37238
16.416 17.5561 21.8572 0.880836 -1.13188 -0.922254
19.6308 15.3082 20.4022 0.0722004 -0.188497 1.18432
16.7869 15.0195 20.5946 1.41057 1.91705 -0.913617
19.344 17.9907 21.8353 0.919775 2.13629 -0.0269627
23.4438 18.2203 19.1483 -1.11568 1.08317 -1.09627
20.7126 17.8759 19.2636 -0.634977 3.2416 1.50975
22.6804 15.9143 20.3821 0.993032 -0.268783 1.17386
25.3643 16.448 20.1799 -2.20458 2.99594 -0.189645
28.1688 16.8229 20.1003 1.3515 -0.985824 -1.23276
11.6743 21.7642 21.8654 -0.50069 -2.28085 1.40332
14.8427 19.6003 20.5518 0.528407 0.746436 1.28133
11.8568 19.1304 20.6885 -0.925158 -0.66591 1.02045
14.1842 22.1631 21.8056 2.60201 0.259624 -0.175425
12.9205 21.2667 19.4587 -2.67657 -0.362817 0.641595
20.3856 20.2903 20.3743 0.470509 1.42245 1.02354
17.5519 19.8313 20.6141 3.66647 2.16788 -1.26577
18.5892 22.0912 19.2282 1.64382 -1.6686 -1.02445
15.6822 22.0503 19.2334 -0.886191 2.88922 0.490937
23.3775 20.9052 20.3249 -3.48662 0.853331 -0.557072
22.1708 18.5924 21.5808 -1.04807 0.528901 0.504174
25.0865 18.8862 21.4107 1.01176 -0.0192838 0.265493
26.1085 21.2356 20.2301 0.548069 -0.627728 0.0302381
29.0141 19.1416 18.8585 2.12275 -2.37453 0.142989
26.4883 18.7173 19.0614 -2.14958 -0.362433 -1.36656
28.8769 21.5353 20.1897 0.202241 -0.576673 1.54335
27.7974 19.2819 21.3105 0.569425 -0.403525 0.6834
15.2894 24.3942 20.4616 0.818104 -0.599452 0.105896
12.6222 23.8989 20.264 0.742255 1.68881 -0.794534
17.2725 22.5014 21.5775 1.46574 -1.84014 -0.104199
20.0935 22.9466 21.6463 -0.779217 -4.06874 -1.75447
18.2101 24.845 20.4081 -1.10975 -0.494484 0.678967
22.9025 23.4202 21.5541 -2.42154 -0.846476 -1.16346
21.1628 25.3768 20.3917 -0.500899 1.33303 0.62009
24.4627 23.2263 19.0813 -0.893742 -0.115951 -0.124114
21.4737 22.6139 19.2423 -2.54172 -1.11856 1.6626
23.9338 25.8154 20.151 1.35205 -1.85905 1.44034
28.238 24.0946 21.3693 1.72057 0.638472 1.77708
25.7607 23.8935 21.6089 -0.747703 1.13523 -0.221549
26.5954 26.1287 20.1776 0.851224 -0.440562 0.883653
27.1081 23.5705 19.065 -0.191247 -0.765398 0.516748
13.9523 26.2937 19.3704 1.33642 0.742905 0.921387
15.1104 27.0344 21.5555 -1.82515 1.35823 -1.20341
15.9498 29.172 20.2953 -2.04619 -0.811428 0.459653
19.358 27.4278 19.0589 -0.71273 1.73191 -1.79163
16.4855 26.6556 19.2098 -1.41922 -1.98252 -2.02394
18.7629 29.6677 20.0132 0.00940792 0.332894 -0.427434
17.8725 27.7753 21.533 2.10854 -1.07823 0.41939
21.6274 29.9638 20.255 2.94752 3.09518 0.121399
24.8892 27.8898 18.9419 -1.47554 0.80239 -0.953158
22.1587 27.51 18.8703 1.86616 -1.15672 -0.319189
23.4952 28.1215 21.4352 -1.19603 1.5206 1.91981
20.7831 27.924 21.5074 -1.14401 -0.732161 0.848247
19.9701 13.9024 24.1011 -1.36838 0.0513226 -1.2458
17.4627 13.3327 24.3743 -0.555558 1.66336 0.963889
21.9614 12.134 24.981 -0.303294 -0.362334 2.96747
23.4481 11.6856 22.8012 0.541875 1.10682 1.23551
20.7739 11.2564 22.8949 -1.45107 -3.0443 0.509696
23.0921 14.2917 23.9368 1.78128 0.410564 -0.437857
12.7446 15.0379 23.2243 -1.92266 -1.10507 -0.552144
15.064 17.7773 24.5145 0.303301 0.160303 -1.3476
12.4393 17.3378 24.4069 0.679854 -1.31431 1.25121
15.5362 15.223 23.1789 1.9079 1.51368 1.22018
14.0718 15.7699 25.6143 -2.22308 -0.789187 0.856247
18.3605 15.6481 22.8276 -1.61294 -0.205873 -0.690081
17.9511 18.1564 24.3006 0.402278 -0.0397725 0.232847
16.9588 16.0036 25.3858 0.895792 -1.63355 -0.575321
19.7809 16.393 25.2722 0.315989 2.2669 -1.13564
24.1049 16.7094 22.7097 -2.15206 -1.9131 -1.34521
21.2945 16.2005 22.881 -0.229189 0.489538 0.667109
22.8217 16.7911 25.1559 -2.44599 1.59198 2.89605
29.564 17.5269 22.6605 -0.576087 -1.19874 0.0604054
26.9278 16.9721 22.6566 -1.43026 0.700186 -0.603089
25.7455 14.7153 24.0908 0.361742 0.115631 0.221948
28.3171 17.9353 24.8281 2.791 -0.758193 -1.48403
25.6102 17.2912 25.0353 -0.726541 1.06249 -1.52325
12.2626 19.9457 25.3366 -0.706743 1.42177 -1.4443
14.9346 20.5653 25.45 1.49412 0.778636 -0.608058
13.457 19.8083 23.1204 -1.37768 -0.565161 0.546624
13.0013 22.5301 24.1954 -0.703222 2.11885 -0.291283
17.6927 21.0939 25.3427 0.110451 -0.606715 1.2094
18.8487 20.5665 22.8428 0.633559 -0.409283 -0.351359
16.137 20.2765 23.1173 0.798295 0.162168 -1.47821
20.8964 18.8866 23.9288 -0.513395 2.00316 -2.12738
23.1817 21.7095 25.0182 0.341456 -0.897863 -1.28881
20.3652 21.2586 25.3 0.847696 -0.170246 0.703512
23.6077 19.17 24.0448 1.27052 -0.588991 1.4894
24.715 21.3517 22.7025 -0.739033 -0.651401 -0.0624876
21.8408 21.1308 22.5507 -1.42012 -0.94731 -1.87017
26.5921 19.7237 24.0483 -1.67126 0.387033 0.0221006
26.0743 22.2332 25.1444 -0.0910145 0.514649 -0.526322
29.2757 20.1413 23.8388 1.62846 2.03307 1.14223
27.4468 21.8668 22.4869 -1.75181 -1.70761 -1.33114
13.9498 24.6791 22.972 0.242598 -1.6193 0.180317
15.2733 25.4139 25.1889 -1.76998 -1.14145 0.117142
19.5004 25.5968 22.6883 0.0873654 -1.43571 0.655796
16.8387 25.1997 22.8282 0.730756 -0.562147 -0.0483271
15.8029 22.9266 24.1257 0.048961 -0.307166 -0.0837815
18.2344 25.8088 25.1415 1.09148 1.42673 -1.36932
18.7146 23.2901 24.0711 -0.327585 -0.52298 1.74093
22.412 26.0847 22.6709 -1.31826 -0.862436 -0.599477
21.515 23.6981 24.0755 -0.978989 1.58731 -1.2748
20.7993 26.0612 25.1776 0.158971 -0.105364 0.217897
24.1551 24.031 23.8952 -0.544987 0.39503 -3.175
28.6953 22.4245 24.6287 -0.525174 2.39319 1.7839
26.947 24.5932 23.8721 0.257386 1.07613 0.67472
16.4825 27.4617 23.8989 -0.100214 -0.27944 1.37524
19.1973 28.0684 23.8583 0.419472 1.17289 0.372065
21.8823 28.2323 23.9411 0.528927 1.69479 0.676079
23.7 26.5474 24.9752 0.605259 1.10143 -1.17711
25.217 26.2731 22.6515 0.0964161 -0.593146 0.576115
18.8617 14.381 26.6203 -0.891204 -0.423471 -0.0625336
15.3578 16.3422 27.6382 0.0713842 -0.772854 0.692125
13.7303 18.3417 26.6584 -0.662097 -0.862772 -0.034849
18.508 16.8263 27.7158 0.946626 -0.693078 2.05844
21.2192 17.0499 27.5251 1.79153 -0.358157 -1.40937
24.2953 15.2872 26.3223 1.12647 -1.98537 1.02134
21.5857 14.5642 26.3297 1.40395 0.12183 0.0645363
24.0785 17.6436 27.445 -1.32891 -0.686211 0.308624
26.8266 18.2294 27.0958 1.22026 -1.16038 0.454732
18.0502 19.3847 28.7689 -0.512316 0.646996 2.30501
16.0509 21.2404 27.8387 1.01196 -0.229756 0.483142
19.3525 19.0537 26.5807 0.736126 -1.71512 -0.206342
16.6788 18.7707 26.6634 1.51606 1.13504 0.2206
18.8372 21.5104 27.7978 -1.64293 0.137254 -0.71799
20.3447 22.6311 29.9657 1.98716 -0.0450473 0.21855
23.474 20.099 28.5992 0.435882 0.869681 0.902496
20.6288 19.5653 28.8058 -0.451526 -2.14548 1.64345
21.8823 22.0098 27.77 0.369602 -1.12968 -0.744835
22.0974 19.4747 26.5832 -0.829033 -1.58855 -1.26729
24.9211 20.0952 26.3859 -0.0826266 0.16078 0.628341
27.9214 20.3498 26.1874 2.33553 -0.415267 1.2777
14.342 22.9531 26.3441 1.1389 2.46642 -0.437433
16.9561 25.93 27.4133 -2.26859 1.69736 -1.50032
19.8898 23.7106 26.5885 -0.136093 1.14661 0.508049
16.8795 23.5104 26.5704 -0.191697 -1.64061 -0.644383
18.5247 24.0322 28.8692 -0.507525 -0.721991 -0.724501
22.7823 24.1494 26.4154 3.11048 -2.35377 -1.39428
21.3087 24.56 28.8244 0.329058 0.456357 -1.66786
24.692 22.5108 27.5965 -0.339801 -1.89173 0.865023
25.3458 24.5424 26.2134 2.00081 -1.00928 0.495397
19.6141 26.1519 27.6471 -0.167888 1.33168 0.818222
22.1252 26.7053 27.3422 2.63359 0.402592 1.97776
ITEM: TIMESTEP
2000
ITEM: NUMBER OF ATOMS
249
ITEM: BOX BOUNDS ss ss ss
1.1113709408739933e+01 2.9676290648780750e+01
1.0514647803638564e+01 3.0275352042769871e+01
1.0598770672290989e+01 3.0191229441915901e+01
ITEM: ATOMS x y z vx vy vz
18.5082 13.7779 13.6751 -1.28426 -1.73588 -0.436882
21.3507 14.1766 13.3673 -1.46304 -0.247384 0.385865
15.1326 16.0117 14.687 0.280773 -0.439252 0.376882
17.7212 16.3074 14.3495 -0.266971 0.528234 1.38804
16.1443 18.157 13.0715 -0.492383 0.693921 1.47122
19.5504 15.5088 12.1951 -2.04271 -0.0765656 0.987558
20.7446 16.9365 14.2909 -0.903263 0.393579 -0.612734
24.155 14.8362 13.3113 0.770193 -0.955549 -0.838109
24.0637 17.4196 14.1181 -0.182207 0.318158 0.317628
22.4208 16.2696 12.2046 1.49022 0.806911 -2.30901
26.7405 17.7121 14.3468 -0.548724 -0.835064 -0.943944
15.7934 20.8606 14.2585 1.30695 -0.362326 -0.559423
12.7153 20.3063 14.6813 0.583982 -0.743434 -0.574604
17.4172 21.1072 12.0739 0.335631 1.16049 -1.72463
20.4052 17.8581 11.3253 -0.243771 -3.78154 -0.510864
20.0674 20.9697 11.89 2.42726 -0.572926 0.169946
18.7676 18.7949 13.0037 1.95223 0.108492 0.252556
18.6483 21.2141 14.3356 -0.775579 0.0852282 -0.695798
22.6146 21.6626 11.8143 -0.461777 -1.0916 2.47969
21.3501 21.8828 14.296 0.0453704 -0.43477 0.180657
24.644 19.8043 12.9274 -0.206051 0.457947 1.12495
21.8792 19.309 12.9697 -0.793721 -0.43635 -2.16202
24.116 22.6234 13.8911 -0.762199 -1.08669 -0.105933
14.099 22.517 13.3154 -2.3242 1.36261 -0.824088
16.6559 25.8695 14.4043 2.27894 -0.432345 0.333668
19.6969 23.553 13.1509 0.0831721 1.61246 1.60038
16.7295 23.3827 13.1674 1.00048 -0.650861 -1.14175
19.429 26.0644 14.2792 -0.550069 1.88974 2.66437
22.2258 24.3506 13.0337 -0.855135 -0.389325 -1.5171
25.2724 24.8826 13.1326 -1.07031 0.50932 -1.73166
26.9705 22.9607 14.2594 0.340807 -0.933551 0.71354
21.9781 26.6797 14.2596 -0.599706 -0.862733 0.230217
15.4161 14.3782 18.1764 -1.1912 -0.901603 -0.872196
18.4936 12.3442 16.772 0.679391 0.733929 0.986659
16.8259 14.1108 15.7034 0.756225 1.54631 -1.51887
24.1929 13.2459 16.6439 -0.236023 0.107784 0.946469
21.6584 12.8496 16.5154 0.704236 0.128167 -0.992333
12.0034 18.219 15.9733 -2.62373 1.5243 -1.83489
13.7699 16.1843 17.108 2.51716 0.123354 -0.257994
18.1757 14.8899 18.0531 1.08448 -1.19681 -0.24083
19.2329 17.093 16.5076 -1.90248 0.576857 0.581536
16.5415 16.7354 16.8891 0.296069 -0.328081 -1.1132
19.6302 14.5525 15.7446 1.23444 -0.677826 0.649632
21.1184 15.3109 17.9232 1.28543 -3.12536 0.97293
24.0098 15.7521 17.8555 -1.51486 -1.72262 -0.788579
22.8145 15.2111 15.431 -1.10229 1.16902 -2.63385
25.0928 17.939 16.5106 1.05311 -0.441222 -4.27569
22.1605 17.5985 16.5547 2.55095 0.368733 1.36869
26.8641 16.2427 17.8595 1.43354 -0.421487 -0.107148
25.6423 15.3395 15.5517 -0.0796987 0.205428 1.58057
14.1417 21.2359 16.8682 0.573974 1.39679 -1.60675
11.4183 20.8449 16.9645 -1.40787 0.252043 -0.0794831
14.5336 18.3996 15.3909 0.409362 -0.142774 2.97012
13.0752 18.7332 18.1213 -0.596186 -0.0547871 -0.0460759
17.4185 18.9148 15.3482 -0.369218 0.352021 1.31762
19.8978 22.0083 16.6794 -0.712183 -0.234776 3.50526
16.9354 21.5571 16.575 0.811297 -1.10221 -0.763452
20.311 19.4245 15.398 -1.87816 -0.381779 0.559831
15.8111 19.1815 18.0732 3.20334 -1.35022 0.989734
18.8249 19.7304 17.8525 0.257652 -1.38079 -1.65939
23.3477 19.7939 15.1238 0.48314 2.14798 -0.273226
21.8478 20.2721 17.5759 3.09372 1.16992 -0.0620088
24.7766 20.3438 17.763 0.96733 0.473521 1.34834
28.2973 21.0645 15.5466 1.90126 -0.9987 0.0593231
26.1499 20.3294 15.0213 0.669098 -1.68124 2.01056
27.5629 20.8973 18.0207 -0.769128 -0.653258 1.73311
27.7443 18.5259 16.607 -0.119564 2.04265 0.441493
11.5772 23.2996 18.1865 -1.04027 1.78872 -1.04548
13.9829 23.7148 17.9432 0.144669 1.96124 1.13526
12.6309 22.832 15.4982 0.843061 1.38953 0.72733
15.2578 26.1172 16.7578 -0.622963 -0.371544 0.132266
15.3589 23.6521 15.5275 0.787177 0.841728 2.72863
16.8512 24.3879 17.8535 0.989373 0.887151 -0.439061
19.6994 24.7178 17.8927 -0.399648 -0.710984 -1.58191
18.1242 23.9169 15.432 -0.415941 0.993671 -0.28112
22.5468 25.1913 17.9354 1.36486 0.472292 0.228195
23.196 22.5891 16.3941 0.613458 0.989063 -1.7339