ITEM: TIMESTEP
0
ITEM: NUMBER OF ATOMS
260
ITEM: BOX BOUNDS ss ss ss
1.2542982209690159e+01 2.8247017790309879e+01
1.1665213005933538e+01 2.9124786994066458e+01
1.1551286695125061e+01 2.9238713304874945e+01
ITEM: ATOMS x y z vx vy vz
17.5839 14.0473 15.8543 -1.04909 -0.00670511 0.843878
19.2005 15.0663 14.1507 0.673078 0.772073 0.993389
21.1579 14.6133 15.7372 0.218863 -0.151499 0.690343
22.7745 15.6322 14.0337 -0.416286 -0.297466 0.063153
24.7319 15.1792 15.6202 0.80384 1.55058 -0.28096
15.1599 17.7593 15.7742 -0.295105 1.46271 1.01425
14.7561 20.1247 14.8824 -1.12139 -0.824772 1.4357
17.1802 16.4128 14.9625 -1.03792 -0.438018 1.87484
18.7338 18.3252 15.6571 -0.777914 0.0489784 0.356687
16.7764 18.7782 14.0706 1.46914 2.2477 0.543013
18.7968 17.4317 13.2589 0.769723 0.574173 0.796515
20.3504 19.3441 13.9536 -1.26576 -0.0537826 0.506246
18.393 19.7971 12.3671 1.03075 0.479513 -1.16395
20.7542 16.9787 14.8454 1.07494 -0.0583957 -0.216349
22.3078 18.8911 15.54 -0.498046 0.231005 -0.213455
20.8171 16.0852 12.4472 0.523095 0.722325 -1.74185
22.3707 17.9976 13.1418 -1.04235 -1.25349 1.4521
23.9244 19.91 13.8365 -0.665098 1.63814 -0.854781
20.4133 18.4507 11.5554 0.639179 2.21544 -0.69731
21.967 20.363 12.25 -1.04314 0.703064 -1.47743
24.3281 17.5446 14.7283 1.02392 0.459576 0.729717
25.8818 19.457 15.423 -0.168788 2.38993 0.0308236
12.7358 21.4712 15.6941 0.46005 -0.666196 0.799972
16.3098 22.0371 15.577 -0.847721 -0.593293 0.238503
14.3524 22.4901 13.9905 -0.00291187 -1.7523 -0.615178
15.906 24.4025 14.6852 -0.587305 0.569785 0.960808
16.3727 21.1436 13.1788 -0.146133 -1.63194 -0.337835
18.3301 20.6906 14.7653 -0.186321 -0.957561 -2.12671
19.8837 22.603 15.46 -1.46647 -0.782497 -0.779659
17.9263 23.056 13.8735 2.15735 -1.2179 2.26724
19.9467 21.7095 13.0617 -0.021299 1.82447 2.00342
21.9041 21.2565 14.6482 -2.22755 1.50509 -0.33733
23.4577 23.1689 15.3429 0.783099 -0.108702 0.109174
21.5003 23.6219 13.7564 0.70324 -0.197103 0.300946
23.5206 22.2754 12.9447 -0.848682 -0.17931 0.744499
25.478 21.8224 14.5312 -0.888438 -0.393289 -0.742261
27.0317 23.7348 15.2258 -1.59028 -1.29091 0.0892888
25.0743 24.1878 13.6393 -0.239723 -1.30825 1.29317
17.4597 26.3149 15.3799 -0.852705 0.454677 0.0741696
19.48 24.9684 14.5681 1.491 -1.61075 0.933627
21.0336 26.8808 15.2628 -0.3299 -0.674978 2.67873
23.054 25.5343 14.4511 0.711869 -1.17874 0.328913
13.9471 14.3749 18.3696 0.75651 -0.0045215 0.46962
15.9674 13.0284 17.5578 0.865469 0.518816 -1.11123
15.5636 15.3938 16.666 0.538733 0.206206 1.69068
15.9045 13.9219 19.956 -1.49803 -0.126207 -3.41987
17.521 14.9408 18.2525 -0.834536 2.13996 -2.61023
19.5414 13.5943 17.4408 -2.27212 -0.372422 -0.549502
19.1376 15.9597 16.5489 1.75506 -0.478749 -0.524921
17.9248 12.5754 19.1443 -0.473258 -2.55054 -2.73554
19.4784 14.4878 19.839 -0.55916 -0.889193 -0.68776
21.095 15.5067 18.1354 -1.92214 0.401722 -0.425243
23.1153 14.1602 17.3237 1.10822 -0.529921 -1.369
21.4988 13.1413 19.0272 0.847305 1.91671 0.412487
23.0524 15.0537 19.7219 -0.90053 -1.89108 0.00408746
26.6893 14.7261 17.2066 2.43664 -1.09653 -0.799649
25.0727 13.7072 18.9102 1.47675 -0.558203 -2.33035
26.6264 15.6196 19.6048 0.116439 0.35749 -0.950489
13.4804 17.6338 19.8759 1.07575 1.03721 0.282049
15.5007 16.2873 19.0642 0.0668498 -0.204946 1.07931
13.0766 19.9992 18.9841 -0.0501225 0.884038 -0.921426
13.5433 16.7403 17.4777 -0.590869 0.449298 -2.07741
15.097 18.6527 18.1724 -1.48975 -0.52557 -0.735731
13.1396 19.1057 16.5859 -0.434859 -0.0165016 0.829633
17.0544 18.1997 19.7589 0.411282 -0.00837128 -0.469978
19.0747 16.8532 18.9471 -0.659535 0.00217832 -0.330207
17.1173 17.3062 17.3607 0.417434 0.600771 1.47409
18.6709 19.2186 18.0553 -0.204733 -0.587664 -0.760964
16.7135 19.6716 16.4688 0.618191 -0.480299 1.70796
20.2875 20.2375 16.3518 -1.03827 0.217798 0.407684
20.6283 18.7656 19.6418 1.00584 0.525889 1.02858
22.6487 17.4191 18.8301 -1.80634 -1.20006 1.04929
24.2023 19.3315 19.5247 1.14254 -0.42703 0.180124
20.6912 17.8721 17.2436 0.179677 -1.32554 0.618324
22.2449 19.7845 17.9383 0.0046192 -0.178036 -0.504224
22.7116 16.5256 16.4319 0.966356 -0.114004 0.01815
24.2652 18.438 17.1265 0.223633 1.2845 0.558469
24.669 16.0726 18.0184 0.802508 2.05768 -0.512302
26.2226 17.985 18.713 0.729661 -0.942097 1.57786
27.7763 19.8974 19.4077 1.7003 -0.678784 -0.158691
28.2429 16.6385 17.9013 0.283615 -1.91201 -0.0337153
25.8189 20.3504 17.8212 1.23441 0.568284 1.12056
26.2855 17.0915 16.3148 -0.310679 -0.402963 -0.172701
27.8392 19.0039 17.0095 0.597586 -0.877993 0.827197
28.18 17.532 20.2995 1.42409 0.0823086 -1.45553
14.6303 21.9116 19.6788 -0.776939 -0.0939607 -1.87112
16.1839 23.824 20.3734 1.56994 0.0385115 -0.912301
12.6729 22.3646 18.0923 -1.64355 0.934602 1.46023
14.2265 24.277 18.787 -0.613772 1.46251 -0.541035
14.6932 21.0181 17.2806 -1.23065 -0.43371 -1.52986
16.2469 22.9305 17.9752 0.647125 -0.665708 2.36378
14.2895 23.3835 16.3887 -1.18724 -0.566961 0.366781
16.6506 20.5651 18.8671 0.947971 -1.5287 -1.82905
18.2043 22.4775 19.5617 -1.35221 -0.579553 -2.02442
19.7579 24.3899 20.2564 0.190605 0.76144 -1.13634
20.2246 21.131 18.75 -1.71619 0.0784414 -1.13174
18.2672 21.584 17.1635 0.878082 0.126135 0.913025
19.8208 23.4964 17.8582 3.57031 -0.700233 0.380028
17.8634 23.9495 16.2717 -1.09427 -0.317669 0.837249
22.182 20.678 20.3365 -1.50064 -0.683431 -2.31031
21.7782 23.0434 19.4446 -1.8827 2.00636 0.300664
23.7985 21.6969 18.6329 -0.910346 -0.167165 1.68772
21.8411 22.1499 17.0464 -0.907305 -2.15467 -0.395858
23.3948 24.0623 17.7411 0.983884 1.01899 -0.214203
23.8615 20.8035 16.2347 1.33389 -1.215 -2.32601
21.4374 24.5154 16.1546 -0.0761466 0.795054 1.35368
25.756 21.2439 20.2194 -1.24048 0.350147 0.374636
25.3522 23.6093 19.3276 0.231357 -0.60872 -0.277038
27.3725 22.2628 18.5159 -0.37608 -0.532423 -1.67128
25.4151 22.7158 16.9294 -1.0522 0.0570596 1.2561
26.9688 24.6282 17.624 -0.31313 -1.1771 0.743595
27.4354 21.3694 16.1176 -1.15098 -1.21964 0.933863
15.7802 26.1894 19.4816 0.622855 0.193003 -1.29357
15.8431 25.2959 17.0834 -0.478082 -0.157064 2.9706
17.3338 28.1018 20.1763 -0.368024 -0.717772 -1.41159
17.8005 24.8429 18.6699 0.0283474 -0.41699 -0.515423
19.3542 26.7553 19.3645 -0.383338 -1.10119 0.831391
17.3968 27.2083 17.7781 -0.407249 2.0789 0.164726
18.9504 29.1207 18.4727 -0.197665 -0.920658 0.221922
19.4171 25.8618 16.9663 -0.392951 -1.55503 0.349337
19.0133 28.2273 16.0745 1.27365 2.05199 -0.428005
23.3319 24.9558 20.1393 0.576979 2.37026 -3.01204
20.9078 28.6677 20.0592 -1.268 -0.28815 2.17867
21.3745 25.4088 18.5528 0.343421 0.72351 0.410004
22.9281 27.3212 19.2475 1.49595 0.993897 0.418729
20.9707 27.7742 17.661 -0.10524 -1.69168 -0.262987
22.991 26.4277 16.8493 -0.0551487 -0.27696 2.05956
26.9058 25.5217 20.0222 0.218412 0.879889 1.23775
24.9484 25.9747 18.4357 0.0205144 -0.781635 1.34807
25.0114 25.0813 16.0375 -0.114177 -1.23439 -0.828968
13.8842 15.2683 20.7678 -1.09204 0.296396 -0.67884
15.8416 14.8153 22.3543 0.215099 0.432429 -0.178833
15.7786 15.7087 24.7525 -0.49104 2.51967 0.511886
17.4581 15.8342 20.6507 1.33543 0.0134874 1.69608
17.8619 13.4688 21.5425 0.745159 -0.639981 0.824391
19.4155 15.3812 22.2372 -2.43021 1.2719 0.421092
19.8822 12.1223 20.7308 0.698167 -0.198819 0.757419
17.799 14.3623 23.9407 -2.69395 -0.670212 0.238494
19.8193 13.0158 23.129 2.26507 1.191 -0.0152279
21.4358 14.0347 21.4255 0.100773 -1.03243 0.483216
22.9895 15.9471 22.1201 -1.35459 -1.39785 -0.717295
23.4562 12.6882 20.6137 1.53911 2.10504 0.921046
21.3729 14.9282 23.8237 -1.38251 1.71319 -0.349861
21.8396 11.6693 22.3173 1.35879 -0.236791 -0.480102
23.3932 13.5817 23.0119 2.65714 -0.479651 0.20801
21.7767 12.5627 24.7155 -1.56639 0.261997 -1.42383
25.0098 14.6006 21.3084 1.69108 -0.99212 0.506911
24.9469 15.4941 23.7066 0.972301 0.174305 -2.35002
15.034 19.5461 20.5706 1.44071 0.483938 0.449879
13.4175 18.5272 22.2741 1.10475 -0.521503 0.712749
15.4378 17.1807 21.4624 0.543897 -1.18377 1.02953
13.3546 19.4206 24.6724 -1.50413 0.135313 -1.28167
13.8212 16.1618 23.166 0.705049 -0.955569 -0.781574
15.3749 18.0742 23.8606 -0.974083 0.853105 1.68148
18.608 20.112 20.4535 -1.0768 0.995971 -1.06067
16.9915 19.0931 22.1571 1.30293 -1.13349 -0.849093
19.0118 17.7466 21.3454 0.19203 0.477812 -1.09659
16.9285 19.9865 24.5553 -0.587984 0.450734 1.97935
17.3952 16.7277 23.0489 1.0329 -1.31132 -0.255793
18.9489 18.6401 23.7436 -0.407212 -0.68656 1.7281
19.3526 16.2746 24.6354 0.100833 2.68452 -0.509107
20.5654 19.659 22.04 -0.428154 -2.42403 -1.00469
21.0321 16.4001 20.5336 -0.420892 -2.67075 1.09851
22.5857 18.3125 21.2283 -0.177671 -0.577652 1.05453
24.1394 20.2249 21.9229 -0.0685855 -0.972385 1.34629
20.9692 17.2936 22.9318 -0.676807 1.28856 0.357351
22.5228 19.206 23.6265 0.203646 1.57233 -0.654033
22.9266 16.8405 24.5183 -1.83546 0.263814 0.295923
24.6061 16.966 20.4166 0.329331 0.0382197 -0.23701
26.1597 18.8784 21.1112 0.326984 -0.59424 -1.40084
24.5431 17.8595 22.8148 -1.74419 -1.20449 0.572854
26.0968 19.7719 23.5094 -0.296539 0.474563 0.195127
26.5635 16.513 22.003 -1.01302 -0.697367 -0.548189
28.1171 18.4254 22.6977 -2.35144 -2.17256 1.01532
26.5005 17.4065 24.4013 1.22885 0.440586 2.16782
12.5471 24.1515 22.8887 1.11775 0.392495 1.03724
13.0137 20.8926 21.3823 1.87617 -0.809791 -0.357304
14.5674 22.805 22.077 -0.190404 1.61916 -1.58212
16.121 24.7174 22.7716 -1.71445 1.30236 0.432404
12.61 23.258 20.4905 1.08195 1.57525 -1.86202
12.9508 21.7861 23.7805 -0.839574 -1.41985 -1.17648
14.5045 23.6985 24.4752 1.7753 -1.10326 0.706681
14.9711 20.4396 22.9688 0.6565 1.95994 -1.93804
16.5877 21.4585 21.2653 -1.37007 1.18467 0.889738
18.1413 23.3709 21.9599 -0.0403832 0.552228 0.153735
20.1617 22.0244 21.1482 1.05508 -0.208521 0.747372
16.5248 22.352 23.6635 0.560702 0.131158 0.208166
18.0784 24.2644 24.3581 -2.57313 0.464427 0.779204
18.5451 21.0055 22.8517 -0.441151 1.64139 -0.151516
20.0988 22.9179 23.5464 -0.249528 -0.691044 0.296709
21.7153 23.9368 21.8429 0.91105 -0.784415 1.08356
23.7356 22.5903 21.0311 0.0384596 0.284662 1.15046
22.1191 21.5714 22.7347 -0.503783 0.605954 -1.61319
23.6727 23.4838 23.4293 3.11173 -0.810311 0.271709
20.5025 20.5525 24.4382 -0.655672 -0.35222 0.546308
24.0765 21.1184 24.3212 -0.730674 -2.36987 -0.428264
25.2893 24.5027 21.7258 -0.47998 -1.2901 -0.128079
27.3096 23.1562 20.9141 -0.192468 0.205299 1.54919
25.693 22.1373 22.6176 0.504336 0.188734 -0.917165
27.2467 24.0497 23.3123 0.392515 0.750338 0.561387
27.7134 20.7908 21.8059 1.876 1.05206 1.52911
27.6504 21.6843 24.2041 0.691193 0.802449 -0.778758
14.1007 26.0639 23.5834 0.931679 0.134763 -0.00210612
14.1636 25.1704 21.1852 -0.523986 0.258172 2.13686
15.7173 27.0828 21.8798 -0.327411 -0.905242 -0.21366
17.6747 26.6298 23.4663 0.465133 0.435572 -1.04416
19.695 25.2833 22.6546 -1.45084 -0.417153 0.492223
17.7376 25.7363 21.0681 0.0627673 -0.30122 -0.373006
19.2912 27.6487 21.7628 -2.06453 -0.362602 -1.99346
21.2486 27.1957 23.3492 0.843914 -0.302786 -0.132705
23.269 25.8492 22.5375 -0.0264847 -0.558447 0.451634
21.3116 26.3022 20.951 -1.25652 0.512701 0.517127
22.8652 28.2146 21.6457 -1.24571 -0.646787 -1.24938
21.6524 24.8303 24.2411 -1.62933 -0.00575488 -1.07074
24.8226 27.7616 23.2322 2.12269 -0.387847 0.504232
26.8429 26.4151 22.4204 -2.86568 -1.88702 -0.384753
24.8855 26.8681 20.834 0.21635 1.21642 0.495982
25.2264 25.3962 24.124 0.459041 0.84938 0.135688
17.736 15.2557 26.3389 1.73828 0.242247 1.95282
19.7564 13.9092 25.5272 -0.91662 -1.56317 0.83954
21.31 15.8216 26.2219 -0.660978 -0.150963 0.159148
23.3303 14.4751 25.4101 1.56682 -1.87001 1.24783
13.7583 17.0552 25.5642 0.451596 -0.0503215 -0.0165569
15.312 18.9676 26.2588 -0.603107 -2.24454 -1.71468
15.7157 16.6022 27.1507 0.135621 0.835756 -0.897873
17.3323 17.6211 25.4471 -0.586535 0.369094 1.572
18.8859 19.5335 26.1418 0.529655 0.471754 -1.3478
17.2694 18.5146 27.8453 -1.75947 1.60525 0.400071
19.2897 17.1681 27.0336 1.26417 0.332505 0.719633
20.9063 18.187 25.33 0.109341 0.811158 0.604755
22.4599 20.0994 26.0247 0.489314 0.340945 -2.72489
20.8433 19.0805 27.7283 -1.74451 -0.678152 0.0442614
22.8637 17.734 26.9165 0.155617 5.56574e-05 0.575325
24.4802 18.7529 25.213 0.163808 0.689125 -1.05635
28.0542 19.3188 25.0959 -0.955357 0.372375 0.264177
24.4173 19.6464 27.6112 1.80874 1.50011 -0.047557
24.884 16.3875 26.1048 1.95836 -0.281464 -0.706886
26.4376 18.2999 26.7995 -0.0843937 0.641539 0.994896
14.9082 21.333 25.367 1.18157 0.720843 -0.387949
16.4619 23.2454 26.0617 -2.1846 0.768606 0.516382
18.4822 21.8989 25.25 -0.173698 -1.43214 -2.19904
20.0358 23.8113 25.9446 -0.691457 2.16645 -0.594458
16.8656 20.88 26.9535 -1.3008 0.937158 -1.29515
18.4193 22.7924 27.6482 1.42285 -0.0398981 -0.141288
19.9729 24.7048 28.3428 1.2001 1.40136 0.95869
18.823 20.427 28.54 0.826214 -0.620192 -1.03174
20.3767 22.3393 29.2346 4.61546 -1.18007 0.420315
22.0562 22.4648 25.1329 -1.09738 0.627758 -1.03916
23.6098 24.3772 25.8275 0.157636 -1.03125 -0.403382
20.4396 21.4459 26.8364 2.84362 -1.00655 1.29377
21.9932 23.3583 27.5311 -1.29538 0.298732 -0.270756
24.0136 22.0118 26.7194 0.183962 0.0679491 0.975291
22.397 20.9929 28.4229 -1.23491 0.499983 -1.42231
25.6301 23.0307 25.0158 1.47075 -0.396183 0.291556
26.0339 20.6653 25.9076 1.04534 1.52111 0.199511
16.0581 25.6108 25.1698 -2.89119 0.547211 -1.68937
19.6321 26.1767 25.0528 0.103315 0.0795919 -1.62095
18.0155 25.1578 26.7563 0.186775 0.0942191 0.690332
23.2061 26.7427 24.9357 1.2297 2.36067 -0.683761
21.5895 25.7237 26.6393 -0.349095 0.123145 -0.584755
ITEM: TIMESTEP
1000
ITEM: NUMBER OF ATOMS
260
ITEM: BOX BOUNDS ss ss ss
9.7920496691155812e+00 3.1232780088942430e+01
9.3621628726217523e+00 3.1529186621426145e+01
9.0307548369072368e+00 3.1853867069179600e+01
ITEM: ATOMS x y z vx vy vz
17.2121 12.4742 15.4462 4.63266 5.21446 3.6135
18.6936 15.2249 12.6804 -1.31891 3.17614 3.17321
21.5212 14.6316 12.7599 -1.65523 0.302605 -5.59834
23.3282 15.0209 11.3401 -0.58824 -2.21414 1.69569
26.2044 13.8327 13.8671 -1.97252 0.659248 -1.55362
11.8173 17.4527 17.1576 -3.27048 -1.01378 2.40886
11.6264 20.5355 12.9921 3.34913 -0.58471 2.28635
16.871 14.6216 13.8115 -0.495241 2.9655 0.573592
16.8161 16.9735 11.0373 -3.98593 0.986145 -2.38582
17.5222 19.6746 11.8686 1.58048 1.34325 0.435213
18.9135 17.3971 10.3928 0.660296 4.44884 2.2253
19.6084 20.2065 13.157 -1.20703 3.75861 2.85875
18.9982 19.543 9.57069 0.378074 0.14128 1.85655
21.1941 17.5153 11.8692 -0.371751 1.24032 1.34842
24.6141 18.5266 11.6924 -0.699499 4.42554 -0.714236
20.6635 15.2711 10.4686 2.84589 -1.00057 1.80418
23.4849 17.1848 9.84604 6.27675 -0.664844 -2.02025
23.338 20.9502 12.8566 1.12915 1.56277 3.85752
21.1441 17.2178 8.95161 1.28034 -0.635855 -2.41782
21.7456 19.6585 11.3269 -1.36828 6.70645 4.42695
25.284 16.1203 12.5029 2.19464 -1.29686 2.15278
27.2453 18.7387 16.188 -0.633576 -4.43082 2.89112
9.94529 21.5462 13.8718 1.48689 -1.05744 1.92941
14.971 22.0446 13.795 -5.32502 0.700766 -1.07642
12.6249 22.3443 11.8828 -0.893594 -4.68994 1.09697
13.9906 25.4324 14.6731 -3.61199 1.23697 4.99789
14.3306 20.2246 11.8717 -2.43328 2.08249 0.60941
17.8711 22.446 14.2791 5.66534 3.03361 4.64894
18.3238 23.5208 11.9897 -2.13916 1.07695 1.53669
15.4024 21.5502 10.5909 1.16938 -3.52244 -0.00155616
19.1284 21.3865 10.499 -1.50824 -2.70607 -1.80126
22.7617 23.7241 13.1141 -4.6328 0.693523 -0.102272
25.9623 22.1568 13.5857 2.43285 -2.20973 -0.827419
22.1433 25.4407 11.5881 -2.16085 6.91876 -0.140338
24.3171 23.1369 11.5121 1.32005 0.0585312 -2.87434
27.9155 22.146 11.8465 1.62349 -8.42924 -1.52079
27.8753 23.2252 14.2607 -5.63252 -3.43402 2.05799
26.7851 24.6932 12.2992 -1.99264 0.955538 1.5605
17.038 28.454 14.3208 -5.11429 -4.44048 -0.0463718
18.3856 27.8515 12.6477 0.684716 -0.23959 3.36375
21.2338 28.807 14.4534 3.35269 0.600532 -1.90767
24.5204 26.1437 11.802 0.495666 -5.28702 2.85908
11.9567 12.2648 17.5123 0.802435 3.91487 3.44738
15.3041 11.6422 17.5817 5.55862 0.750694 0.324601
14.9341 13.3034 14.1627 0.106551 -2.50224 -0.116532
13.7392 12.042 19.7779 -2.84758 5.28624 0.579112
17.0896 13.6237 18.1248 1.18392 1.10757 -1.6509
19.3976 12.9463 17.3404 -1.97276 3.60665 6.44547
19.5779 13.4115 14.3757 1.30101 0.396171 -2.27374
16.9851 9.79325 16.8147 1.13174 -5.14404 -5.27846
21.0221 10.7911 18.2698 2.2217 3.5166 0.255519
21.5046 12.762 15.9263 -5.50409 1.58622 -3.58351
25.8578 12.0661 15.8617 0.386255 -2.35343 -0.46284
22.6366 9.46477 20.1457 -2.29175 4.06231 1.6357
22.8539 12.5938 19.8166 6.29205 -2.06686 1.72846
27.6773 12.996 15.9746 -3.06067 -1.4701 -0.154072
27.3798 12.1629 19.1143 -2.36313 -0.734722 1.13398
29.7327 13.6262 17.9753 -0.0450377 -3.25512 -3.18032
10.9112 16.6846 19.5791 -0.0826817 2.72395 -4.58958
14.5699 14.2839 16.8757 4.18329 4.10433 -5.46078
10.5133 19.1653 18.2542 -1.69669 1.04772 0.593343
11.862 14.8833 17.9289 2.47566 -2.41688 6.89116
13.4847 18.087 19.2995 0.755524 -3.2054 3.06084
10.0582 19.0994 15.0864 -1.61476 2.39275 -1.14863
14.0224 15.0068 19.288 -2.32327 -4.45119 -0.64518
20.6651 13.6905 19.31 -1.41024 0.964945 0.975724
14.2472 15.6347 12.8397 0.815405 -1.7018 -1.22536
15.7127 22.8946 16.4596 0.154701 8.63747 -0.647752
15.7424 17.6743 12.7594 4.46844 -3.64656 1.29544
20.3564 23.1546 13.908 0.00911865 1.49113 1.79639
23.394 15.1657 19.1565 0.288797 -6.48406 0.941654
23.473 12.8747 17.0763 2.52703 -8.5318 3.40845
27.1657 19.4977 18.9591 1.5174 2.61955 -0.592955
22.1687 15.0019 15.415 2.8875 0.63656 2.44974
24.0265 15.9173 17.1501 -0.15085 -2.24215 -2.03186
24.0521 14.0883 13.772 2.32361 0.00111111 -2.002
27.1923 16.3237 14.5025 2.10782 -0.0416341 1.54897
27.001 14.8582 17.5695 2.70439 -2.34945 0.759906
29.0086 16.6007 19.0967 1.18521 -2.48471 -0.287249
31.1846 17.5722 20.1592 -1.71384 0.0346995 2.4951
31.2283 15.4802 17.4108 1.32728 4.11371 1.07605
29.6196 20.1755 17.6447 -1.76833 -0.0972319 -2.36085
28.6587 16.079 16.1877 -1.36567 6.98165 -1.88346
31.1448 18.2932 17.6403 2.33997 2.65694 2.7881
31.1991 15.0782 19.7132 2.58905 -1.8029 0.767955
10.2108 21.8671 18.9045 -3.19834 -1.49167 2.58903
12.5119 26.7778 19.585 -2.50634 -1.06328 -3.34638
9.73106 21.5973 16.4937 -1.35381 -1.70647 -1.73854
11.1525 24.7183 16.4063 -5.13853 -1.27009 -6.7162
11.873 20.0074 16.1416 -0.968433 0.206138 -0.452068
11.6678 25.9443 14.4722 0.32151 -5.77912 -4.66494
12.3691 22.6207 14.9198 3.32387 -1.54784 0.267158
12.708 22.0801 18.0749 -3.73455 2.05279 -4.90459
13.7204 23.8982 16.4461 1.72675 -4.40639 -3.65215
20.4205 28.9472 21.1176 -0.072466 -2.52323 -0.0985264
22.7942 21.3047 14.6728 2.15157 -4.21243 0.947105
16.9277 25.1595 15.4797 -0.631298 0.0813365 -1.10896
19.1797 27.3454 14.8191 3.96871 4.59182 -3.37561
16.8956 25.4092 12.9946 0.680697 3.94817 0.668172
27.6509 16.2563 23.4353 3.52163 -1.29253 -0.845392
23.5827 24.1884 16.5863 0.474142 -1.90214 0.245079
27.5142 21.1997 16.7179 4.77717 -2.17139 -2.33708
23.98 25.4292 14.0754 1.39494 7.94313 -5.87445
24.0956 26.8457 16.7555 0.591016 3.22236 -0.549971
25.4185 19.8358 14.1068 -7.063 -2.59656 4.36017
20.8855 27.5287 12.837 -0.302252 -1.36681 -4.30696
29.3083 22.1729 20.261 3.49902 -0.757509 -2.79966
28.5646 23.702 18.3091 1.62057 -2.10681 0.957454
29.6204 21.3625 15.8495 -0.227247 -3.91755 -0.604504
25.7543 24.2395 16.1144 0.508913 0.202666 3.84707
27.7075 25.2669 17.1159 -4.44665 2.15248 4.48114
27.786 20.6316 14.1436 0.0335725 0.441862 -2.3464
14.2181 27.6144 20.3917 0.693575 -0.0664631 0.976759
15.6815 27.4487 16.1873 -1.2289 1.80517 -6.13713
15.7002 30.1679 19.6319 -1.123 5.78153 1.36425
15.8719 28.2902 17.9681 4.86301 2.90817 3.00868
18.2919 28.7809 18.7498 -0.440975 -1.61713 2.32743
16.7475 30.1858 16.5791 1.2355 -2.04218 -0.860344
18.2248 31.3444 19.0154 1.39982 0.564902 4.55848
21.2729 27.3117 16.6572 5.06046 -5.19704 0.491318
18.7685 30.0073 14.5647 -3.41645 -1.31094 1.75925
24.7273 27.9563 18.9056 -2.54197 -5.92025 0.285938
21.112 31.0223 19.6676 2.94077 4.69404 -5.56252
22.7065 29.2669 17.0336 1.15983 2.44184 0.488788
22.6032 28.8996 19.711 -1.26631 -3.18105 2.3212
19.7033 29.915 16.9644 -3.1369 1.05755 -0.322475
23.7394 27.9756 14.8253 1.57804 -3.84587 -2.51573
27.9759 27.2873 20.1607 -1.35494 -2.24535 -7.10346
26.387 25.7988 19.4394 -3.3219 -1.27551 1.53156
26.3983 26.5305 13.463 -0.743125 5.39892 -2.09381
11.8145 13.3503 20.2606 -0.874683 2.85896 -2.9855
14.226 14.1856 22.9582 2.0708 -4.31422 1.95594
15.0145 15.0213 25.7116 0.826125 0.596691 -2.3523
15.4624 12.5706 21.7332 1.28367 2.28796 -0.639673
17.1413 10.9015 18.8424 -2.0275 -3.84075 -2.8709
18.6178 10.4751 22.6257 2.10762 -2.40058 0.316506
19.2612 9.52271 20.4657 0.566472 1.67708 -4.50016
17.6528 13.856 28.5549 -1.93545 1.13104 3.84529
20.4334 11.0187 24.4501 6.15297 6.08473 0.355425
21.003 11.7118 21.0003 -2.71265 -2.42586 -0.144267
27.1112 12.93 21.5412 -5.21167 0.774545 -1.69213
24.6684 11.5375 21.3313 -0.831669 2.39144 0.0372756
21.9828 12.8596 24.9718 -0.215551 -1.84985 0.732498
22.4232 9.52295 22.5519 -2.84013 0.611257 -1.39026
23.5445 11.2559 23.7132 1.00723 6.74869 -2.05016
22.2394 10.1111 25.6097 -0.547974 -3.39428 -3.75944
25.594 14.2624 19.4333 -1.43053 5.58582 0.534851
25.7589 15.2388 25.68 0.499407 -2.1742 1.25156
11.5849 18.7073 21.2794 2.03703 4.56763 -0.358079
11.0982 18.0708 23.2901 0.872597 -1.59532 0.381543
10.1685 15.2397 21.7237 -6.23291 -5.64148 -1.6323
12.2435 18.9353 25.5794 -1.01814 2.45596 -4.82082
11.1076 15.4384 23.9915 -4.02081 -0.664294 0.133802
13.449 17.1338 24.7621 0.639856 1.09441 4.40937
14.9554 19.3784 19.8828 1.45631 4.23736 3.5189
12.4068 16.3084 21.5417 1.73051 -2.64401 -3.56796
17.8277 13.8196 23.8845 -0.598721 -2.41369 -8.61442
14.6715 21.0331 28.8999 3.67758 1.17355 7.29882
15.8597 13.4387 24.5893 1.71529 -4.6591 -0.10433
18.3087 15.4037 26.1935 -2.51293 -1.36678 -0.372469
20.568 14.1241 28.5389 5.58492 -2.47362 1.17519
23.1767 14.6491 24.2633 -4.64625 -12.1179 0.171913
18.3085 12.2818 21.2249 -5.42573 -0.92629 2.74779
19.7346 17.9279 25.5988 -14.645 0.624936 10.6855
28.0724 21.2495 22.7603 -4.11701 -2.99403 7.24674
20.963 14.889 26.5087 2.35939 -0.0916985 5.41494
22.889 17.0235 25.6973 11.004 0.566942 2.05677
23.6117 15.1204 27.5535 -2.0758 3.34103 -1.6548
28.6356 13.6914 20.2124 1.82489 0.211411 -2.43433
29.1517 19.3883 20.9286 5.13679 1.59192 5.22498
28.7583 13.4067 23.9335 1.36043 -10.4242 -2.76063
28.3616 19.1951 24.4375 -1.26802 -3.55133 -1.53688
28.7867 16.3223 21.3458 0.641088 0.126216 0.642026
30.0409 17.2938 24.509 5.3354 3.08496 1.38963
27.9625 17.2157 26.4524 -3.19412 1.79814 -2.6186
10.4886 25.7405 23.6278 0.310188 2.70472 3.8573
10.0545 22.8069 22.7737 -2.20651 -1.10074 4.65784
12.5575 24.0397 22.8861 -4.89063 -3.73233 2.96721
14.6417 25.7792 22.9372 -1.58573 -3.50025 0.902697
12.728 24.1369 19.2517 4.67213 -1.38989 -4.68769
11.767 22.7224 25.0904 1.90475 2.34755 -4.3686
12.5084 25.2355 25.1886 4.34809 -2.57817 1.48395
10.8245 20.489 23.6249 0.778509 0.676451 1.31907
12.0209 21.9612 20.9316 0.477989 -1.17202 -3.51999
16.9574 24.8979 25.383 0.493099 -1.11094 2.82171
17.1598 26.6723 22.7744 -1.02442 5.78639 3.36733
11.0937 22.3414 26.803 -2.06169 -6.12119 -5.44958
17.3124 28.0009 26.065 -2.29859 2.0149 0.508579
14.1648 23.3022 28.7956 -4.30631 4.32868 6.1612
19.4753 26.8199 25.2969 -1.0892 2.8118 1.68796
22.4782 29.4141 25.1979 1.35464 3.26412 3.77878
26.919 23.4627 20.6458 -1.98495 0.352007 -1.15098
22.9388 22.388 26.8481 0.375701 3.9698 0.446242
26.3816 25.914 25.2878 -1.46147 1.87093 -1.39237
21.6349 19.6353 25.7324 -0.856026 1.6623 0.0372716
26.3002 23.7993 26.0911 0.891138 -0.723119 -3.3598
26.9353 26.2104 22.3523 0.993292 2.77427 4.0874
29.4908 25.0708 21.7357 -3.6049 -1.40264 0.284718
29.797 22.688 22.9045 0.800386 8.93383 -1.33074
28.7446 26.0408 24.1862 1.27724 -5.88337 1.14756
30.4249 20.2446 23.0597 -1.46905 -0.316318 -3.78535
28.4286 22.5894 25.1742 -0.577061 6.00701 -0.740849
12.3361 27.7209 24.4706 2.55509 -3.82867 -1.3557
12.0912 26.445 22.1803 -2.47948 1.85603 -2.29886
13.7347 28.7408 22.5958 2.82639 1.2685 -2.16572
15.705 29.0513 24.2465 0.686899 -0.875726 -1.95132
20.6327 27.8543 23.8451 5.21913 -0.338616 0.921902
16.0905 29.3454 22.0776 -4.27023 1.87759 -0.731211
18.3568 31.2508 21.2275 1.14009 1.76472 -1.57895
23.268 31.7976 24.3342 -0.402743 7.85927 -2.07188
24.4915 27.0966 23.9335 3.33338 1.17309 -2.55654
21.8551 30.8929 22.7905 1.06054 -0.239159 4.17569
23.1302 28.5795 21.9587 -2.30976 -3.91101 0.679048
21.5906 26.377 27.4795 4.07173 0.115109 0.298426
24.9288 29.7075 23.8768 -3.9553 -3.9314 -3.34458
29.1928 27.8315 22.4937 -1.60424 -3.18109 0.321209
26.8235 29.0637 21.7283 -2.5893 -0.157293 -4.50608
27.1336 28.3247 24.3252 -0.308482 3.32696 0.476435
15.6777 15.1002 28.9315 0.338868 2.47392 -1.45794
19.4711 12.5222 26.8532 -2.33455 -5.47378 2.12159
21.3471 11.5743 27.3833 0.424782 0.913791 -0.602397
24.3032 13.1291 25.9872 1.30192 -0.247031 -3.53057
12.2703 16.3966 26.518 -0.177151 3.66302 -6.43855
14.1239 18.7931 27.6572 0.361581 0.377854 -4.46845
13.589 16.5834 29.1656 0.331189 0.803442 1.24504
15.7998 16.7702 27.2506 -0.969952 0.392873 3.99641
19.9161 19.1987 28.7071 5.03745 5.33482 -2.94956
16.3531 17.7311 29.3077 3.291 -0.503613 4.61275
18.3772 16.7698 28.8975 0.860349 3.41347 3.71741
21.0475 17.4463 28.0749 -5.3236 2.31376 -3.24686
23.1313 19.293 27.3756 0.747062 0.286487 2.76936
22.223 19.7951 29.7317 2.75411 -2.0437 -1.68812
24.1872 17.4126 29.0652 0.261191 -0.384648 3.2927
24.9974 17.6376 26.1974 2.20744 -8.10978 1.00304
30.1647 19.4269 26.2129 -0.855247 -0.599509 0.561959
25.7747 19.4388 28.2804 -1.23152 1.30407 -6.32951
26.3164 16.2774 28.301 -3.02045 0.151985 5.18375
27.6308 17.7195 29.1867 -2.16306 2.28424 -1.53867
13.2478 21.1685 26.8437 1.96982 2.39865 5.49264
16.3949 24.5719 27.782 -0.562698 -6.56538 5.80886
16.7567 22.2902 29.9214 1.59061 -0.0415426 -1.43575
19.608 24.1394 26.7513 -0.261824 -0.155607 -3.07994
17.4808 20.1428 28.8281 0.996757 1.21984 -3.30057
19.2973 23.63 29.0366 0.716137 0.750514 -2.43165
19.7623 26.0171 31.8217 -1.34922 -1.2094 -1.05085
19.5134 21.1349 29.9953 1.23859 4.48579 -1.09514
20.8615 24.0383 31.711 -2.22499 4.68161 2.86555
25.2628 24.5703 29.7058 0.920135 -0.580655 3.89163
24.7466 24.6739 27.3057 -0.404862 -6.44191 -0.172254
20.6322 21.7881 27.6526 -1.77704 -0.959759 -3.16346
22.578 24.7063 28.8958 -0.530283 -1.57343 -0.811801
24.6672 22.7113 29.2659 5.01707 4.63728 -0.223146
21.9784 22.5707 29.9816 -2.6658 -2.66493 -7.47522
27.4457 23.8948 23.1494 0.416793 0.0648035 -7.24346
27.8142 19.8638 27.6168 -4.05418 1.69091 -1.80158
15.2331 26.6307 24.828 3.57598 0.552088 -0.396271
19.0976 28.7685 27.9023 2.61095 -4.32978 0.527618
18.62 26.3341 27.9571 -0.243234 0.269269 0.85655
24.3995 27.7981 26.3429 -0.0279637 -1.49629 6.3406
20.5139 26.7982 29.8583 -2.82182 -2.75905 1.67335
ITEM: TIMESTEP
2000
ITEM: NUMBER OF ATOMS
260
ITEM: BOX BOUNDS ss ss ss
8.8847321802828656e+00 3.1786125226544378e+01
9.3152079387337672e+00 3.2588135721263555e+01
1.1219779591750900e+01 3.1162851733409550e+01
ITEM: ATOMS x y z vx vy vz
15.7823 17.6574 14.6344 3.97017 2.10561 1.00926
21.3775 13.9824 12.7979 4.03038 1.01068 -3.51292
19.3352 18.2901 12.2525 0.275329 4.65645 7.01873
21.1145 18.7385 14.8442 -5.1296 1.26153 3.46087
21.2828 16.5388 11.9815 3.13825 -0.956815 2.69526
22.4148 20.8662 13.1565 -0.347612 -1.38524 5.08156
24.296 14.2604 12.0739 1.30883 0.901373 1.36338
23.0232 18.0882 12.8236 -1.14287 -3.16845 -0.468963
23.4078 14.7901 14.2945 -1.59037 3.92579 -2.44327
14.4185 18.42 12.7571 -4.52627 -1.03457 0.0629435
17.1237 20.2643 13.5486 4.60169 -1.60655 3.77723
16.8741 20.5761 16.2886 1.29712 0.274144 2.64725
15.533 23.4545 12.1527 -8.33075 0.45933 -2.84635
20.8032 21.0522 11.6817 -3.85307 3.85331 1.16606
19.5261 20.2723 14.1087 -3.32501 2.32897 -2.79291
17.8081 22.7386 11.3393 4.46124 -7.14298 -0.688043
25.4634 19.4233 13.116 0.996627 -3.24693 2.13289
27.3081 21.0305 12.2308 1.04364 0.516224 1.61521
17.6258 24.8505 14.8326 -0.305644 4.56277 5.0891
23.0936 25.0102 13.3721 -6.81639 -0.440978 -0.817625
21.422 27.4774 12.7251 -1.26681 -5.80319 0.523152
24.585 22.0849 11.5816 0.0516607 2.73809 8.70195
26.8184 23.4123 13.3918 3.00023 1.2836 1.77651
25.5116 25.0751 11.8507 -4.58437 -0.489468 1.54137
19.0017 28.8376 13.8885 4.44189 3.6071 2.96244
17.4445 13.4662 16.3805 2.67006 -0.407347 1.59522
17.6506 15.2032 14.877 3.81459 0.0134152 3.96248
18.7782 16.4148 12.3487 1.31175 5.01158 0.0601346
20.0903 12.3945 15.402 4.12503 -5.38063 0.11678
27.3203 15.7384 15.4916 -1.58467 5.42883 1.83303
25.2208 16.2581 12.5278 -7.65179 7.74526 3.55273
27.6722 14.4739 17.2498 0.921284 -0.282232 2.42488
19.2688 15.8034 17.839 -0.421164 3.20267 11.0711
16.4449 17.6411 11.9741 -7.31428 2.93617 5.88022
18.5924 17.7431 14.9165 2.62507 -1.63355 2.11888
20.3491 15.8311 14.7016 0.760643 -3.09591 -0.666759
21.4308 14.3324 16.7701 -1.13021 1.12905 6.81508
22.7999 12.4373 14.9641 -4.48324 1.75963 5.19294
22.5556 17.1546 16.0852 -5.74262 -0.397863 -2.18929
29.966 20.1625 16.4743 3.9584 1.70094 3.10699
14.6399 18.4925 16.2307 2.72527 -2.92154 7.66766
11.1952 19.3964 13.3001 2.20633 -4.46791 3.89603
11.933 20.2814 15.6497 6.12206 1.19147 -1.17892
10.1861 21.8189 16.3226 4.71015 0.807044 -2.97459
12.3028 22.7877 16.2282 0.392202 2.8642 2.10039
14.9226 20.463 14.3324 0.971103 0.663755 -1.70317
13.4478 24.3468 14.7219 -0.718626 0.0942088 5.65853
19.0553 23.8102 16.9322 3.39323 3.61377 1.05631
18.0043 22.4466 13.9135 2.7243 2.73728 1.49683
21.2047 21.1647 15.6888 2.50494 -3.83328 8.5159
26.139 20.732 15.3752 -0.856101 -0.741936 0.11309
23.8338 21.953 16.9979 -0.241143 -4.02529 3.04738
23.5799 19.4387 14.9422 -2.62008 1.14125 -3.05724
26.5276 18.0141 18.2389 0.0271657 0.41359 -2.09187
27.523 18.9583 16.0205 0.110981 -3.91977 6.97035
25.4248 17.3826 15.5889 -2.84231 2.91806 -6.71741
14.8951 25.5537 12.9815 0.108876 -4.65186 1.16222
11.3226 22.0429 13.6489 2.94022 -1.33147 -5.48172
12.9052 20.574 12.3523 2.96649 -1.57206 -2.64425
12.65 25.7963 16.9416 0.780438 2.11255 2.33836
15.4575 22.636 15.0472 1.32411 -0.172846 -4.35924
16.39 27.0395 14.5825 1.27342 6.47859 -5.21296
17.3938 25.3868 12.2309 1.54514 6.82626 0.90319