ITEM: TIMESTEP
0
ITEM: NUMBER OF ATOMS
28
ITEM: BOX BOUNDS ss ss ss
1.6400983038875264e+01 2.4322781964856404e+01
1.6761015994188842e+01 2.4282913067716301e+01
1.6095726504921782e+01 2.4691076755815562e+01
ITEM: ATOMS x y z vx vy vz
19.6188 21.5022 16.0998 1.62771 -1.78774 -0.512516
19.6465 16.7651 18.7281 0.578066 0.0645822 -0.644748
17.5834 23.2094 20.0145 0.86931 0.722879 0.17872
17.6038 21.2273 17.9383 -0.273362 -1.02845 1.43317
17.5766 18.6321 18.8085 -0.125085 -1.25983 1.02173
19.5155 18.8389 16.8257 2.1744 -1.19083 0.891787
19.1968 23.6983 17.7423 -0.534718 -0.344142 1.00975
21.4042 24.2788 19.5923 0.776214 0.286789 0.481627
23.4047 22.3398 19.6933 -2.30681 1.50321 -0.0428486
23.6584 19.9467 18.3851 1.43138 0.353296 0.392085
23.2734 17.6376 20.0434 -1.58958 -0.437546 0.765708
21.9766 20.0956 16.2287 0.489379 -0.703272 0.593953
22.1251 17.6044 17.4402 -1.04089 1.94417 -2.55295
21.8887 22.5978 17.3862 -1.07039 -1.97481 -0.509504
16.4051 20.5757 20.3976 -0.355269 1.38735 -1.55871
19.6558 23.7093 21.7903 -1.85755 1.34608 0.616622
16.9098 19.1558 22.8003 -1.06518 1.03716 -0.695657
18.672 20.4087 24.5407 1.23435 -0.584028 1.41726
19.4859 17.928 23.4456 1.33367 0.751802 -0.668624
18.1318 17.0608 21.1295 -0.526528 -0.2792 0.425882
17.6633 21.9926 22.5476 1.08097 0.50447 1.26953
22.7361 18.372 22.7072 1.27419 0.574124 0.0543416
23.3473 21.1218 23.6011 0.01152 1.20263 -0.131978
20.6402 22.247 23.9435 0.950884 0.0682712 -0.460042
24.3187 20.1444 21.1116 0.441648 0.231621 -0.697503
22.4138 23.4712 22.1329 0.974207 0.0163367 0.31348
20.9107 16.9003 21.2988 -1.47549 -0.794032 -2.06145
21.2971 19.5982 24.687 -3.02705 -1.6109 -0.32911
ITEM: TIMESTEP
1000
ITEM: NUMBER OF ATOMS
28
ITEM: BOX BOUNDS ss ss ss
1.6718726510207834e+01 2.3804036339278568e+01
1.6648020507588381e+01 2.4064761600974492e+01
1.5820563131546621e+01 2.4226137524380416e+01
ITEM: ATOMS x y z vx vy vz
19.4535 21.0528 16.3521 -3.21218 -3.53844 2.4039
20.4881 16.3108 19.7151 0.131837 -1.2027 1.97647
18.0768 23.487 19.8468 -4.25881 -2.30298 0.300737
18.1308 21.8089 18.0455 1.5727 2.97539 -1.22491
18.6747 19.6449 18.8687 2.06422 -0.459904 -3.37103
19.7248 18.023 17.1076 1.10631 -0.73659 -1.85345
20.4453 23.4571 18.66 1.53974 -2.4843 2.76375
20.3846 24.0414 21.1459 -1.11822 -0.83077 1.57125
22.8584 21.1199 20.6795 -4.11396 -3.17643 -3.67403
23.4242 20.0554 17.9083 3.14838 -1.95398 0.85572
20.9868 19.2731 19.5226 0.764754 4.09031 0.18915
21.6337 19.7925 16.3519 -1.82766 -4.45059 3.29513
22.4015 17.4322 17.9465 3.17472 2.70316 2.03455
21.5357 21.6158 17.9156 -1.98318 1.43433 5.7122
16.9158 20.4113 20.109 -0.105737 -0.424296 4.7884
18.8541 23.7595 22.8691 -0.80729 -0.474406 3.49255
16.9738 19.0529 22.6658 -2.80045 3.49617 -3.74352
18.1497 19.9684 24.0512 2.40481 2.64802 0.392543
19.4577 20.3425 21.4008 -0.0460371 2.98955 -5.83127
18.7017 17.8738 21.1367 0.628415 5.05799 -1.88101
17.2495 21.7604 22.4566 -2.04489 -0.108662 -0.116012
23.8027 19.398 22.0287 3.79109 4.38212 -0.123877
23.0393 21.2579 23.5475 -1.68641 2.79281 1.7637
20.4437 21.684 23.0788 0.557757 -5.51736 -3.41047
23.7697 17.9979 19.8583 -2.25952 -5.66643 -3.6741
22.7145 23.1487 22.3191 2.81318 -3.73108 1.76629
21.4573 17.8532 21.6728 2.38112 2.83901 -4.70044
21.3118 19.4366 23.7993 0.185321 1.65005 0.297757
ITEM: TIMESTEP
2000
ITEM: NUMBER OF ATOMS
28
ITEM: BOX BOUNDS ss ss ss
1.6694991222078460e+01 2.3463818391283240e+01
1.6552842596333669e+01 2.3735808024574109e+01
1.5610848116159866e+01 2.4531859808639279e+01
ITEM: ATOMS x y z vx vy vz
20.8468 18.339 20.6295 0.828989 5.38741 3.51268
17.8724 19.7541 18.3879 -0.884468 5.18234 -2.9903
20.1606 18.377 18.1643 1.38866 -1.61858 0.60461
23.2839 18.5752 19.1634 -1.75655 -0.171919 0.285507
21.4189 20.6323 19.6787 0.349825 1.78774 -2.03749
22.7414 18.8652 16.8086 2.42982 -0.281337 -0.610114
22.1064 16.9869 17.7697 -3.43265 -1.2121 2.09579
23.2216 16.7106 20.7218 -3.23355 1.91776 0.121097
19.6745 18.8124 15.4589 2.32189 0.794053 -0.915185
18.3429 22.9145 22.8952 1.59539 -3.36006 5.02089
18.15 20.848 15.7559 0.794178 -0.858744 2.44937
17.8142 23.4861 20.421 1.57526 -2.99942 -1.45045
20.4026 20.7371 17.1257 -1.57771 -4.32932 2.01018
16.5634 21.4685 21.2999 -2.6487 6.03561 4.79624
19.2823 19.342 22.7541 1.65696 -4.02389 -6.41336
19.1293 21.2694 21.0155 -0.646973 0.046673 2.8609
23.667 19.9297 21.8021 2.28059 2.43207 -1.84174
22.421 17.6469 22.5536 0.771411 0.860317 5.1103
21.2333 18.9182 24.2212 1.40554 -0.288869 -1.18798
20.5031 23.2499 20.685 0.224093 -1.74315 -1.87863
23.2338 22.5228 20.0114 2.28082 1.78653 2.45596
16.6523 21.8835 18.5954 -1.11074 -1.64051 -0.389678
19.5196 21.0054 24.488 3.78506 -4.61977 0.831221
19.0328 22.5201 18.38 -1.60045 -0.380952 -4.19486
17.3327 21.0356 23.7174 1.66829 1.0184 -4.1747
22.9213 20.9492 24.0441 -6.45893 -1.67469 -4.57013
21.1145 21.0467 22.2355 -0.172525 2.97726 -0.592108
22.4174 23.2335 22.2762 -1.83353 -1.02284 1.09199
ITEM: TIMESTEP
3000
ITEM: NUMBER OF ATOMS
28
ITEM: BOX BOUNDS ss ss ss
1.6203778810772228e+01 2.4281278234636464e+01
1.6507212349842163e+01 2.5142536813564593e+01
1.6393969718621250e+01 2.4804394509729345e+01
ITEM: ATOMS x y z vx vy vz
18.4937 20.0843 19.0211 -1.63285 0.522552 0.0472889
20.4818 18.3579 19.2703 2.22211 0.0313204 2.75126
23.1926 18.8378 19.3387 -0.414198 2.97592 -4.58168
21.8491 21.1114 19.2639 1.03379 -0.622162 -0.799421
21.6502 17.5927 17.0564 0.0598622 -1.74697 0.932736
23.0387 16.6755 18.3574 -0.263797 -1.45668 -1.76511
19.0178 18.5899 17.0125 0.214149 2.97622 -2.60229
17.6984 20.6546 16.4905 -3.72315 0.946986 2.53717
21.237 20.3772 16.9338 0.912631 -2.30643 -0.564337
17.3787 22.5332 18.3133 0.338268 1.40366 -1.85876
19.5003 22.3013 17.5139 0.360305 -1.98109 2.02438
21.6725 19.5175 21.3086 -4.94869 3.63432 4.48704
21.2652 16.46 20.2954 1.86728 -1.4505 2.22759
18.5998 23.4279 22.2263 4.79006 -3.34205 -4.334
18.9431 25.2131 20.0024 -4.6857 0.708721 -0.011461
16.2226 22.9242 21.4279 0.5973 2.51471 -1.15315
18.7915 19.1152 21.5637 -1.12104 -0.763805 0.887647
16.7789 21.124 20.4444 -0.0418979 1.86825 -4.51281
24.087 20.6989 21.4266 -4.89185 -0.101498 1.71959
24.0197 18.8537 22.5019 -1.92501 1.82294 1.84795
22.1276 17.3065 22.8425 2.69474 -1.99153 0.917297
20.7485 24.0621 19.8386 1.16091 -3.91552 2.92104
21.4767 22.0962 22.1583 2.04223 -0.795418 3.47016
21.8575 18.9072 24.7879 4.97818 -1.86396 -1.03587
17.7155 20.852 23.1012 1.10567 0.536936 -1.122
23.2734 21.1116 23.9386 1.54213 2.74903 1.06303
19.5804 21.7458 20.7407 -1.74717 4.10882 0.24018
20.3619 20.5284 23.8832 -0.524259 -4.46275 -3.7335
ITEM: TIMESTEP
4000
ITEM: NUMBER OF ATOMS
28
ITEM: BOX BOUNDS ss ss ss
1.6827794480147126e+01 2.4121276009668851e+01
1.6848416608645945e+01 2.3874055203663268e+01
1.6572161004546210e+01 2.5529631410438952e+01
ITEM: ATOMS x y z vx vy vz
18.1117 18.2041 19.303 -1.57836 -0.246716 1.58373
20.734 18.8579 18.9517 1.18318 -0.19751 -0.313625
23.7307 19.8969 19.5671 -1.14904 -0.126171 0.690595
19.9984 17.2665 16.7747 -0.372214 0.299641 3.20104
21.8819 16.8512 17.1509 1.8552 -0.17808 -3.81119
18.8123 19.6212 16.8387 1.1672 5.49213 -0.443116
21.5584 19.5782 16.9451 -0.615981 -0.416025 -1.84032
21.9671 21.6704 18.4473 -4.87784 2.7327 -3.72902
16.7553 20.246 18.3846 -3.35902 -1.14613 -1.58888
17.4105 22.6158 17.9737 0.830012 -0.566447 -4.92327
20.3386 22.1636 16.5077 3.1302 -1.28764 -1.06626
19.5505 23.5227 19.1893 2.17043 -3.83542 -1.84481
17.2905 20.7443 20.7818 2.78027 0.126807 3.76611
21.7478 23.2725 20.473 -1.48113 1.6757 -0.592397
19.0158 21.0235 19.1349 -0.481032 -3.48232 -0.347563
21.699 20.2166 20.9654 -2.60799 -1.53976 -0.60494
22.2845 17.1481 20.1666 -1.14571 2.56631 -1.26449
19.3528 19.1132 21.512 0.0306555 0.412223 -0.346415
24.1301 19.6225 22.1551 -0.0567437 -0.479254 3.29543
21.5716 18.3188 22.7147 0.364597 1.64174 -0.472812
20.952 18.8542 25.5308 -0.338267 -1.36698 0.472145
19.646 19.7639 23.8961 -4.46019 3.15443 1.5728
18.9046 23.7958 23.0161 1.74257 -2.55512 0.668716
17.1661 23.364 21.3119 4.29935 -1.74661 3.2575
23.2644 21.8071 22.7476 -1.70945 -0.0556454 0.697451
20.799 21.6816 24.1559 -2.91515 0.963614 6.60693
19.4582 21.788 21.7561 2.39381 -0.554331 -2.23504
22.928 20.0512 24.7082 5.2006 0.714875 -0.388308
ITEM: TIMESTEP
5000
ITEM: NUMBER OF ATOMS
28
ITEM: BOX BOUNDS ss ss ss
1.6639966504284310e+01 2.3815209002857753e+01
1.7142714595605273e+01 2.3931708895841332e+01
1.6515875480000549e+01 2.6225796135853500e+01
ITEM: ATOMS x y z vx vy vz
18.3646 18.846 19.3457 2.39876 -2.26006 5.56571
20.4617 17.7654 19.7464 -1.05826 -0.632372 2.67299
22.4991 19.21 18.9531 1.07257 0.124101 0.87961
19.2663 17.7762 16.9973 -1.0729 3.77521 1.45724
22.0545 17.2154 17.1236 -2.3026 2.46771 1.56081
18.5936 19.8966 16.8736 0.576167 -3.21442 -2.10237
21.6946 19.3575 16.4875 0.40433 -3.55691 -0.723667
22.1054 22.3888 18.1182 -1.27889 -3.26866 1.05167
16.6497 21.1619 18.8007 0.799304 1.70387 -0.182457
17.7488 22.6405 17.0114 -1.34315 2.27656 -1.29502
20.0042 22.0939 16.494 2.39338 3.32311 -2.11431
19.748 23.9548 17.5029 -2.62746 1.70158 -0.40483
20.1575 20.6109 19.2131 -0.487609 -1.7555 -3.61045
23.43 18.1232 21.0847 -0.104532 -2.63418 0.196703
17.2981 20.3775 21.2906 1.79612 -1.36062 0.18123
21.1801 23.26 20.1802 0.92231 -1.91516 -0.958857
22.7503 20.6961 20.6614 3.98056 2.81246 1.88565
18.7343 17.9529 21.7307 -4.65622 -1.80015 -2.23161
23.7886 19.3367 22.7236 -0.743072 2.28968 1.8403
21.2073 18.4689 22.4849 0.67684 0.497675 -3.25998
20.799 19.3323 24.9804 2.121 2.94146 -2.37326
18.8236 19.3367 23.8542 2.79577 0.0351383 1.54817
19.8505 21.909 24.8043 1.65051 -3.12009 -0.99937
18.6762 22.4442 20.0453 2.43664 0.97115 1.23602
20.683 23.3714 22.6856 -5.68105 3.42057 2.31434
22.2084 20.9161 26.2564 -2.99041 -3.36477 0.569044
20.2083 20.9115 21.7808 -0.430523 -0.56826 1.73972
22.0738 21.7057 23.8292 0.752412 1.1109 -4.44304
ITEM: TIMESTEP
6000
ITEM: NUMBER OF ATOMS
28
ITEM: BOX BOUNDS ss ss ss
1.6425282960119286e+01 2.3385523799756864e+01
1.6091548489845795e+01 2.4024006239740576e+01
1.6182785566822997e+01 2.4728306020200268e+01
ITEM: ATOMS x y z vx vy vz
17.8775 18.9291 18.7349 1.91952 2.32228 -3.56564
20.0277 17.5295 19.4666 -2.40928 2.70805 -0.300871
22.3967 17.8145 17.76 1.93667 -2.95776 -3.31114
19.83 17.8687 17.256 1.10592 0.00394131 -0.753191
22.6073 16.1003 19.8103 -0.131584 0.718346 1.63064
19.1477 20.5018 16.9991 2.1838 2.07156 0.924329
21.6531 20.3203 16.4741 0.755954 -0.160539 0.467862
21.5724 22.0859 17.8149 -1.7613 0.523772 2.26749
16.3295 20.7379 18.5953 -1.56385 -1.85236 1.24088
18.69 23.078 18.3812 2.27537 -0.934873 2.14616
20.3327 22.7572 16.1706 -2.32898 -2.12568 -1.01209
20.5035 23.2467 20.1649 2.76312 5.35067 1.95067
19.886 20.4589 19.7444 1.00744 0.027649 -0.103296
23.1515 18.0909 20.905 2.46128 -1.16055 1.3429
23.3146 22.5041 21.6283 -0.0931057 -1.32405 -0.0697911
22.5882 19.9828 19.0834 -0.533557 -2.20857 -3.39403
17.0893 22.3914 20.5145 1.27419 -0.632633 2.2621
18.3783 20.3499 21.6253 2.12067 -0.608527 0.500062
17.9666 17.7435 21.3404 -1.92903 -2.86004 0.473566
23.5436 19.8137 22.4444 3.63303 -0.712974 -2.13572
20.6844 18.7415 22.0445 -3.12418 -1.35407 0.797398
21.7071 19.5982 24.3298 2.23704 1.98861 -3.02754
18.4974 18.6178 23.4437 -3.97177 2.1731 -0.105056
20.1441 21.1678 24.7769 -0.238654 2.68274 1.48621
18.9678 23.0743 22.1813 -3.21763 -0.316242 2.62999
22.4162 22.3667 24.1862 -2.74745 2.84011 0.948357
20.7967 21.1687 22.3211 -0.790466 -3.89004 -1.03154
20.9599 24.0199 22.8625 -0.833143 -0.311909 -2.2587
ITEM: TIMESTEP
7000
ITEM: NUMBER OF ATOMS
28
ITEM: BOX BOUNDS ss ss ss
1.7092247473718125e+01 2.3721700943709248e+01
1.7110253114220352e+01 2.4364856945603563e+01
1.6205849769016446e+01 2.5137399809232708e+01
ITEM: ATOMS x y z vx vy vz
17.6034 18.901 18.3637 0.103437 -0.314923 0.971788
20.3009 17.898 19.9372 -0.794649 0.487805 2.48573
21.7621 17.1705 17.7541 -0.90602 -1.09979 -0.23466
19.1672 17.3568 17.4671 -2.43831 1.02724 -1.85269
23.3887 17.5025 19.1936 2.58663 5.02202 -1.97496
21.2483 19.2621 16.3069 0.139399 -0.338648 2.20722
22.354 19.7295 18.9784 -1.47497 -1.20092 0.213336
19.1478 20.8474 16.2204 -1.38138 2.78432 -1.35541
22.5003 22.4197 20.8486 -0.204034 1.27474 -2.41706
17.1586 21.32 18.116 1.6044 0.424966 0.718862
19.6478 22.9137 17.896 -0.360946 -1.72221 -3.48817
21.5854 21.3427 17.3249 2.43341 -4.30153 -0.153885
19.523 20.7271 19.0425 -1.51555 -0.348406 4.8235
22.3112 17.8557 21.7582 -0.801774 -2.13757 1.10053
17.6446 20.8682 20.8337 0.520434 2.46335 -3.70842
17.8122 17.7334 21.1496 1.47871 -1.86675 -3.29887
20.0341 17.6648 22.6518 2.08942 -0.374627 0.358096
22.5345 19.7263 23.7318 0.64319 -0.635872 -0.952415
19.9147 19.5452 24.0749 3.18846 -3.66997 -0.45097
19.6458 23.4294 20.7428 3.55901 2.07684 1.9911
21.0542 24.2288 22.4686 -0.152128 -0.761252 0.732779
17.2569 23.4011 19.9164 -0.340044 -3.41068 2.43233
23.7573 20.0898 21.3108 0.652485 -2.11276 -0.992299
21.9442 21.4255 25.1607 -3.47718 3.52012 0.351701
17.7243 22.9172 22.2735 2.1465 3.63833 -1.73811
23.1881 22.2858 22.8517 0.182028 2.2448 0.172601
20.7996 20.2462 21.6993 -4.07284 -1.6557 1.10671
20.0506 22.2514 22.9869 -3.40767 0.98709 2.95162
ITEM: TIMESTEP
8000
ITEM: NUMBER OF ATOMS
28
ITEM: BOX BOUNDS ss ss ss
1.6736890852177289e+01 2.4842011250965356e+01
1.6968307831063704e+01 2.4101352220565897e+01
1.6742904602533780e+01 2.4484881170371139e+01
ITEM: ATOMS x y z vx vy vz
16.7471 20.6661 19.3286 1.82267 1.17556 -1.43441
21.0065 17.4381 19.7385 1.59189 0.924714 -0.954145
23.221 17.6574 18.2959 0.949483 1.44152 -0.423637
17.8541 18.4336 18.4802 -4.21767 -1.19732 3.99692
24.8722 17.3633 20.1323 0.110421 -0.226503 0.397214
20.8251 18.2702 17.3456 -1.35998 0.0535542 4.37334
22.1439 20.3163 18.9241 -0.011138 -0.342939 1.37219
19.0163 20.2192 16.9284 0.0571425 -0.824632 1.82591
22.1363 22.8027 19.7158 -1.74871 1.47584 0.472248
17.7341 22.191 17.0224 2.56949 0.531313 0.783906
19.5423 23.8742 17.5987 0.553416 1.75027 -2.84852
20.8521 21.7004 17.3763 0.611872 0.886741 1.37883
19.4115 20.278 19.6235 -1.92415 0.750791 3.55351
19.5698 22.9562 19.7146 -3.87172 4.8336 -2.3871
17.3714 23.4072 19.2516 0.612502 -4.09511 -1.99658
23.284 16.7909 21.5989 0.0667023 -1.65191 -3.0107
17.9643 21.6227 21.5683 -1.30735 -0.978451 0.253334
18.3587 19.0302 22.0119 -0.0371904 0.898403 -1.23489
20.7667 17.1454 22.1235 -0.0220876 -2.01541 -0.98669
22.6159 19.1376 23.5155 2.30714 2.06721 3.46885
20.0072 18.8394 23.8475 2.77373 -0.789666 -2.61486
20.5773 22.9571 22.2873 -1.96225 2.90816 0.521687
23.5065 19.4861 21.2789 -3.56864 -1.04856 3.00865
21.202 21.2425 24.3633 1.99565 -2.8289 -0.828479
17.5521 24.0128 21.3613 2.41191 -0.197119 -1.64994
22.7498 21.9121 22.4494 -0.412626 -2.98742 1.52029
21.1071 20.2013 21.6407 0.0841795 -0.033412 -3.42213
19.0648 21.1079 23.5371 1.92534 -0.480306 -3.13481
ITEM: TIMESTEP
9000
ITEM: NUMBER OF ATOMS
28
ITEM: BOX BOUNDS ss ss ss
1.6836241164211394e+01 2.3881748464274924e+01
1.5963058769765235e+01 2.4129267213707386e+01
1.6455351868027847e+01 2.4502451963646426e+01
ITEM: ATOMS x y z vx vy vz
18.4107 18.4026 19.068 -0.970006 -1.91692 1.02152
20.6455 19.4194 17.6677 1.28891 1.80961 -0.614678
18.1897 18.92 16.5127 -0.978428 -3.38251 2.64441
19.6535 20.9429 19.6933 3.11232 1.81585 -3.53668
18.9656 17.9831 21.7563 0.922439 -0.110752 -1.35189
22.3005 18.3666 22.5102 0.92894 1.11152 -1.60644
19.8505 18.8636 24.059 -3.15881 -0.582858 -0.286265
20.8367 18.5189 20.3326 -0.480479 -1.66159 2.9632
23.0665 18.2237 17.8363 0.177339 1.35197 -1.05364
23.8283 15.9566 18.6132 -2.23707 0.036368 -3.5301
22.6802 20.6544 19.3092 1.81033 -1.48324 -2.47843
22.3038 16.3396 20.6741 -1.96544 -0.943062 1.4065
22.1668 20.1965 24.4711 -1.58173 5.0063 -0.944373
23.7261 18.3225 20.1156 2.15064 -2.84495 -0.0458197
20.318 20.5523 22.188 2.80561 0.214953 1.20962
16.9235 20.6922 19.4098 0.201974 1.73789 -2.20035
18.7328 21.3215 17.0489 1.8223 -0.140065 0.244796
19.7881 23.6987 16.8172 -1.56548 -1.0346 4.28167
20.1377 24.1741 19.2828 -0.950312 2.2786 3.26103
17.8571 23.0611 19.0518 3.31388 2.23512 -0.369266
17.8793 20.5127 21.7726 0.0280573 0.0804892 0.903388
19.6454 23.2228 21.8291 -2.7399 3.68362 -1.01202
16.8207 22.4551 21.4709 -0.693364 -6.60694 0.573911
18.7437 21.843 23.8912 -1.38835 1.18873 -0.442741
21.8107 22.7378 21.094 -0.40978 2.7511 1.71522
21.4158 22.7688 17.9942 -0.295319 -2.03182 0.779517
21.0791 22.1316 24.2496 1.04099 0.626598 -2.15117
23.2837 20.7777 22.3405 -0.189248 -3.18939 0.619087
ITEM: TIMESTEP
10000
ITEM: NUMBER OF ATOMS
28
ITEM: BOX BOUNDS ss ss ss
1.6548119852207478e+01 2.4012611113995352e+01
1.5519581432104614e+01 2.4729726005246469e+01
1.6846685824261840e+01 2.3852407201634986e+01
ITEM: ATOMS x y z vx vy vz
18.3775 18.7865 19.5595 -0.838794 -2.34153 -0.403452
20.5032 19.823 18.2429 3.02203 -3.70219 -0.415514
18.3781 19.7259 16.8704 -3.48721 -1.52639 0.294618
19.5824 17.2763 21.4423 2.03261 0.720445 0.277815
22.3439 18.8217 22.3589 1.1893 -0.588073 0.0412917
19.9363 18.7316 23.6989 1.83556 0.75349 1.02441
21.3816 17.495 19.6948 -1.07512 1.93659 -2.58705
22.7562 17.7032 17.9037 0.0247615 0.94728 -3.55245
23.5498 15.3044 19.9031 1.25153 -2.28852 4.65694
22.8402 20.1426 19.6742 -0.719416 0.269397 -0.222032
22.1569 15.8864 21.6899 -0.506881 -0.617411 0.906806
21.9548 20.8658 23.6015 -1.59859 1.56616 -3.31541
24.0432 17.947 20.2333 0.270931 0.116849 0.558473
17.3125 19.3421 21.8849 -1.81671 2.09093 0.370023
18.7455 21.5713 20.1608 1.7036 1.20765 0.66219
20.5812 20.0762 21.0958 -6.22743 -2.75766 -1.38011
16.8701 20.7995 18.6401 5.03192 -3.02413 0.488911
18.8262 22.0345 17.4317 -2.05118 1.11139 -0.845743
19.3518 24.3807 18.0469 0.756804 1.50938 4.28019
20.8362 24.8626 20.4404 1.99116 1.53543 0.0274368
17.3654 23.8008 19.3674 -0.245116 0.943615 0.842527
18.6104 24.1159 21.4859 1.39369 -2.2683 1.31193
16.5843 21.3163 21.2902 -0.729348 2.91823 -2.17105
19.0864 21.1198 22.84 0.958434 -2.78684 -1.0432
23.2671 22.8611 20.7784 0.593983 2.60858 1.0651
20.9443 22.7393 18.9209 0.710099 1.62844 2.07706
21.0609 22.5183 21.7403 -3.6122 0.42151 -1.86843
23.8136 21.0123 22.0628 0.141574 -0.384334 -1.08127
ITEM: TIMESTEP
11000
ITEM: NUMBER OF ATOMS
28
ITEM: BOX BOUNDS ss ss ss
1.6508871230168982e+01 2.4300332272095812e+01
1.6483030141999052e+01 2.4525825348219321e+01
1.7411921728415727e+01 2.3512393853655091e+01
ITEM: ATOMS x y z vx vy vz
19.1037 18.5503 19.0647 -1.69284 -0.887668 2.1934
20.7675 19.8393 17.5714 2.09853 -1.09513 -0.429279
18.3275 20.7061 17.5087 1.94149 2.35263 -0.860339
18.9442 16.9873 21.1947 5.21475 -0.528802 -1.12988
23.4279 18.9487 22.8373 -1.49883 2.26681 2.27326
18.6984 18.1615 23.5106 -1.50294 -0.151416 2.25988
21.5595 17.4574 19.8756 -1.53534 -2.45976 -4.657
23.3352 18.27 17.9887 2.1994 -2.34615 0.895443
23.3875 16.4896 21.4193 1.8351 2.48139 1.04849
20.9921 17.082 22.6289 -0.344607 -2.44469 3.63897
24.2958 18.2885 20.287 -0.460781 -1.13094 -2.18025
17.4854 19.0169 21.3297 -3.21906 2.5949 -3.0007
20.7595 19.5365 21.0217 0.901887 3.46652 0.217239
22.8137 20.5485 18.873 -0.755467 0.4727 1.57147
21.0775 19.5632 23.4273 -0.662861 0.475136 0.160841
19.3702 21.392 19.7838 -0.964283 0.435807 -0.227881
16.5161 20.566 19.4075 3.11701 0.315838 0.409603
17.9753 23.0571 17.4144 -4.07915 1.19617 -1.5894
19.2801 24.3368 18.991 0.298134 2.34265 -0.224022
21.5764 24.5209 20.0403 -4.24545 -0.8984 2.03458
16.9843 23.2046 20.278 -2.78294 0.692968 0.84848
19.2167 23.58 21.4139 0.932939 0.643012 1.74423
16.6612 21.4352 21.7584 2.62477 -1.23669 0.995343
18.7752 20.9068 22.5059 1.62243 0.794662 -2.02827
23.4685 22.8056 19.6608 1.08453 -0.247473 -4.8939
21.0675 22.35 18.1895 0.877775 0.0302304 0.353478
21.3622 22.2995 21.5816 -2.61173 -1.37859 0.921922
23.8311 21.1598 21.4964 1.60753 -5.75571 -0.345705
ITEM: TIMESTEP
12000
ITEM: NUMBER OF ATOMS
28
ITEM: BOX BOUNDS ss ss ss
1.6555957428561637e+01 2.4753210360745161e+01
1.6337737512529856e+01 2.4130901220838791e+01
1.6969626218658419e+01 2.3600480252701377e+01
ITEM: ATOMS x y z vx vy vz
18.7153 18.8043 18.3486 2.55162 -0.158507 0.444888
21.2021 19.0804 17.0531 0.875797 -1.37086 -0.412033
18.5307 17.0102 20.7249 0.830308 -0.533091 -2.00248
24.0031 19.9031 22.4025 0.19297 2.11785 1.49438
19.5081 17.9635 23.2349 -2.71159 -2.49544 -2.88211
21.008 17.6673 19.0343 0.510277 -2.56614 2.9827
23.4894 18.7648 18.5103 -1.50194 -0.701802 -1.2367
21.2026 16.371 21.2337 -2.60108 0.125522 0.0535995
22.3691 18.0207 23.1206 4.90714 -0.580202 -1.31431
23.5659 17.6026 21.0182 1.7339 -1.67362 0.26001
18.2164 19.2764 21.4253 1.32533 1.79718 2.69421
20.7799 18.946 21.5032 -1.62339 1.63231 0.451825
21.8019 20.5323 19.3138 2.26967 2.83833 -1.66776
20.6924 20.5374 23.5259 -1.97302 1.29862 2.25869
19.9724 21.2867 17.7222 3.711 0.623782 -1.36971
19.5538 21.6482 20.513 -1.69046 -2.60412 2.01248
17.2264 20.7102 18.9817 -1.67736 1.36936 -0.170748
17.6662 22.3256 17.1942 -2.35559 -1.58498 -1.49973
18.927 23.7185 18.8809 1.35681 0.0512332 2.82752
20.9853 23.8863 20.7893 -1.51556 -2.19814 -1.35764
16.7125 23.0234 19.8315 0.995554 1.62074 -1.46939
18.4931 23.5427 21.8174 -1.78795 -0.192121 4.29414
16.5493 21.313 21.6193 -3.02933 1.08899 0.0456666
18.3485 20.9903 23.2038 1.13346 -0.867625 0.939121
23.3124 22.6766 19.6532 2.48036 -0.0295875 -4.52692
21.2358 23.3652 18.5245 0.592402 3.37327 -2.24517
22.4991 21.8098 21.9029 -0.0149276 1.18591 0.95174
24.4931 20.2834 19.9767 -2.98442 -1.56685 0.443746
ITEM: TIMESTEP
13000
ITEM: NUMBER OF ATOMS
28
ITEM: BOX BOUNDS ss ss ss
1.6753830854983676e+01 2.4361240665214400e+01
1.6175101501622851e+01 2.4016905465605983e+01
1.7063775517988102e+01 2.3622707340685359e+01
ITEM: ATOMS x y z vx vy vz
19.1412 18.7897 19.4458 -3.08614 -0.811097 2.44089
19.2437 16.2094 20.2646 1.76645 1.52569 -2.2181
19.4845 17.7699 22.1168 4.30803 0.637515 -0.184892
17.5119 19.445 21.4844 -4.48406 -5.17602 1.93785
19.0489 21.3315 17.7996 1.4865 0.606828 -0.734921
19.4725 21.283 21.0755 1.4581 1.54183 0.237583
17.1419 21.1529 19.5036 -0.06493 3.24287 -0.063549
17.0413 22.7837 17.3869 1.66402 -0.680229 1.83622
19.0933 23.7549 18.9988 0.604936 0.417383 -0.19859
16.721 23.9913 19.6422 -0.596653 -2.26007 0.202531
18.6518 23.5828 21.6212 1.52334 0.327649 -0.133755
16.5785 22.0668 21.719 -4.95127 1.19787 -2.46552
18.3082 21.0753 23.3192 1.18692 3.25971 2.88428
21.6501 19.4138 16.9589 -1.08075 1.21997 0.238011
23.5357 19.7903 22.9038 -2.50069 2.20513 1.03096
21.3114 17.4384 18.9047 1.70726 1.62264 0.243651
23.5191 18.8626 18.543 3.78641 -0.666303 -2.28744
21.6377 16.1588 21.6405 -0.152489 -2.21325 0.801889
21.9824 17.7311 23.5621 -0.447815 -0.518822 -2.02683
23.863 17.8954 21.165 -1.30321 1.79649 3.08028
21.6517 18.8536 20.9366 -0.194483 -0.212039 -1.13181
21.5882 20.8847 19.1151 1.81718 0.213439 -0.159843
20.5244 19.8439 23.4987 -1.05982 -3.24665 1.21487
21.1337 23.3557 20.4066 0.83895 4.68522 0.294538
23.2126 22.5489 19.0035 -1.99669 -1.64731 -2.48769
21.2997 22.8452 17.5362 0.798572 -2.65797 0.495113
22.2373 21.6334 21.8378 -0.420015 -2.27262 1.1666
24.4743 20.568 20.6699 -0.607666 -2.13786 -4.01234
ITEM: TIMESTEP
14000
ITEM: NUMBER OF ATOMS
28
ITEM: BOX BOUNDS ss ss ss
1.6785061051273487e+01 2.3662293989908225e+01
1.5791940887482424e+01 2.4206728184509974e+01
1.6691457792016987e+01 2.3803357373109662e+01
ITEM: ATOMS x y z vx vy vz
18.7349 18.5237 19.6937 -0.274324 -0.371345 0.368051
19.9461 16.437 19.6527 -0.983531 2.0558 -2.9259
19.3255 17.3143 22.1543 -0.394518 -0.631028 -1.22303
18.2119 19.8664 22.4061 -0.0688809 -4.27088 -1.14969
21.315 19.8143 16.7865 -0.0133252 0.269328 -1.91752
23.0681 19.1493 23.2046 -1.90188 3.45272 1.09917
22.1356 18.0142 19.2317 1.53621 -3.12174 0.937104
23.3726 20.5461 18.1192 0.89181 0.731344 -4.03593
21.283 15.796 21.3725 0.64 -0.0520828 3.19505
21.7622 17.1867 23.5042 1.16411 -2.57415 3.5345
23.6608 17.6535 21.3375 2.56801 -2.11167 -1.14495
20.8969 19.0635 21.2536 -0.0147805 -0.767835 0.324739
20.4175 19.5049 23.8002 1.29828 -0.972186 0.937892
19.3349 20.9591 16.6944 -0.396454 0.127538 -1.1466
19.4586 21.7519 21.1253 1.76074 1.25363 -2.96673
17.5203 20.8234 19.683 -1.30657 1.10033 0.359258
16.9654 21.8946 17.3025 0.415191 2.72256 -0.230434
19.0259 23.0384 18.3164 1.16179 -0.139021 -0.123258
16.7873 23.0836 19.5701 -1.8526 -0.956907 -1.59775
18.9093 24.2025 20.5551 -1.49377 -0.148605 -1.23108
17.2591 22.3859 22.0847 1.06325 2.16036 1.4531
19.4472 21.8921 23.7592 2.11026 0.502957 2.95847
20.6483 20.8118 19.1325 -0.889141 0.0170985 0.369922
21.2476 24.1468 20.2863 -0.338306 3.3864 -0.300837
23.4455 22.7296 19.8078 -1.45449 -4.01468 1.93139
21.5811 22.4879 17.6908 0.131703 -0.74186 2.54936
21.7561 21.9182 21.9486 -1.06831 1.91182 0.263745
23.5431 20.0643 20.5866 -2.29046 1.18212 -0.288033
ITEM: TIMESTEP
15000
ITEM: NUMBER OF ATOMS
28
ITEM: BOX BOUNDS ss ss ss
1.6689248760482354e+01 2.3808952578138481e+01
1.7131169517112827e+01 2.3923748312938599e+01
1.6839683594568452e+01 2.4158108729984747e+01
ITEM: ATOMS x y z vx vy vz
18.4482 18.6734 19.6333 -0.783635 0.833319 0.802143
20.2948 17.5767 18.6001 -1.30657 1.75088 2.78676
21.3716 18.6334 16.7789 0.647335 0.612899 -1.55783
23.2472 17.7067 18.3234 -2.74341 0.305154 -3.02558
21.0839 19.9994 19.4043 -0.156914 -0.253885 3.36469
23.4464 20.0453 17.5895 -1.1101 -2.67081 -2.70767
18.9913 20.6703 17.7708 3.18364 0.909796 -1.3212
16.7473 20.8847 20.1625 -1.27623 -5.86771 -0.611125
17.0574 22.6015 18.0678 0.873565 1.48809 3.7281
19.262 23.6712 18.4534 0.277943 -1.83098 -0.0219664
17.063 23.5506 20.3102 4.24534 1.18271 -1.00026
21.2821 23.2991 19.9079 0.816222 -1.21066 -0.588354
23.086 22.1683 18.8643 3.73384 -0.0681294 -0.441916
21.3046 21.6773 17.1391 1.07104 -0.0500867 -0.60382
19.6411 17.0675 21.2046 3.18596 -1.33905 0.341865
18.1025 19.4264 22.0062 -2.84557 -0.614683 -2.7484
21.5278 20.2414 24.1965 -0.389098 2.56788 1.21575
22.2282 17.3047 20.7351 0.725815 1.32885 -2.89924
21.4983 17.4361 23.2695 -0.977807 2.8216 1.2901
23.4492 18.9094 23.2526 -5.46848 2.92192 -1.38251
20.8287 19.3235 21.803 1.13748 -0.608677 1.694
19.3605 19.2044 24.0624 -1.30463 -1.26501 1.30378
23.8368 19.6395 20.2878 2.58794 -0.891371 -1.58965
19.1593 21.762 20.2676 -1.21932 1.06493 1.84338
19.2791 23.96 21.8037 -1.56094 -0.0441605 0.664103
17.1376 22.3466 22.2689 0.851794 -1.97899 2.16288
19.9361 21.821 23.0873 -1.60815 -0.549454 -0.674323
22.3891 21.4595 21.8092 -0.587048 1.45562 -0.0237079
ITEM: TIMESTEP
16000
ITEM: NUMBER OF ATOMS
28
ITEM: BOX BOUNDS ss ss ss
1.5744463877560056e+01 2.4274669232907691e+01
1.7115422647841569e+01 2.4104566343966397e+01
1.6480584363229625e+01 2.4127778426154478e+01
ITEM: ATOMS x y z vx vy vz
17.717 19.1482 20.0342 2.5592 2.35681 -1.57841
19.875 17.8811 19.3409 0.480427 0.818224 -0.0137159
21.7254 19.6063 16.3823 1.05961 0.350789 -1.26121
22.7586 18.1377 17.8548 0.442111 2.42695 0.829016
21.6503 20.1871 19.3699 0.118273 -3.43476 -1.08798
24.0329 20.4809 17.6231 1.44841 -2.4776 -0.041795
19.4408 20.0492 17.9164 -2.07181 1.47366 2.64972
15.72 20.5667 21.3359 -0.535384 -2.51137 -0.189889
16.7254 21.3729 19.0146 0.0511415 -0.917655 1.15565
19.2865 22.6165 17.429 -0.868712 0.219182 0.944057
18.9492 23.7602 19.3997 -0.440161 -1.36985 1.68579
21.5546 23.1308 19.4937 -0.0849779 0.929795 -3.29553
23.5177 21.7856 20.4034 -1.4158 2.1345 -3.3678
21.5186 21.9219 17.0984 0.59905 -0.958199 -0.876224
22.0334 17.6187 20.6166 -1.21074 -1.47197 -0.509511
24.1717 19.2182 19.8285 0.296435 1.64827 -1.26324
19.4032 21.4988 20.0629 0.738371 -1.74099 -0.585299
18.9943 17.0552 21.5531 -0.347712 -1.01822 -0.97346
17.9853 20.0431 22.6786 -0.81176 2.5615 2.19042
21.8361 20.1379 23.9585 -0.846868 -3.18872 -0.683466
22.0178 17.5574 23.0376 1.07714 3.12688 0.149828
23.2779 19.9739 22.0313 1.12694 -0.0968965 4.49929
20.4638 19.488 21.9004 2.25005 2.02482 -2.0668
19.5035 17.8848 23.5536 -3.96562 -0.363329 1.25786
19.0315 23.7383 22.0733 0.841807 -0.896713 0.969426
16.9815 22.5852 21.1642 0.174772 1.81088 -0.939943
19.5636 21.5538 23.7438 -1.60678 0.446025 1.30848
21.3245 22.0613 22.1614 0.942577 -1.882 1.09473
ITEM: TIMESTEP
17000
ITEM: NUMBER OF ATOMS
28
ITEM: BOX BOUNDS ss ss ss
1.6852677163380427e+01 2.4032848972139362e+01
1.6773625203407587e+01 2.4305837152223887e+01
1.6908188371950647e+01 2.4388367502639351e+01
ITEM: ATOMS x y z vx vy vz
18.5076 18.6171 19.4413 -0.718294 0.82629 -4.43996
18.6062 20.6168 17.4921 0.543342 1.63117 2.17198
17.046 22.837 18.2076 -0.782869 -3.80482 -0.0616793
19.2644 23.6505 18.2045 0.256786 -0.220717 1.4962
17.7253 24.2559 20.1299 0.567124 -0.797696 -0.342187
20.6266 16.9557 19.4866 -0.113497 -0.214483 -0.224855
20.7352 18.8697 17.3194 0.493387 0.290535 4.06602
22.9868 17.8074 18.7677 -2.39827 -0.699881 -1.04573
21.4164 20.17 19.3924 1.18478 -0.180317 1.10309
23.2695 20.5236 17.357 -0.568201 -3.40551 -1.21783
21.1488 23.5597 19.7024 1.14376 0.659769 -0.0575734
23.1505 22.207 19.2127 1.35832 0.405064 1.15254
20.8832 21.7173 17.3384 -2.76805 0.585991 -0.0506419
23.6972 19.7029 20.3001 -2.62119 -0.714027 0.158773
16.9486 20.6136 19.6373 -1.00274 0.71565 -0.999504
19.262 21.7034 20.0862 -1.05545 3.38139 -1.06701
19.3731 17.0276 22.2428 -0.586902 -1.70608 -1.82371
18.0567 19.5222 21.9686 -2.18196 2.58663 -2.00866
19.4983 18.2788 24.0668 1.19434 0.99206 -0.259662
19.621 24.0973 21.7422 1.19376 -2.65368 2.44416
17.328 22.2694 21.8223 -2.72879 -0.752828 -0.81094
19.7302 21.7854 22.7221 -0.40115 0.837272 0.0704697
23.0755 16.9633 21.0414 3.62658 0.894012 0.1659
21.188 19.9357 23.8768 0.666714 2.74466 1.92004
21.7072 17.3557 23.5915 0.513185 -1.07713 3.6912
23.3027 19.1239 22.8561 1.46417 -0.188066 -0.172336
20.7761 19.1649 21.4246 2.25007 -0.466844 -4.28886
22.1288 21.7284 21.6292 1.47105 0.331596 0.430753
ITEM: TIMESTEP
18000
ITEM: NUMBER OF ATOMS
28
ITEM: BOX BOUNDS ss ss ss
1.6606991215339939e+01 2.3593731303841103e+01
1.7023276745766776e+01 2.4000188609636492e+01
1.6966570570803007e+01 2.4271339872625848e+01
ITEM: ATOMS x y z vx vy vz
19.3053 18.1566 19.437 0.370737 -3.02895 -0.514271
18.396 20.5525 17.918 -0.250082 1.04324 0.989538
16.6754 22.7163 18.9844 -0.0210825 1.84936 0.468403
18.8375 23.0668 17.6257 -1.44991 2.9157 -0.481454