ITEM: TIMESTEP
0
ITEM: NUMBER OF ATOMS
28
ITEM: BOX BOUNDS ss ss ss
1.6245073495724295e+01 2.4761605734162664e+01
1.6340200676142832e+01 2.4827693404957888e+01
1.6851440786343836e+01 2.3639099011382338e+01
ITEM: ATOMS x y z vx vy vz
18.7232 17.0649 22.2471 -1.82786 0.997192 0.0598913
16.8243 18.7863 21.8981 0.917243 -0.904073 -0.397941
19.089 20.3394 18.1318 0.398972 -0.0366947 -0.460691
16.9047 20.3634 19.756 2.26996 -0.761045 0.522963
18.9336 19.4756 23.635 -1.00935 1.71906 -2.90134
18.2604 17.8652 19.5824 0.135684 0.0785895 1.06418
23.8528 18.8009 22.7325 1.59002 0.371322 0.42917
20.5486 16.4717 20.4134 0.12937 0.480279 -0.246758
21.5718 20.3502 22.9806 0.718483 -0.40935 0.664437
24.7575 17.9567 20.2864 -1.131 1.2796 -1.31747
22.8469 16.5896 18.9591 1.37866 -0.055874 0.512224
23.0724 16.3443 21.6591 0.132788 -0.715844 0.125356
21.1718 17.6789 23.0567 -0.674632 -0.438537 -0.525593
23.3654 19.1744 18.1755 -0.525744 -1.1412 -0.159277
20.7582 18.2649 18.2759 -3.14026 -2.00693 -0.60539
19.9926 22.9838 17.8572 0.975172 0.570531 1.39312
18.0995 24.2238 21.9845 1.68012 -1.40758 -0.00234411
17.3068 22.3802 17.9448 -0.442286 1.72012 -1.61088
17.2451 21.3873 22.3446 -1.75391 0.718275 1.09379
16.2492 22.978 20.3894 -1.9411 -0.915289 0.779442
20.2572 24.8236 20.4142 0.554303 0.350715 -0.584212
19.6142 22.2822 23.1831 0.84467 0.0280648 1.4747
17.9354 24.6431 19.1581 -2.08437 -0.993259 -2.04806
21.9079 22.7851 21.5974 0.718517 0.0139987 0.219229
23.7883 21.8248 18.0785 0.323651 0.878163 -0.999625
24.1215 20.6203 20.5125 1.08419 1.25159 0.464547
21.5204 20.7478 16.8555 0.0064537 0.0575804 1.37658
22.3414 23.8536 18.9506 0.672237 -0.729403 1.67996
ITEM: TIMESTEP
1000
ITEM: NUMBER OF ATOMS
28
ITEM: BOX BOUNDS ss ss ss
1.6170304505170520e+01 2.4391293274794638e+01
1.6792274313600462e+01 2.4840161244691583e+01
1.7180431302667802e+01 2.3876833731572852e+01
ITEM: ATOMS x y z vx vy vz
19.3207 18.3984 21.9773 1.88015 4.85101 -0.924098
17.251 19.5271 21.9966 -2.33394 1.63149 0.24301
18.9122 19.9532 17.5881 1.27532 1.84937 -4.59113
17.2111 20.2931 19.6469 -3.28717 -1.2781 3.4811
19.8922 19.5386 19.7883 -0.494684 -2.01874 2.13739
18.3601 17.5881 18.942 -0.687255 -3.39152 0.147423
23.9628 18.9463 22.7651 -3.18208 3.53936 -0.467686
20.9335 17.196 20.6523 0.053584 -0.354937 0.644727
22.0368 21.0193 23.4559 -2.98944 -2.12894 -3.50056
24.3111 18.8246 19.6898 3.83017 -2.1763 -1.16388
22.5251 16.9406 18.9088 1.63097 -2.77706 1.48756
23.1638 17.1612 22.0428 -3.45113 3.23016 -0.335953
21.4854 18.3438 23.7474 0.355055 -0.149026 0.648437
22.7967 19.0632 17.1253 0.349258 0.303007 -3.09022
20.4083 17.8203 17.6999 1.96602 -0.737595 -2.27695
19.6316 22.3021 18.9708 2.39868 -2.54203 2.00466
18.5751 23.7602 21.5937 1.1607 3.44046 1.07401
16.5622 22.754 18.296 0.268908 0.571294 0.0368854
18.0917 21.511 22.3494 3.80739 1.61433 -2.05165
16.5111 22.9499 20.824 0.0607751 -3.20491 2.50992
20.6864 24.4825 19.9761 -0.0120237 -2.17499 0.798067
19.8086 22.0686 23.6428 1.42489 -1.9888 -1.78907
17.8185 24.6555 18.9751 1.14715 0.900614 -1.27079
20.2896 21.6112 21.416 -0.203684 -0.486659 2.6437
24.1803 21.1938 19.3199 -0.866076 -0.506674 -1.04494
22.2954 19.77 21.1165 0.801002 -0.111631 0.971051
21.7134 20.8341 18.2518 -1.22841 3.44728 0.375594
22.3252 22.5535 20.3014 -3.67415 0.649535 3.30338
ITEM: TIMESTEP
2000
ITEM: NUMBER OF ATOMS
28
ITEM: BOX BOUNDS ss ss ss
1.6424670523669686e+01 2.4504453303963334e+01
1.6949290108538907e+01 2.4669883887205106e+01
1.7576558159940891e+01 2.3486709497625615e+01
ITEM: ATOMS x y z vx vy vz
18.7295 19.1225 23.7182 -1.76924 0.0647309 3.28003
17.8825 17.7648 21.4847 2.75009 -3.26681 -2.4938
17.8142 20.3064 17.8756 -1.51215 2.97575 -3.75337
16.7773 19.5487 19.8281 1.1719 -0.259287 0.945211
19.2042 20.4808 20.4312 -2.28232 -0.612898 -0.182688
18.1318 17.5728 19.043 -1.97581 -3.91361 1.5724
24.4011 20.1206 22.006 -1.50872 2.96316 3.0599
20.772 17.8007 21.987 1.16126 -4.38841 -0.0819816
24.068 17.431 19.3401 0.724765 -0.774326 1.92323
21.6895 17.1367 18.7107 -6.05323 2.44566 0.0407436
24.0667 17.384 21.7706 -1.17646 0.235556 1.27487
22.539 18.614 23.4197 0.383061 3.75149 -1.54362
22.9027 19.2644 17.4092 -3.40113 0.425053 -1.91668
20.2292 19.347 18.5253 0.150378 -1.73159 -0.693687
22.5301 19.2634 20.3079 -3.1906 -1.21049 0.665035
19.4807 22.2558 18.4792 0.431166 1.98282 2.39554
17.1053 23.2523 22.1215 -1.64179 -2.5962 2.31478
17.0032 22.3826 17.7176 0.265482 1.54938 -2.46501
17.3111 20.665 22.367 1.67469 0.683641 0.0832636
17.484 22.9261 19.8778 2.56989 0.455676 3.38427
19.0139 21.8058 23.385 -1.04965 -3.88322 1.34459
19.2063 24.8182 19.5169 2.79366 -0.352126 -6.06211
20.1266 23.0075 21.4467 3.80429 -0.912411 -1.68428
21.3548 20.5748 22.7438 1.00698 -1.10393 2.02523
21.9579 23.8863 19.1042 -2.35051 1.84953 -2.39077
24.5459 20.6743 19.2083 3.6505 0.524403 -1.82625
21.885 21.4636 18.5497 5.51505 2.09533 -0.290548
22.8476 22.19 20.685 -0.141566 3.00314 1.07571
ITEM: TIMESTEP
3000
ITEM: NUMBER OF ATOMS
28
ITEM: BOX BOUNDS ss ss ss
1.5859274658841494e+01 2.4670734898533901e+01
1.7190514154873021e+01 2.4937259998591969e+01
1.7496455708401189e+01 2.4113209367693766e+01
ITEM: ATOMS x y z vx vy vz
18.9903 19.8358 23.8568 -0.0285165 -1.29214 2.47205
19.0701 17.2481 21.2389 -1.04146 1.85491 2.41318
16.346 21.7224 18.0134 -1.36316 1.05995 0.767888
16.7097 18.8954 20.4662 0.197678 2.20004 0.0531229
19.6267 20.1224 20.6094 -0.509487 0.313862 1.80757
17.6114 17.7854 18.7235 2.21266 2.90358 3.03646
18.955 20.0994 17.9835 1.23629 0.848992 -4.10403
21.1769 21.9161 17.4821 -0.22486 1.41325 -4.21456
15.6706 20.5408 22.5005 -4.29721 -4.73412 -1.52431
18.9069 22.8062 18.6374 1.84396 -0.660794 -1.26359
17.1928 18.6008 22.9629 2.16466 -3.48468 2.51031
17.2882 21.5487 20.2842 -0.713431 -0.42282 1.71541
18.2568 21.8484 22.4833 2.93863 -0.917363 -2.47571
20.494 24.8667 18.8374 2.58618 -1.89224 -0.621064
20.0648 22.8656 20.8296 -5.5647 4.25931 0.559773
24.1561 20.2408 22.3377 -4.92824 -0.428724 -1.19785
21.2632 18.4855 21.9992 -0.0283364 -0.41615 -1.66387
22.5057 18.108 19.9057 -0.106666 -0.00810769 1.50397
20.1892 17.5408 19.3208 -2.50412 -0.795499 -0.537502
24.444 17.9656 21.6507 -2.29386 -1.81893 2.50226
21.8009 19.7443 24.1204 0.243633 -2.38423 1.1376
21.3075 19.2975 17.5054 0.677272 0.398279 0.729287
22.3227 20.6485 19.9692 2.88393 -1.67697 0.111041
21.5923 21.1444 22.3823 2.34802 2.41686 -1.82405
22.1399 23.6859 19.4149 0.689246 1.79331 2.54291
24.8237 19.8818 19.7243 4.47334 0.522976 2.38323
23.6902 21.254 17.7832 -1.37165 0.435774 -3.86444
24.4641 22.3607 20.0372 0.480192 0.51167 -2.95511
ITEM: TIMESTEP
4000
ITEM: NUMBER OF ATOMS
28
ITEM: BOX BOUNDS ss ss ss
1.5762690888009548e+01 2.4183913438080197e+01
1.7309708605784589e+01 2.4472697933723715e+01
1.6272774842513332e+01 2.3982004388630081e+01
ITEM: ATOMS x y z vx vy vz
19.8197 19.4851 23.6692 -3.14677 -0.497083 -0.768571
18.687 19.7906 21.3978 -1.87525 -1.88055 3.07566
16.5734 20.7723 18.2708 -1.24435 0.651266 1.01373
16.3026 19.2641 21.0857 1.43349 -2.6936 -0.679431
19.8438 21.1709 19.4443 1.69256 2.36587 -0.838853
18.3916 18.6329 19.0049 -2.74002 -4.06169 -1.2117
19.1816 20.0612 16.873 -2.24697 -0.522388 -0.535208
16.0206 20.0661 23.5721 2.47008 3.78792 -2.15815
18.1383 22.3006 17.8532 -5.80071 2.62192 -2.74499
17.7373 17.9955 23.5497 1.0634 -0.526433 -1.50616
16.7176 21.705 20.5775 0.681596 -3.51827 0.335851
18.1285 21.5143 23.064 -2.77638 -2.01883 4.0835
19.1979 23.1997 20.8755 -0.257426 3.15794 1.65378
20.8065 18.1901 18.669 -1.29358 -1.55394 -0.216234
21.5946 22.0246 17.6039 2.52866 3.71181 1.74323
19.966 23.9326 18.8543 0.654605 -4.28846 -0.408116
23.6163 21.464 22.3936 3.91512 -1.71859 -1.59326
21.0468 18.3964 21.1686 -1.76531 -0.838455 -0.971755
23.4601 17.9887 19.03 -1.05629 -0.0129771 1.80992
22.9412 17.4334 22.6703 -4.03995 -1.24093 -0.919775
22.6502 19.5111 23.7673 -0.752521 2.72885 -2.19167
21.8803 19.7789 16.4197 2.37171 -2.42504 -0.442174
22.3925 20.3597 19.6078 2.03058 0.471601 -2.36695
20.9888 21.2337 21.9556 3.98442 3.84176 2.51588
21.9931 22.9468 20.1341 2.4508 0.0876061 -0.369537
24.4037 19.2195 21.0832 2.59926 2.03923 1.55297
23.9027 20.4196 17.7591 -0.260576 1.90865 3.20382
24.6774 22.2028 20.7059 1.37983 0.422785 -1.06584
ITEM: TIMESTEP
5000
ITEM: NUMBER OF ATOMS
28
ITEM: BOX BOUNDS ss ss ss
1.5500217868750113e+01 2.5207362039308844e+01
1.7496314329724616e+01 2.3452228157755709e+01
1.6647543589319024e+01 2.3560634783215093e+01
ITEM: ATOMS x y z vx vy vz
19.9773 19.1969 23.5878 -0.622576 2.02459 2.24911
18.3524 19.9282 21.3874 0.63567 1.16047 3.4459
17.2163 19.6769 18.8888 -3.70723 3.39263 2.98303
16.2452 18.3543 20.394 1.83631 1.20966 -1.88518
19.9357 21.3144 19.1214 -6.72901 0.783401 1.92945
18.7362 17.4216 20.6985 3.25348 -6.06046 0.34457
19.1296 21.1063 16.6345 1.18285 -0.169433 -1.25676
15.5096 20.3202 22.026 0.827444 -1.51803 -0.167486
17.6502 22.2165 18.4511 -3.79631 -0.500564 -0.823541
17.4271 18.3837 23.5252 -2.94235 -0.806714 -0.967105
16.9279 22.2485 21.2657 0.376513 1.27834 2.63613
18.1529 20.9879 23.4803 0.573292 0.848407 2.16025
19.4626 23.443 20.4571 1.46552 -0.217662 -2.20935
20.169 23.4122 17.9105 1.35037 3.40983 -3.19399
19.5307 19.0511 18.613 1.23896 -0.560292 -1.35529
23.5126 22.2031 18.5757 0.292953 -2.63014 -2.54424
23.4472 21.7811 22.4855 -1.38006 5.36567 -0.824008
21.0973 17.9472 21.2621 0.33046 -1.435 -1.03703
21.848 18.2664 18.7528 1.04416 0.477778 -3.01618
23.5346 17.8388 20.6842 1.46062 2.49535 -1.7724
22.4487 19.4626 22.9605 0.0602927 -3.0919 1.30632
21.7106 20.1756 17.1736 1.52769 -0.297436 -2.60257
22.3939 20.2741 20.3614 4.59127 4.03322 0.138585
20.4975 21.7526 21.965 0.727177 -2.3372 1.56036
21.957 23.2606 20.0586 0.308656 -1.19543 -0.657449
24.9288 19.9926 21.9376 -4.77095 -2.04577 1.43083
24.0657 19.5641 18.2294 1.62272 0.194837 3.36225
25.1952 21.4794 20.1722 -0.757911 -3.80814 0.765795
ITEM: TIMESTEP
6000
ITEM: NUMBER OF ATOMS
28
ITEM: BOX BOUNDS ss ss ss
1.5952741835314413e+01 2.5027682165178287e+01
1.6843152242167065e+01 2.5140078086181536e+01
1.7212702000327365e+01 2.3361937896218755e+01
ITEM: ATOMS x y z vx vy vz
19.9085 17.5042 23.2948 -1.18856 -0.38377 2.26263
19.5356 18.9568 21.2617 1.06647 0.101197 1.704
17.3075 21.8744 21.6439 -0.430543 1.2889 3.90282
17.5297 19.5291 19.5582 -0.351082 -2.57676 2.25263
19.4791 21.3097 19.5709 -1.87437 3.40027 -0.870736
17.8616 17.09 21.0152 -4.20935 2.22912 -0.181452
18.2825 20.9697 17.3426 1.4261 1.27181 -4.00863
16.2493 19.3165 21.6967 3.52631 -2.23462 -3.80563
18.6663 23.1851 17.7436 -1.52714 -1.63187 -1.49818
17.4339 17.9342 23.2403 3.27282 -0.803774 -0.559293
18.0114 23.6721 20.549 1.04245 -0.339818 -2.19232
18.3338 20.0506 23.5853 1.74893 -0.519927 3.44965
19.6295 25.1565 18.6995 1.74103 -0.315821 -0.266359
21.2278 22.4802 17.7336 2.86817 1.76666 -4.32585
19.9923 17.5735 18.9799 0.0639179 -0.273356 0.832376
23.4892 23.0707 19.5292 -1.58972 2.57292 1.46377
22.7424 21.8325 21.8204 -0.935392 0.0244109 0.401074
21.5659 17.3534 21.3337 2.94751 -2.28058 1.68459
22.2986 17.4472 18.8228 2.05636 -0.425893 -2.12445
23.637 18.2727 20.8158 1.92361 0.709853 0.980134
21.7279 19.824 22.8047 -2.69538 0.596884 0.402242
20.3488 19.4835 17.6118 -2.11263 2.11404 4.45443
22.1104 20.2815 19.6742 -3.92273 0.846852 0.516655
19.8156 21.5769 21.9773 0.275449 -1.16251 1.99718
21.0532 23.6051 20.1768 -0.540963 1.09195 -2.21123
24.6124 19.8912 22.4561 -4.35617 -3.48346 -2.06126
23.5358 20.8206 17.8991 2.46301 2.76745 -2.49245
24.6743 20.9983 20.2228 -0.688112 -4.35018 0.293643
ITEM: TIMESTEP
7000
ITEM: NUMBER OF ATOMS
28
ITEM: BOX BOUNDS ss ss ss
1.6695142929233850e+01 2.4655206807428758e+01
1.7690526013672290e+01 2.4329651424848606e+01
1.6524127591136015e+01 2.4107139184827158e+01
ITEM: ATOMS x y z vx vy vz
20.2378 17.7371 23.7333 0.761098 1.61271 -0.930274
19.4191 19.8201 21.6012 2.61346 3.99645 -1.57687
17.8549 18.3921 16.856 0.339351 -2.27286 -3.0228
17.2749 18.3281 19.5225 -0.35598 1.30612 2.44754
18.0183 20.6339 16.5852 1.50648 1.44699 2.47724
16.6948 19.9262 21.738 -0.100678 -0.477639 -2.25465
17.9904 17.8983 22.4978 0.720088 0.173722 1.31385
18.9376 19.8705 24.1303 0.253744 -1.22489 1.0899
19.6429 17.946 19.5765 -1.39999 2.08455 3.37968
20.4647 19.5 17.4172 -3.61157 0.113375 0.24695
21.7046 18.7899 20.8435 -2.03683 1.02115 -3.00076
23.2016 18.2755 18.9913 -1.7091 -2.33732 5.39025
24.626 18.3019 21.3314 -1.29279 -1.94539 -1.38219
21.9634 19.2442 23.3603 -2.62273 -3.03417 -1.79697
20.3056 21.4804 19.4376 -0.0228337 -0.282891 -1.04488
24.4197 19.7794 22.9697 0.797438 2.56991 -0.0885943
24.6156 20.4002 20.037 4.64607 2.6041 0.435781
17.7594 21.9713 22.7864 -0.161266 -1.17441 3.40489
17.3619 20.7169 19.1404 -0.0598787 -0.871786 0.466073
18.6114 22.8135 18.0891 3.33666 -2.6092 -0.658588
18.9222 23.2213 21.0257 0.569463 0.0289753 2.74865
20.3622 24.2271 19.0292 -2.61903 -3.87833 0.478903
20.3697 21.9104 22.8226 -2.96454 -0.285344 -2.61098
20.7647 21.7942 16.9692 2.7322 2.49565 -1.55232
22.5113 22.742 19.3309 2.05689 2.42432 1.33497
22.6316 21.2667 21.8039 -1.11912 -1.50789 -1.32744
21.6495 23.5865 21.2946 -1.04371 -0.945584 -1.21085
22.7441 20.4864 18.1392 0.787091 0.969684 -2.75649
ITEM: TIMESTEP
8000
ITEM: NUMBER OF ATOMS
28
ITEM: BOX BOUNDS ss ss ss
1.5800152788853508e+01 2.4577328739996439e+01
1.7546642828985505e+01 2.3931602912312325e+01
1.6651158703585338e+01 2.3843518617639134e+01
ITEM: ATOMS x y z vx vy vz
17.6022 18.5752 17.8439 2.71639 2.23096 1.78766
16.3171 18.9891 20.4041 -0.700362 -0.615729 -0.632937
18.9406 20.6924 16.7425 2.55911 -0.640204 -0.683874
18.6851 17.659 20.2992 -1.10635 -0.807459 -2.1553
20.1617 19.5044 18.3841 2.47929 3.13005 -0.951606
17.5595 21.3556 19.0055 -2.12518 3.35844 0.73588
19.4416 22.8147 18.3332 1.68058 -1.32508 -3.06242
25.107 18.6298 19.4829 1.83523 1.04706 0.238592
21.3561 21.1846 19.5179 -1.10793 -1.39108 0.713514
23.9681 20.7211 20.5608 3.3918 2.01237 -2.6709
21.575 24.172 18.7953 0.813249 1.17391 -3.72597
21.3058 22.259 17.0163 0.27033 0.147988 -0.956964
23.4064 22.3237 18.3472 0.153803 0.9362 -0.065848
23.1228 19.7865 18.1663 -0.263367 -3.6881 0.926357
20.5589 17.3226 22.248 -0.169243 -1.55405 2.29253
19.2841 20.078 21.1826 -0.184833 2.57212 -1.93575
15.4491 20.2916 22.0561 -0.330306 -0.635339 2.1673
17.4536 18.4378 22.4425 0.697744 -2.92551 2.22298
19.656 19.2174 23.6863 -2.64796 3.57212 2.29905
17.3828 20.9208 23.389 -2.94574 -0.999935 -0.17093
17.2207 22.0989 21.2121 -2.6874 -1.84672 3.93566
22.0309 18.2061 20.0075 -0.650204 -3.45853 0.545044
24.0596 18.1421 21.5915 -0.778294 2.76918 -2.11908
21.9853 19.9616 22.0606 -2.36421 0.0261405 -1.965
24.5735 19.9576 23.0548 -0.6552 -3.33232 0.449321
20.6048 21.7925 23.4096 1.83823 -0.54131 -2.2605
22.3997 23.0531 20.9374 2.47032 2.12438 1.3659
19.8522 22.9129 20.8826 -2.1895 -1.33954 3.67726
ITEM: TIMESTEP
9000
ITEM: NUMBER OF ATOMS
28
ITEM: BOX BOUNDS ss ss ss
1.5947390494878539e+01 2.5422060350608056e+01
1.7699980545569634e+01 2.3629636579774814e+01
1.5940533329686717e+01 2.3737273561085402e+01
ITEM: ATOMS x y z vx vy vz
17.913 20.2 18.2979 0.291292 0.383961 -1.70796
16.457 19.6649 20.6612 1.27439 -0.147646 -1.23208
19.3048 20.5575 16.4198 -5.0542 1.07093 2.11738
18.417 17.8843 19.814 4.18121 1.75185 -0.0476305
20.6393 18.4979 17.6474 -0.82801 -1.12363 -3.19614
16.6163 21.9913 19.7953 3.15676 1.42276 1.64698
19.3112 22.7512 17.1326 0.499772 -0.0897414 -0.970656
18.9536 20.3897 21.1228 -0.448205 -1.32736 -1.16459
16.1091 19.9092 22.9619 -0.568444 2.37618 -1.45538
17.4101 17.6088 21.8883 1.20747 -0.975174 0.958503
20.9527 20.3537 23.9537 -1.92034 0.100125 0.314775
18.6212 19.446 23.4572 1.63078 0.710478 3.81495
17.2718 22.198 22.27 5.39564 -0.214481 0.165981
18.8052 23.0708 19.9975 -0.367784 0.468346 -4.83016
24.6968 20.2212 19.9673 -3.88347 0.0547107 3.80726
20.6494 21.1172 19.132 -1.55049 -2.79328 -2.18995
24.7512 21.0509 22.1312 -0.559727 0.611324 1.02384
21.2915 23.5165 19.2098 -2.74166 -0.313125 1.53008
21.8992 21.0424 16.7414 0.914826 -1.2663 -2.32905
23.3246 21.7548 18.6107 -2.76314 1.56277 0.885462
23.1109 19.0542 18.2158 -0.03961 0.343342 -0.669766
20.1384 18.3551 21.8809 1.9803 0.478741 -0.025923
21.5879 17.8973 19.9219 2.69713 0.20986 0.217785
24.1002 18.3486 21.7921 -2.2214 0.0819368 -0.203677
22.4136 20.2103 21.1387 1.21231 -2.04785 3.59714
23.1436 19.1076 23.6643 -0.622455 -2.08378 -2.55208
20.3315 22.1341 22.3392 -0.34084 0.410048 1.06669
22.8388 22.7263 20.8949 -0.532097 0.344991 1.42823
ITEM: TIMESTEP
10000
ITEM: NUMBER OF ATOMS
28
ITEM: BOX BOUNDS ss ss ss
1.6146286321189869e+01 2.4101100301200365e+01
1.7687606868885787e+01 2.3435284034639480e+01
1.6089281788125231e+01 2.4234181275371576e+01
ITEM: ATOMS x y z vx vy vz
18.1755 20.2208 18.8934 0.870205 -0.145567 0.808454
16.9848 18.6814 20.2035 -1.48522 0.899237 -1.05746
19.2538 20.9747 16.6527 -2.18209 0.666882 -0.992253
19.4323 17.493 19.8522 -1.27131 -1.55796 1.07413
16.6799 21.7337 20.6681 1.97238 -3.7715 1.94039
20.4078 22.9999 16.989 3.00253 1.27045 2.42706
18.7174 20.1614 21.5597 0.619134 1.09498 -1.5889
16.2997 20.2596 22.9143 0.656152 -1.33529 -1.66934
17.7754 17.8096 22.3342 0.554399 -0.831936 -2.08988
18.409 19.5849 24.0404 2.79391 0.784195 1.25269
18.0444 22.1138 23.3255 1.98776 3.56421 1.60976
18.8522 22.5383 19.4845 2.32773 -2.11019 -2.90004
20.4251 17.8118 22.0821 2.40333 2.30402 -2.63768
20.4443 22.5123 21.3001 -0.741775 0.670739 -3.00442
20.6497 18.7817 17.2047 -3.04374 -2.77333 -2.30094
20.5776 21.2149 23.5287 -3.46452 1.37441 1.62927
23.8691 19.9838 20.0943 -1.08806 -1.86496 -2.87577
21.149 20.9261 19.0592 3.21123 0.684431 0.273248
23.71 20.7126 22.5501 -0.702073 0.827559 -1.52652
21.3377 24.0859 19.4921 1.13952 2.58542 0.320473
21.871 21.1043 16.1296 0.459626 -0.0767991 0.820388
22.9571 22.3659 17.796 -3.23135 -0.941403 2.38588
22.9595 19.1061 17.2851 -1.04489 3.99531 1.58932
21.8186 18.0203 19.4214 1.28132 -3.82904 -1.18168
23.3293 18.2978 22.0539 -3.9514 1.06157 3.65681
21.5473 19.9282 21.3082 0.708532 -3.18047 5.83772
22.1924 19.2081 24.2152 1.26763 0.821278 -2.91503
23.1901 22.429 20.6219 -3.04898 -0.186216 1.11431
ITEM: TIMESTEP
11000
ITEM: NUMBER OF ATOMS
28
ITEM: BOX BOUNDS ss ss ss
1.6312045990889427e+01 2.4248294482738810e+01
1.7182470857342146e+01 2.4297546331870610e+01
1.6281247777956612e+01 2.3922396510135005e+01
ITEM: ATOMS x y z vx vy vz
17.8433 20.1991 18.458 4.51232 -2.43452 0.267658
19.3344 20.7689 16.1664 1.13382 0.284523 -2.1217
18.3622 17.6248 19.6292 -0.599222 1.07401 1.14685
21.2453 22.6847 16.936 -2.09341 -1.74954 -2.56693
19.1239 22.5958 18.8506 1.29078 2.16558 0.297789
19.4527 18.6056 17.2607 -2.70115 -2.02468 -2.98228
24.3251 21.3886 20.4456 3.28664 1.29105 -0.847484
20.9303 20.7044 18.9902 0.612903 2.17549 -2.39418
21.3113 24.2185 19.116 -2.57237 -2.18735 1.1338
21.7069 20.3568 16.6796 0.625264 -0.662461 0.989561
23.2361 22.2588 18.6127 0.241987 -0.365235 3.43327
23.2735 19.4659 19.2143 -2.77395 1.68555 1.89317
21.013 18.207 19.2701 1.50707 1.47829 2.66833
16.1612 19.2697 20.7465 -1.98738 -1.95996 -1.28253
17.5144 21.9654 20.6558 0.321674 -0.394697 3.23867
18.9862 19.6915 20.9471 0.888678 3.33997 0.426294
16.9072 19.8019 23.1897 2.65388 -0.61945 -0.440949
18.1899 17.2741 22.4576 -1.81573 2.17196 -0.390289
19.4886 18.8774 23.4965 -1.27 -1.43767 -2.10424
18.47 21.6886 23.0273 -2.27718 0.0711953 2.18476
20.6198 17.5669 21.7683 -2.05245 -0.273613 2.36408
20.1921 22.6707 21.3675 1.93901 -0.263266 -1.25635
20.5291 21.3778 24.0065 0.156105 -0.516218 1.77797
23.3246 21.3388 22.8308 0.232115 0.410471 -0.520897
23.1819 18.4762 21.0624 0.231295 1.67658 -2.50614
21.419 20.1314 21.5022 -0.564479 -0.503562 -0.518124
22.3112 18.8924 23.5341 0.667671 -0.92885 -0.706736
22.6069 22.9585 20.8385 0.406088 -1.50359 -1.18339
ITEM: TIMESTEP
12000
ITEM: NUMBER OF ATOMS
28
ITEM: BOX BOUNDS ss ss ss
1.6842608175955036e+01 2.4206943009438966e+01
1.6742391609413858e+01 2.3981399903080426e+01
1.6338711418237416e+01 2.4309880620404066e+01
ITEM: ATOMS x y z vx vy vz
18.1328 20.059 18.9073 -2.63187 2.04411 0.176029
18.5584 21.2338 16.4589 0.884153 -0.788124 -1.52493
18.8989 17.4992 19.4053 -3.18716 -1.62021 -0.237156
18.5865 23.1288 18.9311 -0.782626 1.2001 0.0334428
19.9354 19.0958 17.5168 0.360738 0.296906 -0.861707
20.4231 22.6836 16.468 -0.862338 2.25073 0.758536
20.7934 21.3211 18.913 1.13918 2.40559 -0.522985
21.078 23.8484 18.677 -2.29876 0.0157685 -2.6584
21.6484 20.5647 16.6554 1.75521 -2.44019 1.01092
23.176 22.4637 17.7245 -0.0579051 -2.03889 -0.85279
23.2151 19.9854 18.7808 -0.670164 0.699903 0.659745
21.3413 18.0453 19.867 -0.670438 2.9746 3.92892
16.6548 18.3691 21.0065 -0.288633 0.622194 2.0443
17.0383 21.1373 20.9222 1.78377 0.268473 -0.37413
19.1109 19.6124 21.0064 0.196261 -0.533547 4.16437
16.8423 20.4792 23.0776 -0.133497 -1.66641 0.930607
18.4352 16.4054 21.6819 1.87685 -2.38292 -1.98224
18.3843 18.4876 23.4924 0.119457 -0.0995213 -1.37616
19.3209 21.8317 23.0114 -2.50489 1.14803 0.511747
20.4786 17.5114 22.3303 2.87017 2.77144 0.0543027
20.5183 22.9395 21.1855 2.25402 -0.852083 -3.47383
24.4791 20.7189 21.5038 2.51922 0.135087 0.462071
22.6316 22.0837 23.1013 -1.06775 -1.21993 1.98205
22.7361 19.2888 23.5173 -1.76903 -3.12238 -0.116761
23.5597 18.7588 21.0702 0.125555 0.121058 -1.54941
21.4439 20.3608 21.3589 2.03249 0.882324 0.676003
20.6998 20.2943 24.0761 -2.54048 -1.69422 -1.00594
22.939 22.8523 20.413 1.54847 0.622111 -0.856592
ITEM: TIMESTEP
13000
ITEM: NUMBER OF ATOMS
28
ITEM: BOX BOUNDS ss ss ss
1.6561990380310380e+01 2.4218105524766727e+01
1.7328570486075904e+01 2.3561788906497469e+01
1.6082608270855783e+01 2.3771089592258189e+01
ITEM: ATOMS x y z vx vy vz
17.4213 20.5943 19.1457 0.114695 0.503326 -1.50868
18.6745 18.253 19.3638 -3.09388 1.28142 1.94872
19.4256 19.2513 16.886 0.415608 1.99474 1.54605
22.2869 19.7845 17.1542 1.52311 -0.728243 0.315302
23.6866 19.9424 19.3888 1.71191 3.64036 0.110974
21.7899 18.2107 19.0839 4.47686 -3.1505 0.780734
16.464 19.2395 20.8133 -0.915541 0.684997 2.14946
19.0417 20.4073 21.3289 0.326451 -0.210822 -0.743262
16.7201 20.5127 23.044 -1.20642 -0.674287 1.06988
20.2171 17.569 21.2717 2.64096 -0.579187 -1.89812
18.0304 18.1224 22.6253 -0.51359 -0.917237 -0.270527
22.2928 17.289 23.3249 -0.993248 2.10846 1.20679
23.038 19.5468 23.6392 0.12139 0.180613 -1.60634
23.7082 18.2919 21.4205 -1.50996 1.49692 1.69987
20.5576 18.9749 23.7124 1.6278 -1.72597 -1.81207
18.2975 21.4195 17.138 0.292793 4.10768 1.80146
18.3706 23.0984 18.7712 -0.797486 1.53482 -0.665983
20.9032 21.8513 16.3483 -2.77314 -2.56839 4.06139
20.1401 20.711 18.9793 1.31476 0.594942 1.72146
20.7483 23.4319 18.2048 1.79452 -1.44733 -2.89181
23.0377 22.3881 17.4061 0.203918 0.776912 -3.63887
16.8706 22.1573 21.3829 -0.175175 -2.24992 0.183028
19.5186 21.5477 23.3834 0.735613 -0.124771 -0.1131
19.4896 23.0596 21.1318 1.88307 0.277373 -3.72417
24.2635 20.8465 21.9457 -2.57486 -1.1348 1.24077
22.106 22.1963 22.6379 0.360771 -2.53924 -0.144923
21.6843 19.9735 21.3785 -3.89444 -1.14159 -1.78742
22.275 22.3896 20.1499 -1.0965 0.00971503 0.969379
ITEM: TIMESTEP
14000
ITEM: NUMBER OF ATOMS
28
ITEM: BOX BOUNDS ss ss ss
1.6119454752536448e+01 2.4347188615426912e+01
1.7606464082706761e+01 2.3732280380214490e+01
1.5957228222391581e+01 2.3730022579192276e+01
ITEM: ATOMS x y z vx vy vz
18.1423 20.2759 18.1068 3.8821 0.893139 -3.52613
17.7363 18.1872 19.675 0.173216 1.90894 0.679578
20.1097 18.1231 17.6098 -0.8039 -2.65949 -0.126766
15.9474 19.6009 21.1437 -1.64287 1.26082 0.585861
18.4049 20.5138 20.9306 -0.370543 2.04041 0.901046
16.9994 20.5022 23.6023 0.853915 -0.495092 -1.50169
18.4085 18.2252 22.5871 -1.01577 -1.62492 1.6471
19.3823 22.4155 17.1217 1.15301 -1.68295 -0.447778
18.3364 22.7866 19.3769 -0.545297 0.701651 -1.12839
20.6604 20.5823 18.9337 -2.99136 -0.697309 1.40017
16.1277 21.9625 21.2399 1.15398 -0.704096 -0.654586
19.0769 21.6244 23.3821 -1.69587 -0.901947 -0.590573
20.3369 22.3138 21.1006 1.42975 -0.0160683 -1.30154
22.3352 19.4417 17.2728 -2.09767 1.00665 -0.182482
23.3784 20.9604 19.096 0.51694 5.36077 -1.11847
22.4704 18.5149 19.6144 2.14114 0.933952 -0.278082
20.106 18.1021 20.2472 -1.61843 2.17634 2.68777
21.8784 17.3767 22.1871 0.0682115 -1.75344 -3.59945
22.8553 19.4483 23.6037 1.76292 0.012655 -1.31835
24.3635 18.5087 21.4474 -0.952147 -0.374792 3.84886
20.4039 19.476 23.6449 0.506916 0.0225015 -0.174043
19.9336 20.2512 15.9713 0.162291 -1.524 1.68072
20.758 23.9176 19.0682 -0.301791 0.608132 0.425312
21.821 21.8386 16.9991 -3.80813 -1.4018 1.21817
24.4061 20.9702 21.5601 0.568974 0.821773 1.21267
22.0104 22.0579 23.2447 0.189049 -2.02995 0.625477
21.9037 20.1731 21.427 2.6412 -1.30479 -1.56874
22.767 22.9094 20.8659 0.640161 -0.577097 0.604345
ITEM: TIMESTEP
15000
ITEM: NUMBER OF ATOMS
28
ITEM: BOX BOUNDS ss ss ss
1.6714115530337150e+01 2.3898488610308295e+01
1.7587712900269150e+01 2.3434195870879623e+01
1.6422191954637412e+01 2.3801672485018138e+01
ITEM: ATOMS x y z vx vy vz
17.9519 20.0209 18.1654 -3.7081 -1.14038 -1.09945
17.2054 18.2927 19.9041 -2.15345 2.16622 0.109382
19.6804 18.1633 18.0344 0.107941 2.35034 -0.0299316
16.1759 20.8687 20.1784 0.68601 1.02574 2.79422
19.0434 19.9149 20.971 0.440545 0.702855 -2.81715
17.0936 19.9189 22.6553 -3.75298 1.34348 -1.32123
17.7453 17.5098 22.1252 3.09929 0.121601 0.545464
19.2594 22.3729 17.235 0.96218 -1.20401 -1.32945
18.2402 22.2195 19.5791 -3.29987 -2.02514 3.0348
17.6664 22.2877 21.9715 0.142114 -3.38307 -1.10766
19.8382 21.2744 23.6455 -0.0223135 0.2716 -0.840956
20.4577 23.2081 21.5833 0.624305 -0.515557 2.62343
20.0242 17.6848 20.5526 0.100109 -2.22951 -0.48624
20.1173 20.0236 16.2282 -0.115035 0.156896 -3.09456
20.6008 20.6095 19.0237 0.574148 -0.0941626 -4.24739
22.0269 18.7178 16.6113 1.54228 -0.710119 3.36691
23.2983 20.7935 19.2534 0.591467 -3.69134 1.60501
22.1079 18.5256 19.1327 2.63015 2.86254 1.32326
22.2591 17.7896 21.8687 -0.216293 0.553943 -1.43702
22.6296 19.7159 23.7355 -4.43637 1.14081 -1.47406
24.14 19.4555 21.4559 0.976239 0.0161832 -0.636418
20.0806 18.7686 23.1412 -0.562524 -0.950777 -1.62154
20.9178 23.248 18.8878 0.0693737 -0.271306 2.67285
22.0176 21.8049 16.8165 -2.3994 -0.820026 1.55425
24.0596 21.5916 22.6274 2.25873 0.584194 -0.014028
21.7927 22.6663 23.6431 3.30102 4.06529 0.00745596
21.7446 20.6601 21.5922 1.67076 -0.213916 1.93012
22.8853 22.9528 20.4417 0.889704 -0.112385 -0.0100602
ITEM: TIMESTEP
16000
ITEM: NUMBER OF ATOMS
28
ITEM: BOX BOUNDS ss ss ss
1.6025375405372927e+01 2.4098736143485809e+01
1.7383286953893080e+01 2.3317696843393808e+01
1.6230566570426408e+01 2.3560945646816233e+01
ITEM: ATOMS x y z vx vy vz
17.9328 20.0673 18.3789 0.226299 -2.5242 0.163091
19.5042 18.0528 18.0429 -2.83958 -1.48412 1.89854
19.2976 22.3697 17.1145 0.388474 2.93405 2.87668
18.166 22.5788 19.3776 4.38757 0.934096 0.078707
20.0498 20.0985 16.156 1.07909 -0.271359 -2.34833
20.8895 20.696 18.6182 0.785283 -0.528297 0.538593
21.9896 19.1414 16.8725 0.661903 2.02263 0.197716
23.6228 21.2816 19.6158 -2.75727 -1.09813 -0.578428
22.4308 18.58 19.5277 -1.9654 2.30412 1.80094
21.283 23.2034 18.7296 -0.893576 -1.97297 0.289289
22.1262 21.7649 16.6698 -2.19208 -0.538414 2.84993
17.2992 18.2743 20.2074 0.396453 -0.658272 -0.0416012
16.2994 20.5888 20.415 3.23734 0.330073 -0.96268
18.9849 20.3388 20.7597 0.487723 -0.729072 0.264994
17.4193 20.0051 22.6604 -2.12865 2.41437 3.51089
18.081 17.5971 22.5068 2.67584 1.44181 0.330725
17.4287 22.5604 22.0027 0.0701277 -1.62352 -1.07323
19.3488 21.2895 23.4812 -1.66012 1.30969 0.647962
20.0409 17.7393 20.5488 1.03871 0.591534 -1.78489
20.209 19.016 23.164 2.36207 0.306736 -2.40618
19.839 22.8391 21.2642 -1.33785 0.605484 -4.07513
21.9753 17.236 22.0073 -0.640015 -1.79159 -3.56865
22.571 19.2878 23.5249 -1.18958 1.58078 -0.128612
24.2832 19.2294 21.5101 0.515799 0.909155 0.723523
24.2529 21.655 22.1487 2.29194 -2.46878 1.4201
21.7715 21.9792 23.3907 -1.51681 0.411385 0.57118
21.6387 20.3863 21.3523 0.648545 -4.37769 0.482274
22.3249 23.2034 21.0122 -2.13222 1.9705 -1.67741
ITEM: TIMESTEP
17000
ITEM: NUMBER OF ATOMS
28
ITEM: BOX BOUNDS ss ss ss
1.6463715194762393e+01 2.4392261441575840e+01
1.7405896940851459e+01 2.3114694191852177e+01
1.6585556579026228e+01 2.3942648343948292e+01
ITEM: ATOMS x y z vx vy vz
17.7751 20.8346 18.3306 -1.07266 -0.00741261 2.55135
20.5417 17.3887 18.1174 -0.435345 -1.32857 0.0775671
19.3431 22.029 17.1099 -0.581151 -0.664908 1.22998
18.1069 23.229 19.339 1.00258 1.17472 -1.34695
19.3163 18.9808 16.602 -1.91217 -0.915674 0.0829066
20.3446 20.1565 18.8364 0.634513 0.164189 -1.11435
17.9824 18.4646 19.1073 -1.48395 -0.533338 -0.290102
22.1221 19.2073 17.1352 0.910315 -0.855895 -0.372356
23.0143 21.0361 19.1212 1.58242 0.107439 2.21084
22.8575 18.2525 19.2319 -2.36818 -0.585744 3.09866
20.6975 23.0054 19.3214 0.580156 -2.04213 -0.383557
21.5609 21.5823 16.8579 2.00556 2.97886 1.14557
16.2194 20.7031 20.4473 -0.38579 -0.230258 1.06051
19.123 20.6338 20.9531 2.14589 0.36824 -0.716652
17.0319 20.6382 22.8325 2.75997 -1.50594 0.162154
17.9262 18.4942 21.7683 1.27762 -0.468626 0.667073
17.3382 22.8382 21.8522 -0.0227189 2.98236 0.891826
19.1426 21.3175 23.8643 -2.86047 -0.484973 -2.03205
20.2459 17.951 20.5117 -0.574048 2.90507 -0.282117
19.9054 23.1306 21.669 -1.75557 -0.602187 -3.64299
20.07 18.699 23.112 2.76988 0.266046 -0.764299
22.7583 17.7035 21.732 2.22851 -0.593463 -1.22096
23.2237 19.4544 23.6511 -2.8875 -3.43119 0.581558
24.5412 19.3957 21.1221 1.38447 2.18421 -1.06279
23.8949 21.5994 22.6604 -1.17618 -0.104094 -1.52271
21.4985 21.288 23.3771 -0.615826 0.776402 2.02994
21.9093 20.1479 21.1193 -0.975677 -0.537511 -2.2161
22.5691 22.8989 21.2776 -0.174646 0.984388 1.17806
ITEM: TIMESTEP
18000
ITEM: NUMBER OF ATOMS
28
ITEM: BOX BOUNDS ss ss ss
1.6404268377235237e+01 2.4222667303468956e+01
1.7651204436496215e+01 2.3408178247415837e+01
1.6612831910769952e+01 2.3740710777634956e+01
ITEM: ATOMS x y z vx vy vz
17.2779 20.9295 18.6008 2.31662 1.38484 -0.43204
19.9088 17.4434 17.8243 -1.61304 -1.89833 0.312955
19.631 21.9764 16.8528 -0.303189 -1.38758 -3.34702