ITEM: TIMESTEP
0
ITEM: NUMBER OF ATOMS
309
ITEM: BOX BOUNDS ss ss ss
9.6454002326776713e+00 3.1144599767322330e+01
9.8667185139792934e+00 3.0923281486020706e+01
9.8238982085713715e+00 3.0966101791428628e+01
ITEM: ATOMS x y z vx vy vz
23.3981 13.7847 13.7883 -1.81696 -0.511251 0.0447093
17.7995 17.4935 13.9646 -1.14447 -1.26521 0.992018
17.5071 14.8624 12.8178 0.390886 0.426843 -2.64697
16.648 17.3582 11.3229 0.0579508 0.160717 0.999342
15.1131 16.4579 13.7796 1.26738 -0.214688 -0.295187
20.4526 14.3235 13.303 1.68483 1.61179 -0.000246229
19.5935 16.8193 11.8081 -1.65693 0.346012 -1.27087
22.539 16.2805 12.2934 1.43878 -1.72997 1.33164
25.4845 15.7416 12.7787 -1.33844 0.675068 -1.42918
24.6254 18.2374 11.2838 0.0157917 0.154038 0.602805
27.5709 17.6985 11.7691 0.459433 0.264484 0.0925994
16.9404 19.9893 12.4697 0.140986 1.2074 0.463021
15.7888 19.854 9.82798 0.975637 -0.476651 0.700761
14.254 18.9537 12.2847 -1.92639 0.305562 0.412656
14.8608 21.8967 11.8696 -0.451021 2.37186 0.888729
17.6298 22.1201 10.6511 0.0272305 2.14537 -0.967472
19.8859 19.4504 12.955 1.43642 2.15705 0.532358
18.7814 22.2554 13.2929 1.44463 -1.65561 0.861805
21.7269 21.7165 13.7781 -0.349293 -0.703737 2.54982
18.7343 19.3152 10.3133 -1.04905 -1.44541 0.932349
21.6799 18.7763 10.7985 -0.793454 -0.0232977 0.226427
20.5753 21.5812 11.1364 -0.684961 0.660584 0.384045
25.7769 18.3726 13.9255 1.70582 -0.460277 -0.499516
22.8314 18.9115 13.4403 -0.19422 -0.97822 -2.13701
26.4664 20.5035 12.1069 0.0321609 0.406067 -0.847687
23.5209 21.0424 11.6217 0.52531 -0.0165331 0.7959
13.9328 23.9395 13.9111 0.724305 -1.31443 -0.919424
16.7018 24.1628 12.6927 -1.31743 0.950914 1.82379
21.3118 26.6523 12.2974 -0.754776 -1.18877 -0.954335
19.4708 24.3862 11.4742 0.395321 -0.48341 1.27921
22.4163 23.8473 11.9595 1.06117 0.707916 0.137214
18.5428 26.4289 13.5158 0.598718 -0.795546 -1.09022
24.2573 26.1134 12.7827 1.72087 1.10651 1.55342
25.3618 23.3084 12.4448 1.3613 -0.5138 -2.18597
23.1528 28.9184 13.1205 1.58332 -0.971141 0.585644
16.8314 11.4663 16.7694 -1.3292 0.40001 -0.275323
14.4374 13.0618 17.7313 -2.69312 -0.620963 0.338529
15.9723 13.9621 15.2745 0.0984975 0.742954 -0.951677
19.5178 12.5019 16.9544 -0.176119 -0.591234 -0.746727
19.2254 9.8708 15.8076 -0.15208 -1.37747 1.26697
18.3662 12.3666 14.3127 0.0474149 0.887621 0.645059
21.3117 11.8277 14.798 1.17703 0.462737 0.737696
21.5973 10.5944 17.5546 1.89733 -0.164972 -0.609594
23.6837 12.5513 16.545 -0.155011 2.07127 1.10741
13.8707 18.1887 17.3832 0.468313 -0.73517 0.748912
11.1843 17.1531 17.1982 2.17479 1.17896 0.15254
12.7192 18.0534 14.7415 -1.45232 1.71522 -0.201231
13.5783 15.5576 16.2364 0.960177 1.55465 0.291928
17.1238 14.0974 17.9163 -0.356947 -0.387299 0.175542
16.2647 16.5932 16.4214 -0.460713 -0.198952 2.84613
19.8102 15.1329 18.1013 -1.06848 1.00831 -1.05611
18.951 17.6287 16.6064 -0.550403 0.292282 1.99183
21.8966 17.0898 17.0917 1.52908 0.0809204 -0.999667
18.6586 14.9977 15.4595 -0.143503 2.29407 0.106446
21.6042 14.4588 15.9448 -0.36316 -1.54765 0.245487
20.745 16.9546 14.4499 -1.44091 -0.812785 -0.80847
26.0625 17.1393 16.6822 0.869887 0.146702 0.825744
23.6905 16.4157 14.9352 -0.103645 -1.65901 -0.385273
23.9761 15.1824 17.6918 0.815933 -0.134529 0.070099
25.7701 14.5082 15.5354 0.978612 -1.9277 -1.47343
27.8565 16.4652 14.5257 0.950994 -1.16978 -0.277324
28.1421 15.2318 17.2824 -0.446634 -0.545361 1.66406
28.7489 18.1748 16.8672 0.0759446 -0.856725 -0.482483
11.7911 20.0962 16.7831 0.879839 -0.0770758 1.89535
13.326 20.9965 14.3263 1.32538 0.589066 -0.041537
18.0919 20.1245 15.1115 2.01861 -0.334701 0.449612
16.5571 19.2242 17.5682 -0.364763 -0.865455 -0.324019
17.1639 22.1672 17.1531 0.88964 -1.52189 -1.81537
15.4055 19.089 14.9265 -1.18454 -0.616364 0.297865
16.0124 22.032 14.5113 -1.04217 -1.34841 1.52203
14.4775 21.1317 16.9681 -0.874738 -0.496011 -0.661363
19.2435 20.2598 17.7532 1.37614 0.50594 0.417966
22.189 19.7209 18.2385 -0.0862278 0.609707 0.0775972
21.0374 19.5856 15.5968 0.00996336 -0.251073 -0.473105
19.9329 22.3906 15.9346 -1.30757 0.537573 0.440346
23.9829 19.0468 16.082 -0.857266 2.13735 -2.54486
22.8784 21.8517 16.4199 1.07101 -0.394749 0.216698
26.6693 20.0823 16.267 -0.402499 -0.635949 -1.57508
24.6724 21.1776 14.2634 -1.25815 -0.406895 -1.59742
29.3557 21.1178 16.452 0.262142 0.122308 -0.20151
28.4633 19.4082 14.1105 0.251868 -0.498133 -1.35918
27.3588 22.2131 14.4484 1.04176 0.870124 -0.490603
13.0048 25.9822 15.9527 -1.30732 -1.93664 -1.32136
12.398 23.0392 16.3679 0.56115 -2.32465 1.43668
16.9253 26.3408 17.376 -1.07542 0.157922 0.436093
15.0843 24.0747 16.5529 -0.673916 1.50549 -0.760447
17.8534 24.2981 15.3344 1.00347 0.368332 -1.13434
15.7738 26.2055 14.7343 0.246895 -0.12352 1.2234
21.7739 24.6567 16.7578 0.809998 -0.717889 1.02726
19.0049 24.4333 17.9762 0.661837 -0.946261 1.66368
19.6944 26.5641 16.1576 -0.824562 0.00359836 0.380612
20.6224 24.5214 14.116 2.09594 -1.26376 2.18099
24.4603 25.6922 16.9428 0.898788 -0.118673 0.0766015
23.5679 23.9826 14.6013 -0.486185 -0.0112054 0.754986
25.5648 22.8873 16.6049 0.595495 -0.623495 2.22714
26.2543 25.0181 14.7863 -1.62246 0.276123 -1.34908
28.2512 23.9228 16.7899 1.32723 0.151141 -1.36928
12.0768 28.0249 17.9943 -0.0291088 0.116199 -1.62504
17.6148 28.4716 15.5574 1.29665 -0.321474 0.327159
14.8458 28.2482 16.7758 0.568888 -0.202236 0.912949
22.4634 26.7875 14.9391 -1.95368 2.00748 0.265335
22.0663 27.2877 17.9046 1.15115 0.553356 1.15506
20.3838 28.695 14.339 -0.882237 -2.25717 -0.388441
19.9868 29.1952 17.3044 -1.4678 -1.33398 -0.604504
25.1497 27.8231 15.1241 1.06619 2.45475 -0.765075
22.7558 29.4186 16.086 0.0584728 0.531754 -1.06131
24.7527 28.3233 18.0896 2.95013 -0.703055 0.233475
27.1467 26.7278 17.1278 -1.73039 0.123336 -1.14796
16.4343 11.9665 19.7349 0.768197 -0.492943 -1.00963
14.0404 13.562 20.6968 4.49975 -1.055 0.42762
19.1207 13.0021 19.9199 -0.345468 2.03306 0.040459
21.8897 13.2254 18.7015 -0.0172059 0.756791 1.27244
21.4927 13.7256 21.6669 -2.1142 1.4295 -0.341046
18.8283 10.371 18.7731 2.6219 -0.424469 0.339684
18.4313 10.8712 21.7385 0.972037 0.223816 -2.19561
21.2003 11.0946 20.5201 0.0879926 -0.526055 -1.00148
24.2617 13.949 20.4485 0.00663603 -0.27805 1.93975
23.9693 11.318 19.3016 -0.115723 0.769241 1.04065
26.3413 12.0415 21.0487 1.49451 -0.600173 -1.11359
23.5722 11.8182 22.2671 -1.07149 -1.071 -0.594113
26.0557 13.2749 18.292 -0.421282 -0.156456 -2.02535
28.4276 13.9985 20.039 -0.668117 -0.207583 0.480973
12.3359 17.2884 19.84 -1.68539 0.0216508 -1.07304
9.64948 16.2528 19.655 -0.860194 -1.39158 -1.17705
12.0435 14.6573 18.6931 0.0569217 2.68066 -0.39526
11.6464 15.1576 21.6586 -0.968721 0.388083 0.407368
10.5419 17.9625 21.9965 0.448996 -0.162039 0.265961
17.4162 16.7284 19.0631 1.06164 1.57136 -1.93152
17.0192 17.2286 22.0286 -0.750477 -0.0961335 -1.89869
14.7298 15.6929 18.8781 1.05614 0.350429 0.837515
14.3328 16.1931 21.8436 -1.04224 -0.906918 1.4102
16.7268 14.5976 20.8818 -1.01857 -0.372703 0.774376
20.1026 17.764 19.2481 -0.215546 1.654 -1.64794
19.7055 18.2642 22.2136 -1.35727 1.20516 0.833571
19.4131 15.6331 21.0668 -0.0247417 0.878601 -0.96543
22.1822 15.8565 19.8483 -2.03817 -0.299101 -2.09713
24.5541 16.5801 21.5954 -0.633229 0.0348837 -0.314175
24.2685 17.8134 18.8387 1.09536 -0.519515 -1.25911
26.6337 14.6726 22.1955 0.229821 -1.28885 0.606192
26.3481 15.9059 19.4389 3.55082 -0.661124 0.283
27.2405 17.6156 21.7804 -0.356772 -1.02972 0.67141
29.32 15.7081 22.3805 0.684805 -0.808276 -0.83193
29.0345 16.9415 19.6239 0.708227 -0.526019 0.833472
12.9427 20.2314 19.4248 -0.096901 -1.31611 -0.789512
13.2283 18.998 22.1815 -1.52052 -1.38694 0.152481
13.8351 21.9411 21.7663 -0.103115 -1.73434 -0.331993
10.2563 19.1959 19.2398 0.875043 0.682925 0.147772
10.8631 22.1389 18.8246 -1.38088 2.50447 0.865724
11.1487 20.9055 21.5813 -1.22972 0.928566 1.64612
17.7086 19.3595 20.21 -1.72814 1.33185 0.344454
15.0222 18.3239 20.025 1.02273 -0.207516 0.750269
15.6291 21.2669 19.6098 -1.48935 -0.55268 -0.712789
15.9147 20.0336 22.3665 -1.33368 -0.590089 -2.01509
20.395 20.395 20.395 1.05936 0.459146 0.898843
22.4746 18.4875 20.9952 -1.45458 -0.33927 0.394998
18.3154 22.3025 19.7948 0.771545 -0.246402 -0.203739
23.0814 21.4305 20.58 0.865912 0.231488 -0.158274
25.7678 22.4661 20.765 0.0349502 -0.153689 1.04858
24.8753 20.7564 18.4235 -1.81424 -1.1535 1.07361
25.1609 19.5231 21.1802 -1.23583 0.392405 0.377363
27.5617 21.792 18.6085 0.583443 0.259186 -1.44961
27.8473 20.5586 21.3652 0.0299438 -0.357923 -0.645905
26.9549 18.8489 19.0237 0.338662 0.756764 0.297169
30.5337 21.5941 21.5502 -2.2313 0.941651 0.365933
29.9269 18.6511 21.9654 0.128829 0.279533 0.525647
29.6413 19.8845 19.2087 -1.15478 0.776905 -1.101
13.5495 23.1744 19.0096 0.529646 0.572645 -1.59878
11.47 25.0819 18.4095 0.744027 0.23338 -1.87378
11.7555 23.8485 21.1661 0.655419 1.01708 -0.0164916
16.2359 24.2099 19.1946 0.936782 0.503674 1.07674
16.5215 22.9766 21.9513 0.264804 -1.93899 0.127608
14.1563 26.1174 18.5945 -0.0515855 -0.232478 -0.420183
14.4419 24.8841 21.3511 1.30525 -1.28358 -2.22119
20.6874 23.026 21.5419 1.80692 -0.749244 -0.425008
21.0845 22.5258 18.5764 0.385883 0.509406 -1.14715
21.3769 25.1569 19.7232 -2.90266 -1.80998 -0.407519
18.6078 24.9335 20.9417 0.754442 2.00115 -0.382439
23.3738 24.0616 21.7269 -0.00722561 0.329575 1.12047
23.7708 23.5614 18.7614 -0.539624 -1.21137 -0.158268
26.0602 25.0971 21.9119 0.194482 -0.560884 -0.305992
26.4572 24.5969 18.9464 0.186279 -0.151462 0.739109
24.0632 26.1924 19.9082 -0.420778 -0.512642 -1.62878
28.4541 23.5016 20.95 0.515839 0.235325 1.64814
31.1405 24.5372 21.135 -1.00337 0.670417 -1.50986
28.7465 26.1327 22.0969 0.468175 -1.06462 0.968276
29.1436 25.6324 19.1314 -0.343283 -0.548817 0.200759
30.2481 22.8275 18.7935 -0.943757 -1.78568 0.0454334
12.3624 26.7915 20.751 1.27194 0.0378905 -0.129065
16.5283 26.841 20.3415 -1.05054 -0.510769 1.91469
16.8207 29.472 21.4884 -0.777725 1.30661 0.439471
14.4487 28.7485 19.7413 0.0805 1.57963 -0.556749
17.2178 28.9718 18.5229 -1.84622 -1.15543 0.674004
14.7343 27.5151 22.498 0.406843 0.535181 -1.2832
21.6693 27.7879 20.8701 0.174233 1.24693 0.617116
18.9003 27.5646 22.0885 1.43246 0.972825 0.354683
19.2973 27.0644 19.1231 -0.943044 -2.16045 -0.386385
21.9617 30.419 22.0169 -1.56819 -0.0910578 -3.32067
22.3587 29.9188 19.0515 1.2077 0.0601451 1.71186
19.5897 29.6954 20.2699 -0.0106705 -0.986637 0.597224
26.7496 27.228 20.0932 -0.514607 -2.29964 -1.01356
24.3557 28.8235 21.0551 -0.597629 0.681454 -1.61006
13.6433 14.0622 23.6622 0.106572 0.905104 -0.829186
18.0342 11.3714 24.704 1.2383 0.489472 2.25289
15.6403 12.9669 25.6659 -1.74625 1.68497 0.42354
16.0373 12.4667 22.7004 1.69863 0.322105 2.0053
18.3266 14.0025 25.8509 -0.945493 -0.0644903 0.912728
18.7237 13.5023 22.8854 -0.125559 -0.924618 0.0863602
20.4062 12.095 26.451 2.05944 -1.57989 -1.83677
20.8032 11.5948 23.4856 0.251735 1.27216 0.753521
23.1752 12.3184 25.2326 0.703629 -0.0444305 1.70354
25.9442 12.5418 24.0142 -0.0160017 -0.368018 -0.781993
28.7132 12.7651 22.7957 -2.52716 0.60032 0.630559
12.5388 16.8672 24.0001 -1.46976 -0.588185 0.793392
16.3297 15.0978 23.8472 -0.754525 -0.658067 0.200261
17.2221 16.8074 26.1887 -0.481776 0.48159 0.869838
15.2252 17.9027 24.1851 1.32588 1.94837 -0.513658
14.5357 15.7719 26.0037 -0.418024 -2.37224 0.947629
19.0161 16.1333 24.0322 0.899454 0.487868 -1.01996
21.7851 16.3567 22.8138 -0.541979 0.441814 -2.0697
21.0956 14.2259 24.6324 0.868596 0.489289 0.808577
20.1676 16.2686 26.674 0.806656 -0.276554 0.261526
25.7057 16.7153 24.2371 -0.225499 1.44093 0.955139
23.8647 14.4492 23.414 -1.15416 -0.102029 0.489549
22.9366 16.4919 25.4556 0.801411 -1.21696 0.256593
25.0162 14.5845 26.0557 0.580207 -1.59844 0.427407
27.7852 14.8078 24.8373 -0.170806 -1.26718 -2.26224
28.392 17.7508 24.4221 0.206674 0.538711 -0.190283
11.4343 19.6722 24.338 -0.470959 -2.37199 -0.911959
12.3267 21.3818 26.6795 1.84382 -0.0468789 0.0637145
13.4312 18.5769 26.3416 0.4216 1.14605 -3.24993
16.8071 21.7432 24.708 -1.48576 -0.682415 -2.23837
17.9116 18.9383 24.3701 0.206655 0.753838 -1.16689
14.1207 20.7077 24.523 0.0601105 -1.83867 -0.647389
16.1176 19.6124 26.5266 -0.764847 0.368055 -0.00903437
21.5465 20.5302 23.0368 1.05417 1.05565 0.250413
18.601 21.0691 22.5515 0.74151 -0.0155724 0.508601
19.7526 21.2044 25.1932 2.42831 -1.1223 -0.638341
20.8571 18.3994 24.8554 -1.21151 -0.599697 -1.32654
22.6981 20.6655 25.6785 -0.0299429 -0.487732 0.380191
24.2329 21.5658 23.2218 -2.239 -0.361283 -0.471895
23.6261 18.6228 23.6369 -0.182104 0.244746 1.53273
25.3845 21.701 25.8635 -0.270533 -0.411503 -0.0964566
24.7776 18.758 26.2787 -1.21083 -0.240151 2.00534
26.3125 19.6583 23.8219 0.648646 -0.464113 1.62441
28.9989 20.6938 24.0069 -0.732531 2.30184 -0.695674
27.464 19.7935 26.4637 -0.375271 0.280438 -0.689994
12.6479 25.5582 23.5076 1.07584 1.46818 0.939916
12.9335 24.3248 26.2643 -0.544721 2.52455 0.589391
12.0411 22.6152 23.9228 -1.67966 0.364236 0.507813
17.0995 24.3743 25.8548 0.0301249 -0.810088 1.32032
14.7275 23.6507 24.1078 -1.02605 -0.0202891 1.29762
16.8139 25.6076 23.0982 -0.321046 -1.21487 0.765378
15.0199 26.2818 25.2546 2.71444 -0.916093 1.30731
20.9798 25.6571 22.6887 0.361973 0.0133196 -0.45869
21.839 23.1613 24.1836 -1.90195 0.393325 -0.34517
18.8934 23.7002 23.6983 1.66047 -0.683831 -0.0638079
22.1314 25.7923 25.3305 0.589804 -0.894579 0.902491
19.1858 26.3312 24.8452 0.964158 0.974451 -0.220632
20.045 23.8354 26.3401 -0.457402 0.170565 -0.161811
23.6662 26.6926 22.8737 0.173328 0.898891 1.19317
24.5253 24.1968 24.3686 -0.610505 1.47806 -0.670309
26.9193 22.6013 23.4068 0.810128 1.52131 -0.19941
29.6057 23.6369 23.5918 0.398724 0.972492 0.0482832
28.0708 22.7366 26.0485 -0.469603 -2.45923 -2.65494
27.2117 25.2324 24.5536 0.448406 0.280056 -0.920723
17.1063 28.2387 24.245 -0.684052 0.440912 1.59659
21.2722 28.2881 23.8356 0.37864 0.580203 1.47401
21.5646 30.9192 24.9824 -0.833472 -0.262573 0.740565
22.4238 28.4234 26.4773 -0.462403 -2.60156 1.14536
19.1927 30.1956 23.2354 -2.49754 1.29722 0.500379
19.4783 28.9623 25.992 -0.369842 0.519455 0.271956
26.3526 27.7282 23.0587 1.20896 -1.02446 -0.88182
23.9586 29.3237 24.0206 -0.520808 1.70485 -0.189239
24.8177 26.8279 25.5155 0.329663 0.824888 0.542671
17.6372 11.8716 27.6695 0.707833 1.97868 -1.94856
16.5327 14.6766 28.0073 0.127517 -2.71199 1.22879
15.4282 17.4816 28.3452 0.945795 -0.884809 -1.06342
21.3192 16.4038 29.3158 2.45883 1.67805 1.1457
19.4782 14.1377 28.4926 -3.26521 -1.10703 0.296009
22.2472 14.3611 27.2742 1.24955 -0.693201 -0.27423
18.3737 16.9427 28.8305 0.869257 1.22401 1.20564
24.0882 16.6272 28.0973 1.64283 1.6802 -1.74407
26.8572 16.8505 26.8789 -0.576133 0.574924 1.88355
15.0131 22.4174 26.8645 -0.87576 -0.21455 1.72057
17.9586 21.8785 27.3497 1.11957 -0.138586 -0.138262
14.3236 20.2865 28.6831 0.889818 0.130564 -0.184008
17.2691 19.7476 29.1683 -0.465259 -1.07345 -0.182605
20.9041 21.3396 27.835 0.733866 0.693192 1.04874
22.0086 18.5346 27.4971 0.0851778 1.72282 1.94477
19.0631 19.0735 27.0119 0.739485 2.06566 -0.647754
22.0557 21.4748 30.4767 1.68845 -0.944768 0.621807
19.1101 22.0137 29.9915 -0.991387 -0.665968 -0.412568
20.2147 19.2088 29.6536 -0.976628 -1.15851 -0.879602
23.8496 20.8007 28.3203 0.603995 2.37329 -3.03246
25.0012 20.936 30.962 -2.84782 0.664028 -1.81226
26.536 21.8363 28.5053 -0.535033 -0.82419 -0.637706
25.9292 18.8933 28.9204 -0.95364 0.955787 1.61133
23.1602 18.6699 30.1389 -0.707085 -0.24702 1.4042
13.2191 23.0915 29.0209 -1.0738 0.273827 -0.6
15.3055 25.0484 28.0113 1.50035 2.05883 1.09361
16.1646 22.5526 29.5062 -2.32332 -2.13408 1.13759
20.3374 26.4665 27.487 0.373369 0.0535359 -0.0199455
21.1965 23.9707 28.9819 -0.643705 -2.09928 -1.71764
18.251 24.5095 28.4966 -1.34325 1.0289 -1.29658
22.9905 23.2965 26.8254 -1.59988 0.936159 1.3284
23.2829 25.9276 27.9722 -0.198444 -0.522849 1.08028
24.142 23.4318 29.4671 -0.0668735 -0.899595 1.34656
25.6769 24.3321 27.0104 0.8311 1.92568 0.494877
17.3919 27.0053 27.0017 0.621835 0.835724 -0.690241
ITEM: TIMESTEP
1000
ITEM: NUMBER OF ATOMS
309
ITEM: BOX BOUNDS ss ss ss
1.0160502967174979e+01 3.0663652547695747e+01
1.0364195084195487e+01 3.0313754909169464e+01
1.0524835295942170e+01 3.0280313644759495e+01
ITEM: ATOMS x y z vx vy vz
23.0966 14.2298 14.2638 1.52835 0.556315 -0.610619
17.8306 17.6713 14.3406 0.44061 -0.656459 0.466792
17.4343 15.1117 13.2621 1.16526 -1.48998 -0.000587844
16.8341 17.2819 11.8009 2.07766 -0.0957731 1.82651
15.1841 16.6853 13.9629 1.53668 -0.195767 2.25718
20.2734 14.6223 13.5331 -0.635555 2.94975 -1.13497
19.5233 17.0845 12.132 1.15835 1.35864 0.0914931
22.4314 16.4453 12.4772 -0.245235 0.208007 0.298968
24.9911 15.8578 13.0791 -1.74359 -0.524329 1.18477
24.406 18.3185 11.6846 -0.905452 1.36317 0.876153
27.0411 17.7919 12.4845 -4.07388 1.55837 3.09047
17.0187 19.8957 12.7172 0.903428 0.425331 2.5918
16.1819 19.7537 10.569 1.79628 0.250977 4.50461
14.2199 19.114 12.6389 -2.15157 -0.21736 2.15274
15.1924 21.7594 12.134 0.00522886 -1.63319 0.336127
17.9852 22.086 11.0226 2.37175 2.00458 1.38126
19.7778 19.5133 13.3482 -0.866868 0.272183 2.58899
18.7252 22.1153 13.5086 1.27175 0.275811 0.475057
21.678 21.8764 13.9286 1.13401 -0.715706 3.25256
19.0708 19.2793 10.6596 2.12773 -0.484189 1.14264
21.6494 18.803 11.4222 0.165597 0.501238 0.515441
20.5343 21.5577 11.5499 -0.2428 0.287137 0.916837
25.5828 18.3693 14.3434 -1.28535 1.15212 1.49093
22.9264 19.1921 13.7411 -0.253185 1.66892 2.47863
26.0472 20.7305 12.5995 -0.512538 2.99702 1.34258
23.5 21.1021 11.959 -0.430571 -1.55373 1.5688
14.2314 23.822 14.0409 -0.387375 1.36532 -2.81549
16.8167 23.841 12.6747 0.608619 2.19992 1.14843
21.389 26.2243 12.3499 0.680686 -4.17821 0.645552
19.4654 24.2336 12.0689 0.130313 -0.124202 0.26368
22.3191 23.7201 12.1851 -0.34702 -1.54336 -0.790639
18.9653 26.5403 13.642 -1.08516 -0.624252 0.179287
24.215 25.7147 13.0553 0.376365 0.272524 -0.0133846
25.1473 23.2334 12.8625 -1.42104 -1.74449 0.449626
22.9995 28.3151 13.3758 -2.40281 -3.20385 1.69783
16.8853 11.9926 16.815 0.563567 2.67738 0.730883
14.7583 13.4134 17.7583 -0.108567 -0.226005 0.08994
15.9429 14.2152 15.1712 -1.4043 1.36059 -1.24139
19.3682 12.8809 17.0505 0.342082 0.754242 0.499523
19.2925 10.4586 16.0626 0.223098 3.46913 2.66553
18.2507 12.9398 14.4291 -1.78988 0.264964 -0.079702
21.3198 12.4528 15.0306 0.227894 2.70967 1.91336
21.6124 11.1691 17.5444 -0.794192 2.16193 1.65826
23.4085 12.8424 16.7055 1.15473 0.149571 1.41991
14.1374 18.225 17.5872 1.34271 -1.05888 -0.342512
11.6166 17.3832 17.3552 1.3076 0.570972 0.440653
13.1315 18.2881 15.1628 -1.28452 0.680386 -1.40617
13.6595 15.7162 16.4222 3.13863 -0.746256 1.45128
17.2469 14.3452 17.9054 0.796044 1.85237 0.560693
16.3348 16.6118 16.4055 1.20728 -0.502719 3.37955
20.0054 15.6154 18.254 1.2249 1.38548 0.0674066
19.07 17.8642 16.8518 -1.23161 1.06943 3.10133
21.9207 17.4423 17.3918 -0.465526 1.4036 1.92968
18.6112 15.2414 15.8688 0.924483 0.870277 0.117007
21.3351 14.7863 16.2502 0.259634 -0.580207 3.47766
20.6311 16.9316 14.6239 0.816597 1.08397 2.01916
25.7356 17.1762 16.699 -1.01576 -0.0625751 -1.13375
23.4687 16.6474 15.041 -0.18391 2.2522 1.72143
23.8967 15.2925 17.6164 -0.799381 2.74048 2.22013
25.5214 14.4416 15.7111 0.522812 -1.10498 -1.49521
27.5836 16.328 14.8368 -2.67624 -1.49224 2.21035
27.5651 15.3126 17.359 0.307542 -0.932314 1.44862
28.3002 17.995 16.9093 -0.393001 1.73549 1.37415
12.0988 19.9836 17.0979 0.623185 1.49279 -1.12254
13.7711 21.0837 14.2794 -1.57588 -0.990455 2.29473
18.262 20.2365 15.6224 1.90975 -0.5236 1.20054
16.8188 19.1853 17.7854 1.60419 1.82524 2.50592
17.2628 22.2559 17.4381 -0.882902 -2.07968 4.12545
15.5565 19.3955 15.205 2.06598 -0.366882 0.169043
16.279 22.0289 14.5794 0.446802 -0.51024 -0.102741
14.56 21.3315 16.8614 1.95464 -1.53108 -0.668716
19.4984 20.3514 18.0689 -1.48199 3.29128 -2.01792
22.0458 19.8803 18.4857 0.299594 0.950042 0.529842
20.9369 19.7191 15.8395 0.39039 1.18215 3.38623
19.8601 22.2663 16.2219 2.70276 -0.809646 1.5632
23.8017 19.0439 16.4425 -2.51306 -1.41064 3.43559
22.9131 21.6697 16.8138 -3.19907 -2.0036 2.50417
26.4408 19.9864 16.5023 -1.80753 1.91353 0.372639
24.6765 21.0285 14.5706 -0.666919 -0.112425 -1.12345
28.9061 21.0184 16.7698 1.27851 -0.877953 -1.311
28.0994 19.5531 14.6566 -0.397424 1.21615 1.14594
27.2207 22.2346 14.7843 -1.33579 -0.838715 -0.873576
12.8363 25.6789 16.2404 3.18917 -1.41711 -1.35548
12.797 23.2232 16.4212 3.33401 -1.40707 0.66689
16.9608 26.12 17.5577 1.4351 -0.481119 1.24193
15.2661 24.1525 16.7451 -0.601368 -0.987016 2.82545
17.6116 24.4395 15.1031 1.31975 -1.33536 3.78231
15.6803 26.2924 15.0916 -2.0667 -0.90797 0.365994
21.7757 24.2589 16.955 -2.49344 -0.710122 2.87468
18.9285 24.1686 17.968 0.0167398 0.143682 3.97966
19.7529 26.4091 16.1906 0.0663031 -1.06117 1.28966
20.6914 24.5337 14.3825 -0.139954 1.54821 -0.28026
24.2596 25.2004 17.1832 0.128066 0.379481 -0.238506
23.3639 24.0557 14.7783 -0.180622 -0.506342 0.061191
25.5996 22.8617 16.7681 -3.76125 -3.13285 1.22748
26.1197 24.9499 14.8993 0.985806 -1.78877 0.276587
28.1583 23.6401 16.9496 -0.005941 -1.48089 -1.34448
12.6766 27.6822 18.3139 3.86074 -4.51306 0.673717
17.7647 28.1447 15.6981 0.908644 1.04855 -0.396864
15.1504 27.9959 16.9259 0.393521 0.154875 -0.470115
22.3515 26.6164 14.9988 -0.508934 -1.21979 1.03955
22.1569 26.8575 17.8356 -0.289449 -3.65864 -2.34222
20.5292 28.5807 14.5401 -0.512759 -0.793695 1.69636
20.2346 28.8018 17.0934 0.377943 0.33745 1.13466
24.9577 27.2399 15.504 -1.77894 -1.43612 1.87561
22.9599 29.0833 16.3125 -1.91994 -0.115045 2.74094
24.553 28.105 18.2359 -0.894289 -1.78712 0.911219
26.9389 26.1849 17.1892 1.49465 0.197886 0.233993
16.6717 12.1322 19.3423 0.723587 -0.560514 -0.582926
14.2398 13.8074 20.8577 3.17228 -1.96855 0.491071
19.2402 13.2292 19.8779 1.84722 -0.928025 -1.55506
21.7881 13.4884 18.7558 -1.66998 1.00737 -1.00604
21.5772 13.772 21.5735 0.971212 2.77994 0.0950428
19.1314 10.79 18.7329 0.680659 2.55976 3.13595
18.5637 11.3355 21.463 -0.77677 -0.921211 3.46528
21.1674 11.2176 20.3335 -0.210266 1.02763 -0.630316
24.2324 14.2518 20.6125 0.0983059 0.0995749 2.11109
23.6998 11.8326 19.5347 -1.27637 1.41125 -1.21861
26.0662 12.5898 20.9765 -3.69364 2.49151 -2.23191
23.4644 12.2686 22.419 -1.23525 2.11938 0.379472
25.875 13.608 18.5801 -1.07397 0.372443 0.719577
28.0199 14.2933 20.0873 -0.434765 -1.59345 0.737128
12.7456 17.3633 19.9607 1.87612 1.21755 -0.535095
10.4769 16.3953 19.6041 4.14092 2.87853 -0.709304
12.7857 14.7358 18.9477 0.280231 -0.089731 -0.431211
12.3718 15.485 21.7059 1.16784 0.987647 0.479016
11.0883 18.0859 22.1606 0.429678 0.27738 -1.58731
17.7278 16.773 19.1551 2.67658 5.97939 -1.12396
17.2815 17.2842 21.7441 2.77036 2.08288 1.19771
15.1194 15.9106 19.0051 -0.332947 1.20741 1.32368
14.766 16.3317 21.7917 2.74574 0.20779 -0.720573
16.7236 14.2651 20.8341 0.360879 1.48361 -0.0892906
20.2434 18.0594 19.4366 -0.402455 -0.373821 -0.734938
19.6627 18.3987 21.9991 1.65305 0.32792 0.260514
19.3236 15.7019 21.1807 1.93013 3.15057 -1.34053
22.1357 16.1624 19.8766 -2.57821 3.88552 2.07078
24.2875 16.9608 21.5341 -0.471434 3.32896 0.532037
24.1075 18.0382 18.9523 -2.38015 1.46824 1.12921
26.5305 15.0926 22.3066 -0.826703 -0.0683702 -1.81106
26.172 15.9656 19.6488 -2.33656 2.65605 -0.11709
27.117 17.6399 21.7463 0.0227197 -1.28539 -0.466012
29.2523 16.1103 21.9326 -0.396367 3.35059 -0.00217103
28.7404 16.9054 19.5995 -0.225628 0.758239 -1.40418
13.3698 20.2472 19.5723 1.01706 1.00891 0.934266
13.5215 18.9521 22.0269 -1.53561 -0.105461 0.761871
13.6841 21.9156 21.8315 3.4346 -1.72182 -1.45376
10.6948 19.3226 19.2934 1.5449 1.85374 -0.997221
11.406 21.8866 18.8285 -1.30063 0.312838 0.71197
11.2615 20.6139 21.4843 -0.528408 0.0886786 -0.764212
18.0605 19.4088 20.0142 -4.17134 3.30997 1.55196
15.5563 18.432 20.0013 2.45028 0.90948 -1.52559
16.0172 21.3093 19.7044 3.24555 -0.169824 0.33772
16.3215 20.004 22.2831 3.24071 -1.44008 -2.72843
20.3709 20.3617 20.5203 -1.67279 -1.82559 -0.910648
22.2675 18.6536 20.8919 -0.0515518 -0.767023 1.12385
18.5644 22.0406 19.9634 0.0637745 -0.901525 -0.220739
22.7387 21.3541 20.6085 -0.798714 1.15845 -0.0970685
25.2131 22.3637 20.7477 -2.11932 1.2605 0.951328
24.5184 20.7035 18.5887 -1.40996 -0.375548 1.34349
24.8619 19.5023 21.0639 -3.23789 2.01213 -0.74719
27.2265 21.6922 18.7899 -0.161942 -0.0523321 3.16327
27.5651 20.5775 21.293 -0.459227 0.574592 0.351865
27.0901 18.9082 18.9219 -2.56268 0.891641 -0.465182
30.0834 21.4346 21.7416 -1.23419 -1.18211 -0.997217
29.4792 18.7525 21.8632 0.450509 -0.96867 -0.560681
29.4629 20.0778 19.3772 -1.22609 -1.96863 -0.625815
13.8347 23.1285 19.1731 1.49923 -0.955075 -0.328199
11.8055 24.6547 18.6641 1.19245 -3.75886 -2.14461
12.14 23.8669 21.1368 1.8247 -1.71333 0.0181786
16.5107 23.8526 19.4243 4.35813 0.783383 3.31177
16.3839 22.6824 22.1045 2.8325 0.510994 -2.10153
14.4995 25.8625 18.6551 1.11259 -2.69423 -1.68504
14.8256 24.7145 21.3108 -1.78167 0.504239 -1.1242
20.5244 22.7056 21.4453 1.75122 -1.11299 1.78771
20.878 22.2367 18.7693 -0.0141365 -0.296651 2.19035
21.1563 24.7923 19.6034 -2.27904 -2.4864 -0.587121
18.764 24.6066 20.8492 -1.61589 -3.76436 -1.60938
23.0461 23.7257 21.6519 -3.46812 -4.75043 -2.31375
23.3323 23.2795 18.9364 -2.31987 -2.57154 2.33989
25.767 24.8353 21.7974 1.11752 -0.265733 0.046718
26.1973 24.2719 19.2466 0.508215 -3.62639 -0.370967
24.0181 26.0119 19.8773 -1.97251 -1.0047 1.93766
28.1991 23.3785 20.9562 -1.91326 1.32035 -0.0140112
30.5811 24.3263 21.0498 -4.96014 -1.31862 0.865378
28.4634 25.9098 21.9692 -1.94495 -0.22417 -1.60067
28.7654 25.3251 19.2533 -0.694619 -0.986579 -0.906209
29.7549 22.5557 18.8115 -3.31616 -0.210556 -1.34805
12.8888 26.4349 21.0044 1.59348 -1.27422 2.0962
16.5869 26.6111 20.4204 2.21758 1.17974 0.985971
17.0242 29.0097 21.3457 2.31642 0.304017 1.11692
14.7201 28.4528 19.7972 1.13609 -1.92767 0.0893538
17.0871 28.7439 18.4721 1.02594 -0.495896 1.1465
15.0308 27.344 22.5637 0.150569 -0.463518 1.95294
21.5603 27.4535 20.9074 1.24706 -0.75292 -0.921987
19.0696 27.2342 22.0345 0.413911 -1.19527 -0.393011
19.1817 27.0904 18.959 0.598292 -3.42864 0.0167946
21.9851 29.8612 21.9129 1.16539 -0.329527 1.22211
22.2483 29.3693 19.2426 -0.0921971 0.149387 -1.30043
19.6101 29.2684 20.4441 -3.46746 -1.24253 -2.70334
26.7519 26.7581 19.9619 -4.40704 0.885994 -0.80627
24.0749 28.5364 20.9579 0.536355 0.446044 2.30654
13.9162 14.4249 23.7513 -0.331743 1.89693 1.4276
18.1112 11.5948 24.2947 0.541731 1.81493 -3.75279
15.8079 13.2185 25.4246 -0.274918 -1.10118 -2.01326
16.2189 12.6731 22.8217 2.44651 -2.85866 -0.281209
18.5298 14.089 25.4574 -0.0767103 0.278584 1.62931
18.7789 13.5097 22.7848 0.114463 1.76988 -0.900291
20.7181 12.4793 26.1067 1.52921 1.23417 -0.359136
20.7492 11.9413 23.5275 1.02491 0.745915 -1.69704
23.045 12.9024 24.9322 -1.09911 0.789681 0.776308
25.4717 13.0497 23.9839 -2.37064 -0.67281 -0.493614
28.3069 13.5055 22.8318 -3.90112 3.92588 -2.37772
12.8476 17.0405 23.963 0.443477 0.751958 0.0835568
16.6664 15.1769 23.7915 1.33556 1.1362 1.42209
17.5287 16.8546 25.9489 0.453382 -0.076889 0.0603678
15.4043 18.0507 24.1822 3.22177 1.20677 -2.74044
14.7751 15.915 25.7507 -0.0419646 1.53568 2.0206
19.1624 16.3617 23.6852 -2.39793 3.68795 -0.822591
21.7643 16.6994 22.5774 -3.13037 3.05962 -1.34143
21.0923 14.5256 24.4444 -1.84868 0.157696 0.171097
19.9902 16.451 26.3447 0.0465452 -1.04315 -3.25492
25.5097 17.0604 24.0166 0.264989 0.0102802 0.0514799
23.826 14.8576 23.2526 -0.687394 -1.07896 0.0344317
22.7663 16.514 25.3738 -0.531336 0.314856 -2.66763
25.0482 14.8691 25.6348 -1.43652 3.00827 -0.801815
27.4771 15.1675 24.9331 -1.8294 -0.478592 0.0671698
28.1303 17.7016 24.3069 -1.56536 2.02428 0.359021
11.797 19.829 24.0962 0.536448 -0.769142 1.59841
12.6065 21.0846 26.2533 -1.04479 1.27673 -4.05267
13.5447 18.5539 26.104 0.542774 -1.41034 -1.16715
17.0465 21.5695 24.4366 3.98626 -3.44063 0.924812
18.2256 18.9746 24.2087 -0.401416 1.76414 -3.73758
14.4568 20.5345 24.3654 2.83779 2.07387 1.07383
16.2736 19.706 26.1773 -1.14385 0.266331 -1.07981
21.3776 20.4241 22.7555 -3.45794 -0.267982 -0.775664
18.7866 20.9087 22.325 0.957485 -0.787508 -0.680079
19.8893 21.0489 24.9716 2.30924 0.197577 -4.02578
20.7422 18.3843 24.3853 -0.720819 1.65918 -4.16178
22.4393 20.742 25.1792 -0.797079 -0.145298 -2.39283
23.8651 21.5068 23.0222 -1.9266 0.609272 -0.75019
23.4108 18.7626 23.3733 -1.5922 0.970421 -2.00788
25.183 21.5964 25.6115 -0.149117 -0.241513 1.09957
24.4634 18.9016 26.0129 1.02793 -1.03658 -1.50456
26.1845 19.687 23.8216 -1.66188 -0.266559 -1.34678
28.698 20.7592 23.8021 -1.31046 -1.25371 2.3878
27.2382 19.845 26.2823 1.2811 -1.02338 -2.4288
13.1027 25.1631 23.4066 -0.556795 0.150738 1.71663
13.1471 23.9286 26.1663 2.03513 -0.972093 -2.0006
12.1131 22.5542 24.0394 2.02433 -0.559571 -1.40951
17.0685 24.1689 25.5713 -0.538739 0.214627 -0.212839
14.8769 23.431 24.1769 1.76245 -2.70573 -2.01171
16.7583 25.3578 23.1723 2.66066 -2.2594 -0.623107
14.9709 26.0739 25.1629 -2.24994 0.106227 -0.162604
20.8853 25.2158 22.5531 1.3752 -1.57869 -1.68017
21.5439 22.8887 23.9178 0.227278 -1.32159 -3.16077
19.0071 23.4706 23.4713 0.803104 -4.46313 -2.41504
22.0313 25.4911 24.9716 -0.599485 1.27708 -0.502217
19.2577 26.0874 24.7681 0.879537 0.00378414 -2.63829
19.7607 23.8842 26.3218 -1.67244 -1.20421 -3.30327
23.3932 26.508 22.864 2.54888 -0.0624343 -1.29836
24.5224 24.2226 24.33 -2.87346 -0.832716 -1.61112
26.7781 22.5009 23.0121 -0.582192 0.831622 -0.908173
29.2586 23.5154 23.5554 -4.2062 -2.54064 0.0666904
27.8424 22.5552 25.7866 1.93555 -0.66466 -0.114512
27.249 24.9827 24.134 -0.403027 -0.359597 3.19719
17.3329 27.9885 24.0327 0.123587 -1.75706 -0.844388
21.2192 27.9371 23.7859 -2.24659 0.527967 -0.183854
21.8436 30.1331 24.7903 -0.415304 -5.68138 -2.0665
22.2058 27.847 26.2548 -0.8101 -3.00606 1.36568
19.3837 29.7197 23.17 0.620714 -3.72883 -1.44676
19.3256 28.5939 25.7172 -2.52969 -2.59113 -0.109785
26.0804 27.1356 22.8546 0.0634029 0.544339 2.84599
24.1303 28.9031 23.8778 2.35311 -1.00071 -2.3233