ITEM: TIMESTEP
0
ITEM: NUMBER OF ATOMS
309
ITEM: BOX BOUNDS ss ss ss
1.1299488889480344e+01 2.9490511110519623e+01
9.7465108954876545e+00 3.1043489104512336e+01
9.5989880909128971e+00 3.1191011909087088e+01
ITEM: ATOMS x y z vx vy vz
14.3138 18.2578 13.3459 -0.0584487 -1.12458 -0.913577
17.0408 14.0819 13.436 -1.00898 0.15581 1.12667
16.5866 16.743 12.4328 0.0680439 -1.64172 -0.778091
18.8595 15.2282 11.5196 1.54389 -1.49012 0.749721
18.4053 17.8893 10.5163 -1.46396 0.0810548 -3.37926
21.0616 14.7185 13.3043 -1.13408 -0.461981 0.16729
20.6073 17.3796 12.3011 -0.258568 -0.575592 2.50921
22.8802 15.8648 11.3879 0.723326 2.23816 -0.724154
24.628 18.0163 12.1694 -0.942133 0.732555 -1.46099
20.6781 16.3745 9.60307 3.07488 -0.544481 0.186929
25.0823 15.3552 13.1726 -0.790312 -0.511165 0.112712
11.5867 22.4337 13.2558 -0.840782 -1.16803 -1.26145
13.8595 20.9189 12.3426 0.546334 0.368807 0.117796
18.3345 18.8944 13.2142 -0.512056 0.643258 0.814216
16.1324 19.4041 11.4294 1.2906 -0.893988 -0.889488
17.8803 21.5555 12.2109 -0.435922 1.8386 -0.165539
20.1531 20.0407 11.2977 1.33469 0.208616 1.71251
22.3552 19.5311 13.0825 1.10517 0.507988 -1.16154
24.103 21.6825 13.864 0.0627575 1.82702 2.00394
21.901 22.1922 12.0792 0.201979 0.657094 -1.01386
22.426 18.5259 10.3846 0.450149 1.08569 0.0868178
24.1738 20.6774 11.166 -0.441337 -2.35733 -2.58246
26.3759 20.1677 12.9508 -0.752297 -0.150257 0.769865
28.1238 22.3191 13.7323 -0.152699 -1.27681 1.34661
15.6074 23.0703 13.1241 -2.55403 0.687728 0.716653
17.3552 25.2217 13.9056 0.0893938 0.296762 -1.62168
19.6281 23.707 12.9924 -0.248885 -0.477674 0.311911
21.376 25.8584 13.7739 -1.61529 0.18924 -1.00554
23.6488 24.3436 12.8607 -0.413501 -2.22208 -0.888647
25.3967 26.495 13.6422 -0.490658 0.762701 -1.45584
25.9217 22.8288 11.9475 -0.528649 -0.725518 -0.523751
27.6695 24.9802 12.729 -0.394357 -2.49722 1.27644
13.4036 11.7893 17.269 1.00664 -0.0959915 0.523929
15.1514 13.9407 18.0505 0.861861 -0.67583 0.890624
15.2222 12.9356 15.3525 0.200758 1.33085 0.278532
17.4243 12.4259 17.1373 0.00594943 0.376492 0.980922
19.2429 13.5722 15.2208 0.236249 -0.0998239 0.650219
21.445 13.0625 17.0056 -1.25022 0.418075 0.286206
25.4657 13.6992 16.8739 1.66504 -0.622235 -0.168787
12.4243 18.1166 17.9604 -2.06214 -0.247778 -2.16896
12.9494 14.4504 16.2657 -1.25812 0.631617 0.28899
14.6972 16.6018 17.0472 -1.24982 -0.525138 -1.42295
12.4951 17.1115 15.2624 0.893491 0.216947 0.766631
14.768 15.5967 14.3492 -0.868606 -2.03419 -0.516831
19.1721 14.5773 17.9188 -0.508951 -1.19079 -0.248635
16.9701 15.087 16.134 -1.02005 0.0397391 0.791552
18.7179 17.2384 16.9155 1.74962 -0.437438 -0.527231
16.5158 17.7481 15.1307 0.99855 1.09262 -0.3029
18.7887 16.2333 14.2175 -0.280761 -1.07476 0.654384
23.1929 15.214 17.7871 -0.216596 0.26435 1.48167
20.9908 15.7236 16.0023 0.972796 -0.0732921 0.0200714
22.7386 17.8751 16.7838 0.236178 1.29868 0.588561
23.2636 14.2089 15.0891 -0.286765 -0.355371 -0.15815
22.8094 16.87 14.0858 -0.435429 -0.0673084 2.77567
27.2136 15.8506 17.6554 2.40777 -1.08481 -0.688173
29.4864 14.3358 16.7422 1.05074 1.63466 -2.01034
25.0115 16.3603 15.8706 0.608714 -0.8355 0.86466
27.2844 14.8455 14.9574 0.621564 0.286718 -1.46505
29.0322 16.9969 15.7389 -0.36037 -0.62417 -1.54737
26.8301 17.5066 13.9541 -1.03644 -0.249229 0.73896
11.9701 20.7777 16.9571 0.0443922 -0.325976 -0.635281
14.243 19.2629 16.0439 3.55252 -0.610499 0.274086
12.0409 19.7726 14.2591 -0.0237151 0.878069 1.23365
13.7888 21.924 15.0406 -0.00535072 -0.192213 1.96581
16.4451 18.7532 17.8287 0.544343 0.236105 1.65257
15.9908 21.4143 16.8254 0.360162 0.786418 0.338073
18.2637 19.8995 15.9122 0.043811 -0.69793 1.27585
20.0116 22.051 16.6937 0.715221 0.764106 1.08062
16.0616 20.4092 14.1274 0.594011 0.743949 -1.67434
20.0823 21.0459 13.9957 -0.776812 0.518932 -0.0279233
20.4658 19.3899 17.697 0.189864 -1.28508 0.637286
24.4865 20.0265 17.5653 1.233 0.58012 1.17858
20.5366 18.3848 14.999 -0.360256 -0.27099 0.123399
22.2844 20.5362 15.7805 1.06108 0.466855 0.81669
24.5573 19.0214 14.8673 -0.367799 2.13253 0.0362544
26.7593 18.5117 16.6521 -1.61079 0.974748 1.34731
28.5072 20.6632 17.4336 -0.595185 1.48608 -0.596698
26.3051 21.1728 15.6488 -0.163007 -0.843234 0.127149
28.578 19.658 14.7356 -0.345532 -1.48296 0.290984
13.718 22.9291 17.7386 -0.364976 -1.01288 0.730476
11.5159 23.4388 15.9538 -0.0615626 -1.58622 -0.354326
13.2638 25.5902 16.7353 1.51728 2.24228 0.584122
15.5366 24.0754 15.8221 0.832564 0.583383 0.858885
13.3345 24.5851 14.0373 1.74178 -0.865597 0.634515
15.0824 26.7365 14.8188 -2.87371 0.755456 -1.69976
17.7387 23.5658 17.6069 1.49711 1.04318 0.381051
17.2845 26.2269 16.6036 -1.18203 -0.0479209 0.606292
17.8095 22.5606 14.9089 -0.955914 -1.21979 1.51741
19.5573 24.7121 15.6904 -0.585372 1.62821 -0.728717
21.7594 24.2024 17.4752 1.11009 -0.0673943 -0.0809264
24.0323 22.6876 16.562 -0.120376 2.36458 0.160147
21.8302 23.1973 14.7772 1.32282 2.08744 -0.489999
23.578 25.3487 15.5587 -0.06207 -1.61204 -0.272906
25.7801 24.8391 17.3435 -1.09373 -1.21421 1.08721
28.053 23.3243 16.4303 -1.05368 -0.814242 1.46871
25.8509 23.8339 14.6455 0.776613 -0.181955 0.355295
27.5988 25.9854 15.427 0.782749 -1.1629 0.417297
15.0116 27.7417 17.5168 -0.121628 -0.936836 -2.0207
19.0323 28.3783 17.3851 -2.1352 1.48258 -0.193278
16.8302 28.888 15.6003 1.09516 -0.35873 0.802821
18.5781 31.0394 16.3818 0.649643 2.08379 -1.78328
19.1031 27.3732 14.6871 -1.06597 0.437192 -0.534967
20.7802 30.5297 18.1666 0.838606 -0.12328 0.282471
21.3052 26.8635 16.4719 -0.80855 -0.390502 -0.58313
23.053 29.0149 17.2534 -1.50475 -1.28839 0.273258
20.851 29.5246 15.4686 0.548854 -1.03657 1.18821
23.1238 28.0098 14.5554 1.20863 2.51806 -0.588633
27.528 26.9905 18.125 0.504408 -0.67159 0.864164
25.3259 27.5002 16.3402 2.21266 -1.21327 2.33672
13.3328 12.7944 19.967 -1.57196 0.257327 -1.48945
15.6057 11.2796 19.0538 -0.773398 2.28498 -0.82709
15.5349 12.2847 21.7518 -0.000567389 2.73073 -0.620292
17.3535 13.431 19.8353 -0.437347 0.254529 -0.783144
19.6264 11.9162 18.9221 0.675955 -0.55965 0.741358
17.8077 10.7699 20.8386 0.0607163 0.769829 -1.16455
19.5556 12.9214 21.6201 0.929764 1.58176 0.111301
23.6471 12.5529 18.7904 0.637633 -0.146687 0.747384
21.8285 11.4066 20.7069 0.0141972 0.947169 -1.02448
23.5763 13.558 21.4884 -1.8616 1.69732 0.292969
24.0305 10.8969 22.4917 -0.540778 -2.35688 -1.12426
27.6678 13.1895 18.6587 -0.358599 0.543004 0.170156
25.8492 12.0432 20.5752 1.13414 0.43462 0.633036
12.8786 15.4555 18.9637 -0.0815467 0.641944 -0.0390075
14.6264 17.6069 19.7452 -1.47825 -0.32688 0.329961
12.8078 16.4606 21.6617 0.2773 0.0540346 -0.25282
15.0807 14.9458 20.7485 1.08061 0.825622 -0.571603
16.8993 16.0921 18.832 -0.0673391 -0.462982 0.300282
18.6471 18.2436 19.6135 2.05485 -0.304869 0.386632
16.8285 17.0973 21.53 -2.24944 0.862305 0.356734
19.1014 15.5825 20.6168 0.146704 0.486381 -0.226479
17.2827 14.4362 22.5333 0.0054506 0.868261 0.515179
20.92 16.7288 18.7003 -2.86975 -1.79141 -0.468019
24.9407 17.3654 18.5686 1.09169 -0.528255 -1.26145
20.8492 17.7339 21.3983 0.952755 -1.24795 -0.268204
21.3742 14.0677 19.7036 -2.46547 1.31982 0.377027
23.1221 16.2191 20.4851 -0.734528 1.32576 0.348369
21.3034 15.0728 22.4016 1.26212 -0.221825 -0.418865
28.9614 18.0021 18.4369 0.276989 -1.90149 0.103351
25.3949 14.7043 19.5719 0.044682 -0.981293 0.510672
27.1428 16.8557 20.3534 -1.39642 -1.35307 -0.641749
29.4157 15.341 19.4402 0.615438 0.856604 -0.758232
25.3242 15.7094 22.2699 0.692102 -0.513188 -1.08811
27.597 14.1946 21.3567 -1.84252 -0.575007 -0.000254192
29.3449 16.3461 22.1382 -1.34114 0.579113 -1.41569
12.3536 19.1217 20.6584 -1.74172 1.36938 0.260381
14.1014 21.2732 21.4399 0.410537 0.50198 -1.16493
11.8993 21.7828 19.6551 -0.0549949 0.923322 -0.991685
14.1722 20.268 18.7419 -0.579027 0.480938 -2.09657
14.5557 18.612 22.4432 0.272587 -0.581723 -1.36898
16.3743 19.7584 20.5267 0.787846 -0.224355 -0.253462
18.1221 21.9098 21.3082 0.731588 -0.0114931 0.511075
20.395 20.395 20.395 0.845994 0.501335 -1.02753
15.9201 22.4195 19.5234 -1.47001 -0.493309 -0.735883
18.1929 20.9047 18.6102 0.422039 0.615621 1.47281
18.5764 19.2487 22.3115 0.0924084 0.1851 0.563047
22.6679 18.8802 19.4818 -2.25283 -0.376131 -0.461779
24.4157 21.0316 20.2633 -1.90925 0.37862 -0.304588
22.2136 21.5413 18.4785 0.0144159 -0.161234 -0.438064
22.5971 19.8853 22.1798 -0.473272 -0.640873 1.72734
24.8699 18.3705 21.2666 0.133458 1.59575 -0.617089
26.6886 19.5168 19.3501 0.787083 2.0192 -0.380205
28.4364 21.6683 20.1316 0.712676 -0.956783 1.72039
26.2343 22.178 18.3468 -0.361459 -0.518527 -1.54697
26.6178 20.522 22.0481 -0.792565 -2.31188 -0.359549
28.8907 19.0072 21.1349 -1.78395 -1.17245 0.667992
11.8286 22.7879 22.3531 0.868883 0.201039 -0.145249
11.3743 25.449 21.3498 -0.536356 0.306701 2.02808
13.6472 23.9343 20.4366 -0.775888 -0.0540207 -1.89616
15.3951 26.0857 21.2181 1.54174 0.0664013 -0.913957
11.4451 24.4439 18.6518 -0.40156 0.016751 0.798177
13.193 26.5954 19.4333 -1.19064 -0.406218 -1.49997
15.4658 25.0806 18.5201 -1.24191 -0.219678 2.0967
15.8493 23.4246 22.2214 1.03665 1.03094 0.287772
19.87 24.0612 22.0897 0.0474254 -0.220158 1.14815
17.6679 24.5709 20.3049 0.937419 -1.49549 -1.78233
19.4158 26.7223 21.0864 -1.33884 -0.567743 -1.94112
19.9408 23.0561 19.3917 -0.195402 -0.56975 -0.702312
19.4866 25.7172 18.3884 -0.98145 -0.446247 1.97589
22.1429 22.5464 21.1765 -0.836952 2.09339 -2.47502
23.8907 24.6979 21.958 -0.666347 -0.0304605 -0.186732
21.6886 25.2075 20.1732 -1.69196 0.0781999 -1.03449
23.9615 23.6927 19.26 -0.892474 -0.161022 1.76315
23.5073 26.3538 18.2567 -0.44729 0.20816 -0.0437124
26.1636 23.1831 21.0448 -1.79717 -1.21537 1.18742
27.9114 25.3345 21.8263 1.11558 -0.461718 0.362559
25.7093 25.8442 20.0415 0.233773 -0.608059 -0.14477
27.9822 24.3294 19.1283 0.823608 1.48294 -0.0446
13.1222 27.6005 22.1313 -0.344423 -0.853935 -0.261188
14.9408 28.7468 20.2148 0.663257 -0.646095 2.38347
17.1429 28.2371 21.9996 0.0494233 -0.279977 -0.346479
17.2137 27.232 19.3016 -0.253832 1.43725 1.10098
18.9615 29.3834 20.0831 0.64662 -0.494056 1.82111
16.7595 29.8931 18.2983 -1.38952 -0.774309 -0.654708
21.1636 28.8738 21.8679 0.183931 0.747371 -1.02884
23.4365 27.359 20.9547 -1.85896 1.97353 0.415876
21.2344 27.8686 19.1699 -0.726816 0.0246427 0.509461
22.9823 30.0201 19.9514 -0.986584 0.180996 0.594228
25.1843 29.5104 21.7362 0.570186 2.32272 -2.82457
27.4572 27.9956 20.823 0.218583 0.852983 1.38704
25.2551 28.5053 19.0382 1.36129 -1.23183 -2.09774
13.262 13.7995 22.665 1.06222 1.50583 0.726663
15.4641 13.2898 24.4498 0.573613 -0.119275 1.57799
17.737 11.7751 23.5366 0.932103 -2.02154 -1.60257
19.4848 13.9265 24.3181 -0.496194 -0.26581 -2.10431
20.0098 10.2603 22.6234 0.755628 -1.31545 -1.15159
17.6662 12.7802 26.2346 1.09267 0.590754 -0.00265132
19.939 11.2654 25.3214 0.275509 -0.182895 1.02301
21.7577 12.4117 23.4049 -1.27753 -1.94908 -1.51418
21.6869 13.4168 26.1029 -0.837371 -0.36414 1.30928
22.2119 9.75059 24.4082 1.11145 -0.77813 -0.43716
23.9598 11.902 25.1897 0.452434 -1.72385 0.332536
25.7784 13.0483 23.2732 1.77498 -0.0509967 -0.0942412
12.737 17.4657 24.3597 -2.40423 -2.15069 1.014
15.0099 15.9509 23.4465 -0.58709 2.54555 0.426643
13.1912 14.8046 25.363 -1.66775 0.27544 -1.41498
14.9391 16.9561 26.1445 1.42721 -1.8427 1.26046
16.7577 18.1024 24.228 -0.683886 0.409051 1.50898
19.0306 16.5876 23.3148 0.378682 0.392894 -2.74202
17.212 15.4413 25.2313 -0.135772 -0.482423 -0.844557
18.9598 17.5927 26.0128 -0.0162636 -0.629016 -1.04777
23.0513 17.2242 23.1831 2.54322 -0.47244 0.295728
21.2327 16.0779 25.0996 0.838592 0.667757 0.00666752
22.9805 18.2294 25.8811 -1.39601 2.46898 0.775557
23.5055 14.5631 24.1864 0.867595 -0.0959931 1.75227
27.072 17.8609 23.0514 4.43559 -1.0772 0.381688
25.2534 16.7146 24.9679 1.3385 0.53978 -0.129818
27.5262 15.1998 24.0547 0.00127526 -2.76734 1.15529
29.2741 17.3512 24.8362 0.839622 -0.947863 -1.10244
25.7076 14.0535 25.9712 -1.0978 -1.26522 -0.965382
27.4555 16.2049 26.7527 0.742247 1.11468 1.16047
12.2828 20.1268 23.3564 0.437383 0.204911 -0.928717
14.0307 22.2783 24.1379 0.324448 0.749554 0.56727
12.212 21.132 26.0544 1.45375 2.02478 1.0246
14.4849 19.6172 25.1412 0.339506 -0.00913992 -0.0718446
16.3035 20.7635 23.2247 1.80149 1.03521 1.5618
20.3242 21.4001 23.093 0.627233 -0.918474 -0.750345
16.2327 21.7686 25.9227 -0.705522 -2.18878 -1.71618
18.5056 20.2538 25.0095 0.41714 0.500002 -1.34305
20.2534 22.4052 25.791 2.70224 -0.971918 1.30264
24.3449 22.0368 22.9613 -0.721282 -0.320892 0.593426
20.7784 18.739 24.0963 0.0744312 0.112487 0.950182
22.5263 20.8905 24.8778 2.15421 1.15689 0.112668
24.7992 19.3757 23.9646 0.875259 0.163499 -2.19868
20.7077 19.7441 26.7943 0.132273 1.15868 0.754947
24.7284 20.3808 26.6626 0.757199 0.17104 -1.91851
26.547 21.5271 24.7461 1.12648 0.416199 2.30182
28.8199 20.0123 23.8329 1.60998 0.271147 2.02461
27.0012 18.866 25.7494 0.574754 -2.389 1.39073
28.7491 21.0174 26.5309 0.389554 -0.223888 0.257674
11.3036 26.4542 24.0478 1.05711 0.418834 0.958567
13.5764 24.9394 23.1346 1.81738 -0.782312 -0.382144
11.7578 23.7931 25.0511 -0.228699 -0.59779 1.11049
13.5056 25.9445 25.8326 -0.123255 -0.99854 1.43327
15.7785 24.4297 24.9194 0.800347 1.82869 0.575462
13.9599 23.2834 26.8359 1.60159 -1.04747 0.649557
17.5971 25.576 23.0029 1.39504 0.473461 0.488035
17.5264 26.5811 25.7009 -0.929882 -1.94607 0.206089
18.0514 22.9149 24.0062 1.42545 -0.614334 -2.12554
19.7992 25.0664 24.7877 0.0783122 0.280347 -0.727119
17.9806 23.92 26.7042 -1.39763 0.945971 -1.2671
21.6179 26.2127 22.8712 0.385524 -0.0363674 -0.349065
22.0721 23.5516 23.8745 -1.03508 0.85897 1.71888
23.8199 25.703 24.656 -0.655791 0.450669 2.04769
22.0013 24.5567 26.5725 -1.3918 0.307891 -0.209629
24.2742 23.0419 25.6593 -1.45403 1.66257 -0.183782
26.0928 24.1882 23.7428 -1.16032 0.637338 -0.939545
27.8406 26.3396 24.5243 0.0779324 -1.01322 -0.276691
28.3657 22.6734 22.8296 1.38128 -0.371313 0.386387
26.022 25.1933 26.4408 -1.90419 0.219245 0.488967
28.2949 23.6785 25.5276 -1.03513 0.338234 0.454312
15.3243 27.0908 23.9161 -0.227939 1.60831 -1.55859
19.345 27.7275 23.7844 -1.38597 1.15564 0.957215
23.3657 28.3641 23.6527 -1.08792 0.945948 -0.898645
21.5471 27.2178 25.5692 1.36861 -0.00221957 -1.19203
25.6386 26.8493 22.7395 0.97758 0.476724 1.19086
27.3864 29.0007 23.521 -1.50261 -0.729294 -2.07547
25.5678 27.8544 25.4375 -0.248639 -1.4212 -2.04853
13.1205 15.8098 28.061 0.779031 0.0625896 -0.347972
14.8683 17.9612 28.8425 -1.57459 -0.667331 0.669617
15.3933 14.295 27.1478 0.621935 0.972512 -0.215404
17.1412 16.4464 27.9293 -1.74303 0.30029 0.360797
19.414 14.9316 27.0161 -0.66501 0.53693 0.281859
21.1619 17.083 27.7976 0.541512 -0.180128 0.763162
23.4348 15.5683 26.8844 2.32481 1.55758 1.08766
25.1826 17.7197 27.6659 -3.41711 -1.23835 0.273898
12.6662 18.4709 27.0577 -1.03067 -1.54295 0.846395
14.4141 20.6223 27.8392 -0.78035 -0.157437 0.208142
16.687 19.1075 26.926 1.81188 -0.282871 -0.637537
18.4348 21.2589 27.7075 -0.209896 0.619036 1.07913
16.6162 20.1126 29.624 -0.541202 -2.48518 0.886827
18.364 22.2641 30.4054 0.318524 1.0281 -3.27928
18.889 18.5978 28.7108 -0.706942 -1.34846 -0.995163
22.4555 21.8956 27.5758 -1.18167 -1.22725 -0.52789
20.6369 20.7493 29.4923 0.436214 -0.648388 1.27923
22.9097 19.2345 28.5791 0.641177 -0.942557 -1.11663
24.6576 21.3859 29.3606 -1.2868 0.800264 1.8393
26.9305 19.8711 28.4474 1.52034 1.50205 -1.6917
29.2033 18.3563 27.5342 -0.575628 -1.19705 -0.191857
15.7077 25.4348 27.6174 -1.07396 -0.766626 -0.359116
19.7284 26.0715 27.4857 1.29247 -0.0304388 -0.0920881
16.162 22.7737 28.6206 0.0245069 -0.0186812 0.653911
17.9098 24.9252 29.4021 1.65632 1.45367 0.0725101
20.1827 23.4104 28.4889 1.39738 -0.786351 -1.01475
20.1119 24.4155 31.1869 -1.28491 0.803668 1.65498
23.7492 26.7081 27.354 -2.75189 -0.715764 0.435465
21.9305 25.5618 29.2704 1.92784 -1.74018 -1.7319
24.2034 24.047 28.3572 -0.217771 1.89584 1.22456
22.3847 22.9007 30.2737 0.0587662 1.97816 -0.933747
26.4762 22.5322 27.4441 -0.415615 2.26509 0.922456
ITEM: TIMESTEP
1000
ITEM: NUMBER OF ATOMS
309
ITEM: BOX BOUNDS ss ss ss
1.1299488889480344e+01 2.9490511110519623e+01
9.7465108954876545e+00 3.1043489104512336e+01
9.5989880909128971e+00 3.1191011909087088e+01
ITEM: ATOMS x y z vx vy vz
14.3442 18.2973 13.286 -1.75859 -1.24441 -2.12411
16.9712 14.2641 13.4384 0.0404176 -1.4633 -3.32508
16.4912 16.808 12.3801 -2.52282 0.518838 -2.40077
19.0133 15.3295 11.8783 -0.0387722 -0.0911249 1.47282
18.2496 17.8392 10.7856 -2.20218 1.11018 -0.56732
20.943 14.8802 13.501 0.120181 0.150906 0.483717
20.5459 17.4515 12.5456 1.24582 0.491057 2.02255
23.0216 15.8835 11.7623 1.64624 0.135573 0.956997
24.72 17.9085 12.272 1.71614 -0.0449985 0.029345
20.6218 16.3547 10.137 -0.193476 0.0314546 1.13078
25.1094 15.5076 13.403 -0.0193695 -2.08872 -1.01655
11.8421 22.2805 13.4533 1.48072 0.270212 0.457272
14.0174 20.9228 12.5148 0.665976 0.406306 -0.201055
18.2691 18.7449 13.2532 0.25263 -0.465468 1.01902
16.3957 19.4517 11.5837 -0.48342 1.37632 -0.875337
18.1343 21.4304 12.2859 -0.601853 0.661818 -1.06068
20.2782 19.8324 11.4203 1.62718 -1.57294 0.733294
22.4084 19.5229 13.0245 0.686156 1.34912 2.19288
24.1522 21.6844 13.8219 1.10193 -1.85056 2.41539
21.8508 22.008 12.147 -0.0291106 2.00203 -1.66005
22.493 18.4837 10.6274 -0.152493 1.55167 0.299664
24.108 20.5386 11.3043 -0.261149 0.519958 -0.638322
26.4581 20.0749 12.7221 0.895784 -1.10279 0.0100819
27.8004 22.1007 13.9685 -1.77389 -1.93626 0.369562
15.5636 23.2257 13.1476 -0.843779 -2.42589 -0.0397293
17.3464 25.2168 13.9865 0.876265 -0.653001 -0.944942
19.6448 23.69 13.097 2.39102 -1.11927 -0.132301
21.3928 25.9331 13.8258 0.613193 -1.10362 0.500243
23.8091 24.3023 12.9356 0.206648 -0.524811 2.33839
25.2563 26.5288 13.7893 -1.62662 0.532656 1.07799
25.7392 22.5714 11.8778 -1.03297 -0.470779 -0.889435
27.2978 24.6779 13.1087 -0.259203 -0.0934167 0.643451
13.517 12.3468 17.3756 0.827951 0.851448 1.07913
15.201 14.2457 18.0107 0.0205467 -0.985497 1.10566
15.4934 13.0551 15.3243 1.75676 0.530693 -0.8971
17.3945 12.4431 17.2335 -0.502101 1.44405 -0.296138
19.2509 13.5766 15.3078 -0.271165 0.528457 -0.673508
21.3622 13.0395 17.0087 0.038111 0.701299 -0.66146
25.4439 13.6556 17.174 -2.39176 0.352032 0.635342
12.5091 18.1908 17.8766 0.218729 0.407565 -0.310116
13.0746 14.7173 16.1608 -1.75334 -0.394879 0.732385
14.6963 16.6946 17.0447 -1.05092 0.460282 -0.40698
12.712 17.1035 15.2759 -0.0183139 0.892576 -0.830362
14.8173 15.7073 14.357 0.156134 -1.21563 -0.644404
19.2416 14.4648 17.954 0.338209 0.835876 0.47191
17.0824 14.9532 16.2235 0.248906 2.05283 -0.0257735
18.8084 17.2586 16.8796 1.12019 -0.166724 0.141397
16.5165 17.7779 15.0783 -0.55113 1.15308 0.722907
18.6549 16.1695 14.2606 -2.29221 -1.52644 -0.547344
23.1385 15.0548 17.7749 0.0291159 0.0325104 -0.534189
20.9431 15.6746 15.9494 -1.84353 0.600833 1.12241
22.5032 17.9867 16.7812 -0.291721 2.88311 1.20262
23.3113 14.3145 15.0975 0.391328 -0.903304 0.50641
22.792 16.9345 14.0992 -1.48878 -0.430986 -2.81281
26.9176 15.9098 17.7115 0.968041 3.18232 0.395996
29.2231 14.7481 16.8408 -2.22914 1.09804 -0.974082
24.9662 16.4065 15.9488 -0.751271 -0.348607 0.00367728
27.1621 15.0275 15.1157 -0.644823 -0.284604 0.821615
29.0009 17.4045 15.9908 0.630767 1.63588 0.284361
27.0376 17.4241 14.061 2.44996 -1.5631 -2.01839
12.1048 20.8718 16.8511 2.67431 -0.0735539 2.92044
14.3127 19.3745 16.0678 -1.36314 0.337037 0.162141
12.2612 19.8808 14.357 1.14679 -0.596227 -0.939767
14.0888 21.9065 15.1578 0.334623 -0.496403 1.68564
16.5527 18.6676 17.8255 0.679056 -0.561507 2.05287
15.9063 21.4161 16.9326 0.247017 1.03047 0.185497
18.1573 19.9567 15.9126 1.42134 -0.277214 1.74027
19.8904 22.1642 16.6527 0.322235 -0.896352 1.7288
16.0389 20.4327 14.0562 -0.160096 -1.97924 -0.109305
20.0698 20.8873 14.0568 0.304115 1.44191 1.76728
20.38 19.4546 17.6577 1.55073 2.05233 2.3803
24.3271 20.0048 17.4869 -1.48693 1.25592 1.92334
20.4419 18.3115 14.9097 0.317456 -0.562989 1.8609
22.2674 20.5032 15.6533 -0.633166 -0.968536 0.987135
24.6919 18.8818 14.8099 -0.358368 -0.185645 -1.83314
26.7716 18.486 16.6066 -0.194655 0.0861492 -0.887289
28.4411 20.6686 17.3262 0.419505 1.3445 -0.0703525
26.1862 21.0745 15.7067 0.145444 0.977638 0.268623
28.3931 19.7866 14.7642 1.02487 -0.0065762 0.436825
13.7816 22.8443 17.6802 0.911735 1.81567 -1.05921
11.7907 23.5141 16.0517 1.48865 -0.744545 0.493995
13.1955 25.6964 16.6003 0.622056 0.913134 0.128604
15.5635 24.1391 15.8707 2.06641 2.06212 0.136356
13.4613 24.612 14.2146 1.03136 -1.60093 0.379309
15.205 26.6651 14.8281 -1.26377 -0.173785 -0.235215
17.6476 23.6266 17.6543 0.543097 -2.53718 0.81353
17.1842 26.122 16.6157 -1.11091 -1.69768 -1.16549
17.7359 22.5194 14.712 -0.756871 -0.310031 0.71854
19.6561 24.7568 15.5793 0.179766 0.429103 0.433373
21.7797 24.1342 17.4971 -0.537975 -1.12753 0.124655
24.0774 22.6631 16.6739 -0.72651 -1.37612 -0.102162
21.9064 23.2241 14.6306 -0.403825 -0.80107 -0.777041
23.7118 25.2952 15.624 2.07807 0.500693 -0.11252
25.8226 24.9553 17.417 -0.173522 -0.73168 0.170228
27.9665 23.3057 16.2417 0.106819 -1.6321 2.48605
25.6571 23.7001 14.8994 -0.28291 0.238252 -0.811977
27.3538 25.8019 15.4156 0.471434 -0.315197 -1.69839
15.0277 27.6902 17.4478 -2.74968 -1.25643 0.833769
19.1892 27.9152 17.3838 -0.232186 -1.10493 0.862438
16.924 28.6572 15.606 1.28383 -0.0667316 0.694565
18.8219 30.6431 16.1987 1.1001 -1.26838 1.2805
19.0104 27.399 14.695 1.22984 -0.0720834 0.561231
20.754 30.0694 18.0386 -0.740867 1.62757 0.247819
21.5192 26.8124 16.3804 0.912689 0.328213 -1.37062
23.1809 28.9296 17.1583 2.50478 1.91803 -0.565139
20.9772 29.1509 15.4783 -0.641315 -1.56806 -1.94441
23.1543 27.7909 14.4277 0.195933 0.530153 0.112118
27.264 26.9636 18.3341 -0.000456064 -0.354498 -0.413691
25.3273 27.6087 16.3772 -0.392678 1.98959 1.19828
13.4305 13.168 19.9784 -0.804203 0.797859 0.991719
15.6258 11.3974 19.0759 0.628401 -0.71117 -0.564073
15.3861 12.3135 21.6777 -0.442777 -1.13902 1.67803
17.1403 13.3733 19.831 -0.117568 -0.0692166 1.08897
19.5501 12.0469 18.9688 -1.93446 0.474179 0.389545
17.7754 10.9999 20.7831 1.43701 -2.98707 -0.856312
19.4694 12.9014 21.7446 -0.230375 -0.98925 -1.10573
23.5739 12.5392 18.9104 -0.319634 -0.180035 0.896956
21.4937 11.3027 20.6061 -0.853368 1.42961 -0.291562
23.6076 13.6208 21.7057 -0.382624 -1.09708 -0.724346
23.9228 10.9774 21.9615 -0.0494456 1.79963 -1.51396
27.6019 13.3069 18.8895 -1.49223 0.402034 -0.783603
25.7593 12.2152 20.5825 0.68236 -0.413537 -0.215741
12.9168 15.572 18.7721 1.84845 3.28281 0.966319
14.5993 17.4722 19.7854 -0.685283 -0.329419 -0.845286
12.9127 16.5361 21.8587 -1.16966 0.148196 0.747094
15.0675 14.9715 20.7494 1.26268 0.778934 0.308128
17.0452 16.0129 18.892 3.57366 2.29779 -0.333088
18.7083 18.3436 19.5939 1.65939 1.89732 0.619417
16.9018 17.0682 21.5661 0.992128 0.908963 0.264508
19.1001 15.4176 20.5628 0.512237 -0.183163 -0.129756
17.1518 14.2867 22.6136 -0.808187 -1.27322 0.538566
20.8706 16.7503 18.6714 0.664395 1.36431 -0.0203005
24.8712 17.3443 18.6569 -1.44713 0.713376 1.2773
20.7564 17.6782 21.2592 -1.76741 2.26124 -1.50519
21.4459 13.8059 19.7381 0.414367 -0.134354 -0.880757
22.9797 16.1001 20.4067 -0.137929 0.91208 -0.135001
21.3369 15.0204 22.3999 -0.665263 0.860008 0.115218
28.7526 17.928 18.5378 0.241512 0.853283 -0.299294
25.3637 14.7073 19.6281 -0.392897 -0.396046 -0.572144
27.0382 16.8291 20.3272 -0.780688 0.638205 -1.25686
29.1755 15.5438 19.6376 0.779622 0.550817 -0.639179
25.3022 15.7044 22.292 0.278598 -0.290919 0.194557
27.4763 14.2383 21.4532 1.33391 -1.46873 0.838699
29.1228 16.544 22.0932 1.00082 2.33065 2.04846
12.6142 19.1602 20.6864 -1.27065 -0.951196 0.881298
14.1048 21.3528 21.6254 1.13155 0.0837813 0.864747
12.0583 21.8187 19.7094 -1.3058 -0.858528 0.79465
14.1592 20.1443 18.784 -1.72102 -0.369552 1.10606
14.5653 18.6334 22.4542 -0.816027 2.20464 -0.208427
16.4181 19.6915 20.4958 0.6478 1.57639 -1.322
18.1403 21.9028 21.1865 2.13528 -1.07366 -0.804133
20.5536 20.4229 20.3475 -2.01326 -1.2051 -0.204156
15.7071 22.425 19.5759 1.10244 -0.265477 0.939447
18.1934 21.0033 18.6181 2.44942 -0.369304 0.374411
18.6562 19.2986 22.1624 1.01354 -0.517036 -3.4058
22.6651 18.9536 19.5056 -1.8067 0.539026 0.303133
24.3463 21.1599 20.2096 -1.71775 0.617889 0.736204
22.1097 21.5411 18.4837 -2.48911 -1.67207 1.10931
22.512 19.8178 22.1305 -2.61437 0.179475 -1.50156
24.9546 18.4935 21.219 -0.906801 0.606627 -1.57337
26.755 19.5482 19.3272 0.143091 0.0887816 -0.347675
28.3269 21.6792 20.0682 -0.991462 -0.0240914 -0.516401
26.3902 22.1639 18.2986 -1.34947 0.037699 0.343523
26.5616 20.6404 22.0346 0.390221 -0.634954 0.641596
28.7565 19.0874 21.2597 0.96179 1.49032 -1.64313
11.9352 22.9231 22.2435 -0.52452 -0.0546608 -0.43527
11.5198 25.3917 21.2108 1.67615 -3.24608 -0.91686
13.5159 23.9412 20.3701 0.931606 0.599899 -0.297391
15.2701 26.2012 21.3659 -0.318481 -0.027636 0.413267
11.688 24.4901 18.5369 -1.11152 0.419562 0.521606
13.2184 26.666 19.364 -1.08825 0.919289 -0.891381
15.2365 25.0896 18.478 1.68743 0.179658 -1.40353
15.8537 23.5366 22.208 1.47986 -0.689652 -1.26953
19.9205 24.08 22.0961 1.10633 -0.633119 -1.35378
17.5641 24.5824 20.3399 0.246797 -0.0280468 0.452184
19.4091 26.8197 20.9725 -0.241959 0.484742 1.99277
19.8474 22.9624 19.4602 0.154235 -4.47098 2.09888
19.5164 25.4943 18.4267 1.08284 -1.26214 0.603584
22.1037 22.5429 21.0585 -1.49492 -2.10524 -0.462718
23.8777 24.8232 22.0726 -1.63461 -1.19603 -0.363351
21.7589 25.1385 20.0607 -0.702547 -1.32369 0.405823
23.9263 23.7637 19.2738 -1.31455 -0.277541 -0.702909
23.6073 26.4594 18.2598 -0.534389 0.718861 -1.51469
26.1816 23.3069 21.0845 0.00555067 -0.455446 -0.993868
27.6493 25.4993 21.9824 0.606691 0.315502 -1.98744
25.7417 25.9324 20.1537 0.922715 0.759473 -2.13336
27.9491 24.463 19.3705 0.3354 1.24685 0.656345
13.1652 27.4814 21.903 0.974371 -1.75431 -0.0665206
15.1816 28.5389 20.0653 0.141976 1.79853 -0.95512
17.2164 28.1939 22.0236 0.632559 1.08273 -0.0318862
17.2683 27.082 19.2682 -0.868052 0.497715 -0.724598
18.9984 29.174 19.8757 0.312445 -2.15985 -0.236179
16.9902 29.4149 18.1873 0.51278 -0.249613 0.550684
21.1714 28.808 21.6288 -0.337634 2.34207 0.884822
23.5118 27.4066 20.9967 -1.87437 0.159988 1.14353
21.2765 27.7689 19.0344 -0.568045 0.128741 0.479765
22.9104 29.8657 19.9519 0.483643 0.000132162 1.33458
24.8769 29.4174 21.7124 -1.91416 0.128027 0.58679
27.1144 28.0603 21.0842 -1.77989 -1.43004 0.13308
25.1974 28.6014 19.0451 -0.0192255 1.83831 -1.26658
13.5514 14.0233 22.8466 -2.08156 -1.0236 1.10224
15.5078 13.1958 24.4414 1.54769 -0.553795 0.0685845
17.5569 11.6927 23.4679 1.23361 -2.51109 -0.116645
19.4459 13.7337 24.3129 0.141135 -2.982 0.501477
19.707 10.2612 22.3931 0.200398 0.320522 0.476076
17.6187 12.7411 26.1132 -0.36672 -0.278941 1.97338
19.8294 11.3071 25.0793 -0.909378 2.219 0.334092
21.7281 12.5035 23.2377 1.23448 -0.169627 0.128089
21.8556 13.2499 25.8373 -1.05884 1.34247 -0.534185
21.9702 9.92418 23.7682 -0.184351 0.545522 -0.509387
23.8773 11.8688 24.7109 -1.22614 2.079 1.44494
25.7315 12.9618 23.155 1.52574 -1.85975 1.0045
13.1661 17.7559 24.5339 1.01242 1.21476 -1.80781
15.0783 16.0834 23.558 -0.984745 -0.567631 -0.42532
13.4736 14.8811 25.375 1.37519 0.259149 -2.72982
15.1412 17.0861 26.0669 -0.361411 0.832191 0.220343
16.956 18.0901 24.4447 1.25407 -0.25535 -0.62091
18.9261 16.4199 23.3146 -0.171531 0.152403 -1.41094
17.3308 15.3726 25.2047 -0.0348306 -0.378312 -0.543331
18.9692 17.5769 26.1848 -0.122585 0.421452 -1.05638
22.9564 17.2379 23.1941 0.238099 1.74297 -0.217203
21.1455 16.0621 25.1006 -0.506444 1.2597 0.348782
22.9398 18.2069 25.8134 0.0756233 0.0932491 0.1851
23.4659 14.5349 24.2482 -0.0473497 -1.25905 0.172382
27.0569 17.9792 23.0489 1.30939 0.324231 -0.935594
25.2452 16.7806 24.8588 0.960731 -1.4253 0.628831
27.5653 15.2058 23.8989 0.241632 -1.26524 -2.09293
29.0161 17.4564 24.5125 -2.05373 -0.127768 -0.826416
25.6764 14.3332 25.7918 -0.256915 1.37479 3.03065
27.4115 16.3524 26.4076 -0.660894 1.69505 0.402765
12.2922 20.4163 23.4836 -1.57343 -0.826571 -0.230399
14.2105 22.2524 24.2757 -1.05049 -0.78354 0.494938
12.4604 21.1209 26.1316 -1.01203 0.694418 1.22136
14.6985 19.6738 25.1721 -0.237982 -0.725289 1.92531
16.3989 20.7808 23.1744 -0.45664 -0.701037 -1.47268
20.3439 21.4614 22.8561 0.0466604 -0.529006 -1.99351
16.2456 21.7923 26.0654 0.860502 -0.10774 0.281849
18.535 20.2737 24.9974 -0.326677 -0.989997 -0.314054
20.1036 22.4262 25.7865 -0.633158 -1.73876 -0.574241
24.3473 22.1126 22.9699 0.966375 -0.0415941 -1.3137
20.6313 18.6978 24.0749 1.48931 1.44042 -0.529585
22.3462 20.92 24.8342 -1.22462 -0.768671 0.615838
24.5415 19.397 23.9422 -2.22832 1.36848 -1.806
20.7077 19.784 26.8136 -2.8176 -0.28666 -2.10047
24.7078 20.4465 26.5888 1.1662 -1.03361 0.13537
26.4675 21.6015 24.8698 -0.954792 1.00907 0.686838
28.6175 20.1444 24.0176 0.257024 2.4968 -0.472028
26.7367 18.9704 25.4716 -0.0115297 -0.424125 0.223836
28.4581 21.0619 26.5465 -1.69535 -0.637386 -1.12444
11.6468 26.2696 23.9723 1.82497 -2.04678 -1.34841
13.7884 24.8302 22.8757 -0.138278 -0.251191 -1.60829
12.0506 23.5966 24.8582 0.390856 -0.899606 -0.906574
13.7213 25.7861 25.6705 1.03928 1.41316 -0.0200462
15.7468 24.5684 24.8466 0.274757 1.04102 0.552347
13.9684 23.3356 26.9523 -0.176556 0.434615 0.689838
17.6182 25.5924 23.0169 0.262627 -0.209918 -0.479225
17.7156 26.4536 25.7172 0.896699 -0.0799875 1.65157
18.0284 22.8753 23.916 0.510516 0.351424 -0.216142
19.8175 24.9824 24.7986 1.87034 -1.22226 -2.0333
18.116 23.9001 26.761 1.18337 0.845057 1.66837
21.5752 26.3159 22.8704 -2.23254 -0.756977 -0.97556
22.089 23.6503 23.9834 0.0758004 -1.03134 0.206967
23.7084 25.7957 24.6978 0.326853 0.315976 0.752775
21.9837 24.5363 26.5659 -0.155125 -1.40399 0.60948
24.1511 23.0234 25.7518 -0.630684 -1.81008 -0.413151
25.9561 24.3165 23.8211 1.72701 -0.78667 0.12849
27.5852 26.3477 24.6044 0.595852 -0.038487 -0.123962
28.2242 22.8819 22.7576 0.49493 0.412392 -0.857749
25.8551 25.0658 26.3991 1.83396 -0.0711223 1.50461
27.9833 23.6822 25.4024 0.512718 0.608755 0.269733