ITEM: TIMESTEP
0
ITEM: NUMBER OF ATOMS
309
ITEM: BOX BOUNDS ss ss ss
9.9088484935450190e+00 2.9141992159253618e+01
9.3296426311151723e+00 3.1376563599853757e+01
9.9221069773998458e+00 3.0867893016854740e+01
ITEM: ATOMS x y z vx vy vz
17.4915 15.6119 13.802 -0.687535 2.29757 -0.704648
17.2203 16.7829 11.1848 -0.346435 0.314165 -0.697701
16.5236 14.0175 11.6044 0.197166 2.22669 -1.07845
14.8709 16.1635 12.7357 -1.16839 1.01675 1.72012
20.2943 16.4784 13.8994 -2.17017 0.941259 0.392226
20.0232 17.6494 11.2822 0.174627 0.309691 0.561371
19.3265 14.8841 11.7017 -1.15037 1.08109 1.5179
23.0972 17.3449 13.9967 1.86982 1.16025 1.55834
24.9322 16.6171 11.8963 0.679764 -2.15216 1.36493
22.1293 15.7506 11.799 0.949619 -0.740189 -1.13596
27.735 17.4836 11.9937 -0.316274 2.54334 0.859448
13.2183 18.3094 13.867 1.61442 1.68452 -1.77878
16.2644 21.6941 11.8966 -0.055332 -1.62346 -0.368523
15.5677 18.9288 12.3162 0.139261 -0.863627 -0.466038
13.915 21.0747 13.4475 1.42128 -0.274281 0.272785
18.8849 21.1425 12.9629 -2.03091 -0.242363 -2.08258
18.6137 22.3135 10.3457 -0.543946 0.530523 -2.04721
20.991 19.2437 13.4798 -0.983332 0.100637 1.2476
20.7199 20.4147 10.8626 -0.250473 -1.08372 0.738854
18.1882 18.3772 13.3825 -1.10447 -0.525559 0.230876
17.917 19.5482 10.7653 -0.401153 -0.0863683 2.79958
21.6877 22.0091 13.0603 0.302455 -1.82437 0.123415
23.7939 20.1103 13.5771 -0.848368 -2.05942 -0.383859
23.5227 21.2812 10.9599 1.02224 1.10906 -0.207105
22.826 18.5159 11.3795 1.49957 -0.442637 -2.16211
25.7085 22.0639 12.6683 -0.460386 -2.39163 -2.55811
25.9 18.2115 14.094 0.503314 0.339872 -0.871233
25.6289 19.3824 11.4768 0.395895 0.928877 0.586241
27.8146 20.1651 13.1851 1.01295 -1.84414 -1.39361
17.2322 23.2885 14.0943 -1.07415 1.05788 -1.04283
16.9611 24.4594 11.4771 1.03414 -0.0971819 0.740022
14.6117 23.8401 13.0279 0.55231 0.220541 1.70672
16.3931 26.0329 13.8244 -1.02886 -0.0013037 0.942624
19.5816 23.9079 12.5434 1.41462 0.591035 0.443591
19.3104 25.0788 9.92619 -1.35809 1.31743 0.875329
18.7425 26.6522 12.2736 -1.50286 -0.577759 -2.20737
21.4166 23.18 10.4431 1.08269 1.70555 -1.91442
21.4962 25.8615 11.6345 -1.23531 0.461242 0.475885
23.6819 26.6442 13.3429 0.63737 -0.565799 2.34721
23.6023 23.9627 12.1514 3.55025 -0.594302 0.383958
25.788 24.7454 13.8597 1.29193 0.151007 1.79507
20.9282 27.4349 13.9819 0.583256 -0.830736 0.988994
17.0659 11.6756 16.8388 -0.578541 -1.18631 -1.0659
16.7948 12.8466 14.2216 0.568822 -0.442043 1.16917
19.8687 12.5422 16.9361 -0.418238 -2.29419 0.824456
19.5976 13.7131 14.3189 0.44599 1.26036 -3.37426
22.6716 13.4087 17.0334 1.87321 0.0658806 -0.054914
13.4894 17.1385 16.4842 -3.32329 -1.09796 0.221721
16.1099 16.5869 17.5506 -0.669917 -0.261882 0.477076
15.8388 17.7578 14.9334 -1.1031 0.740279 -1.09125
15.4132 13.8216 17.9701 0.647211 -0.052483 0.719011
15.1421 14.9925 15.3529 0.752171 -0.769186 -1.19578
21.2622 18.0728 16.097 1.36999 -1.18996 -2.28719
18.4593 17.2063 15.9997 0.519261 -0.657964 0.661298
20.5654 15.3075 16.5166 1.151 0.859685 -0.49819
17.7626 14.4409 16.4192 -0.179242 -1.29054 -2.28658
23.3683 16.174 16.6139 0.337118 -0.499921 -1.33243
25.2033 15.4461 14.5135 1.43732 0.728632 -0.117081
22.4004 14.5796 14.4162 0.106749 -2.6027 1.15636
26.1711 17.0405 16.7112 -0.0654688 -0.841171 1.36662
28.2773 15.1417 17.2281 -1.30644 2.65716 0.786608
28.0061 16.3127 14.6109 0.849918 0.406548 -1.9416
25.4744 14.2752 17.1307 0.961502 0.0485919 1.8
12.5334 22.0498 17.196 -0.0319574 -0.322633 1.94683
11.8367 19.2844 17.6156 0.810333 1.21934 1.13578
11.5656 20.4554 14.9983 -0.500768 -1.04504 -0.252084
17.5033 22.1175 16.7115 0.392359 0.0316571 -0.456874
15.154 21.4982 18.2623 -1.25907 0.52578 0.418465
16.8066 19.3522 17.131 -1.03804 -0.335407 0.72326
16.5355 20.5232 14.5138 -0.342462 -1.52292 0.238798
14.1861 19.9038 16.0647 -0.755689 -2.25775 -0.435421
20.1239 21.566 17.7778 0.420347 0.529665 -1.13375
19.4271 18.8006 18.1973 1.55221 0.0849334 -1.00964
19.156 19.9716 15.5801 0.0668444 -0.216153 -0.479706
22.23 19.6672 18.2947 1.67826 -0.63631 -0.0745337
21.9589 20.8381 15.6775 2.42562 -1.05347 -0.63033
24.1446 21.6208 17.3858 0.628937 -0.445926 1.7006
24.065 18.9393 16.1943 -0.980704 0.249054 0.412295
26.2507 19.722 17.9027 3.04136 -0.670534 0.282287
25.9796 20.8929 15.2855 0.424772 1.00286 0.145327
28.1653 21.6756 16.9938 0.624699 0.0278013 1.78725
28.0857 18.9942 15.8023 -0.14877 2.14614 1.16485
12.2623 23.2207 14.5788 0.810481 0.497084 0.804111
9.91293 22.6014 16.1297 -0.339388 0.507594 0.224105
11.6944 24.7941 16.9262 -2.38182 -2.1181 1.10621
14.8828 22.6691 15.6451 -1.24538 -0.584838 -1.32864
16.6643 24.8619 16.4417 0.185274 1.24353 0.467091
14.3149 24.2425 17.9925 0.546931 0.605478 -1.64151
14.0438 25.4135 15.3753 -0.995978 -1.31128 1.50996
19.8527 22.7369 15.1606 1.0512 1.103 0.280489
19.2848 24.3103 17.508 -0.678262 0.0304849 -0.246703
19.0137 25.4813 14.8908 0.969349 0.58207 1.0925
21.1994 26.264 16.5991 -0.316687 -0.396039 0.00420341
22.0384 23.5196 16.8689 -1.80012 -1.13844 1.14739
21.7673 24.6905 14.2517 1.11498 -0.340648 0.286434
23.953 25.4732 15.9601 -1.21999 -0.371102 -1.49523
23.8735 22.7917 14.7686 0.888594 0.187351 0.912943
26.1388 26.2559 17.6684 0.473449 -1.05514 1.11631
26.0592 23.5744 16.4769 -1.5092 -0.021352 -3.25443
28.2449 24.3571 18.1853 1.45267 -1.67724 1.43671
27.9738 25.5281 15.5681 1.84233 -0.074103 -0.496262
27.8942 22.8466 14.3766 -0.0785484 -0.290037 -0.669725
13.4758 26.9869 17.7227 1.06261 1.50892 0.915198
15.8252 27.6063 16.1718 -0.836911 0.418554 0.014241
18.4457 27.0547 17.2382 0.17415 0.899615 1.27175
18.1746 28.2256 14.621 0.206279 -0.147794 0.849445
17.6067 29.7991 16.9683 1.02325 0.400548 -1.07019
20.3603 29.0083 16.3293 -0.825931 -0.223655 0.832556
23.114 28.2176 15.6902 0.573192 2.07354 -1.86238
22.546 29.791 18.0376 -1.06336 0.490054 0.464652
25.8676 27.4269 15.0512 1.22602 -0.971079 -0.741514
25.2997 29.0003 17.3986 1.58821 0.41917 2.1027
28.0534 28.2096 16.7595 -0.770485 0.0491796 0.363214
17.337 10.5047 19.456 -1.61895 0.415784 0.325603
15.6844 12.6506 20.5873 -0.563451 0.618896 0.275163
21.1077 12.9656 21.751 1.41882 0.0833725 -1.39476
18.3049 12.099 21.6536 -0.975658 0.897392 1.5508
18.0337 13.27 19.0364 -0.591368 0.534447 1.84232
20.411 10.2002 22.1705 0.889821 0.161063 -0.335149
20.1399 11.3712 19.5533 -1.45594 -0.523166 0.644426
17.6082 9.33372 22.0732 0.738153 1.04238 -0.213045
23.2139 11.0668 22.2678 0.47222 -0.0933862 0.115882
22.9427 12.2377 19.6506 -0.445535 -2.28253 -1.0469
28.8196 12.7998 22.4625 -0.418364 -0.164637 -2.01635
26.0167 11.9333 22.3651 0.838855 -1.25945 -1.02693
25.7456 13.1042 19.7479 -1.18678 -1.84749 -1.42609
12.1079 18.1135 20.2328 -1.0332 -1.20301 -0.950896
17.3489 17.0103 22.3654 -1.07084 -0.904998 1.31951
16.3811 15.4159 20.1678 -0.427564 -0.626459 1.64676
14.7284 17.5619 21.2991 -0.70851 1.28623 0.345664
14.0317 14.7966 21.7186 -0.757033 -0.314514 1.32993
13.7605 15.9675 19.1014 2.40725 1.65013 1.07159
19.6983 17.6297 20.8145 -0.768403 -0.0802933 -1.95387
19.0016 14.8644 21.2341 -0.115668 2.28518 0.0319211
18.7304 16.0353 18.6169 -1.0826 -1.24495 0.921061
20.8366 14.1365 19.1338 -1.5042 0.247052 -1.37813
24.6073 16.5974 21.4287 -0.986373 -0.467395 1.86642
24.3361 17.7684 18.8115 -0.726606 0.0479333 0.364569
21.8044 15.7309 21.3314 1.10825 -0.116599 -0.198575
21.5333 16.9018 18.7142 -0.442106 0.203599 -0.198353
23.9106 13.8321 21.8483 -0.8811 -1.8494 0.060244
23.6394 15.003 19.2311 0.336428 0.0902433 -0.180481
26.7134 14.6986 21.9456 -0.419397 -2.58716 1.12721
26.4423 15.8696 19.3284 -0.176202 -0.485769 1.08114
28.628 16.6522 21.0367 0.190112 1.31989 0.769631
28.3569 17.8232 18.4195 -1.11706 -1.01863 -0.54882
28.5484 13.9708 19.8453 0.920428 0.812886 0.0554733
13.0757 19.7079 22.4304 -1.43169 -0.890678 -0.851703
12.8046 20.8788 19.8132 -0.0557012 0.701602 1.25239
10.4552 20.2594 21.3641 -1.39026 -1.41028 -0.671666
10.1841 21.4304 18.7469 -1.77199 -1.18492 0.599756
12.2367 22.4522 22.1606 1.60426 -1.0212 0.609413
15.4251 20.3272 20.8795 0.166995 0.73701 -1.21174
17.2065 22.52 21.6761 -1.89361 1.95481 0.27948
17.0778 18.1813 19.7482 -0.797575 -0.642 0.134618
14.4573 18.7328 18.6819 0.163968 1.60087 -0.655739
20.395 20.395 20.395 -1.73506 1.35123 0.327033
18.0456 19.7756 21.9459 0.727265 -0.033355 0.476274
17.7745 20.9466 19.3287 0.049215 -0.196872 1.07573
22.5807 21.1777 22.1033 -2.26612 -0.389942 -0.426186
22.3096 22.3486 19.4861 -1.91749 0.408953 -0.306112
22.5011 18.4962 20.9119 0.716723 -0.930745 1.64299
24.4157 20.4498 20.003 -0.275974 1.43844 1.01817
26.6015 21.2325 21.7113 -1.67738 0.100164 -1.06394
26.3303 22.4035 19.0941 1.149 2.47148 -0.684425
26.5219 18.551 20.5199 -0.532058 0.693659 -1.57647
28.7076 19.3337 22.2282 1.42916 -0.606523 -1.03156
28.4365 20.5047 19.611 1.96447 -1.51443 -1.78492
11.9655 23.6232 19.5434 -1.0631 -0.695715 -0.435161
13.747 25.816 20.3399 1.27957 0.0512418 -0.168425
16.9354 23.691 19.0589 0.538398 2.34857 -2.99454
14.586 23.0716 20.6097 -0.110247 -1.30603 -0.84459
16.3675 25.2644 21.4062 -0.00373394 -1.82971 -0.661238
16.0963 26.4353 18.789 -0.57783 0.49782 0.892454
19.5559 23.1394 20.1252 -0.854088 2.10719 -2.49565
18.988 24.7128 22.4726 -0.946545 -0.203193 1.72138
18.7169 25.8837 19.8554 0.183925 -0.604832 -0.221508
20.9026 26.6664 21.5637 0.637355 2.07241 -0.585999
21.7417 23.9221 21.8335 -0.408307 -0.54558 -1.56392
21.4705 25.093 19.2163 0.780921 1.49873 -0.10007
24.4953 23.1313 21.1945 -0.398987 -0.665229 -1.48037
24.2242 24.3023 18.5773 -0.437133 0.00649537 0.83747
23.6562 25.8757 20.9246 -2.95728 0.656733 -1.70505
26.4099 25.085 20.2856 -1.14509 0.372157 -0.568115
28.5956 25.8677 21.9939 -1.36429 0.670309 -1.28675
28.516 23.1862 20.8025 -1.64446 0.393765 -1.19899
15.5284 28.0087 21.1364 2.66946 -0.914939 1.32088
15.2573 29.1797 18.5192 -1.41491 0.408465 -0.226769
17.3099 30.2015 21.9329 0.331355 0.404154 -2.57552
17.0387 31.3725 19.3157 0.0328201 0.16897 1.07588
18.1489 27.4572 22.2028 1.45072 -1.68534 0.912986
17.8778 28.6281 19.5855 -0.344454 -0.726831 2.63369
20.6314 27.8374 18.9465 -1.02097 0.613306 -1.35902
20.0635 29.4108 21.2939 0.0243731 0.758218 -0.88228
19.7924 30.5818 18.6767 0.897913 1.61423 0.355284
23.3851 27.0467 18.3074 1.01284 -0.411361 0.757972
22.8172 28.6201 20.6548 1.0906 0.523006 2.34719
25.5708 27.8293 20.0158 4.40547 -0.972699 0.498449
28.3245 27.0386 19.3767 -1.02595 -1.37982 1.03775
16.9233 13.074 25.4022 0.180968 0.409758 -0.231115
15.9555 11.4797 23.2045 1.18699 0.627735 0.0279024
14.3028 13.6256 24.3358 0.349287 -0.178388 1.08091
19.5439 12.5225 26.4685 -0.366094 -0.437504 0.0691173
19.2727 13.6934 23.8513 1.05915 0.344502 0.724732
21.3789 11.7946 24.3682 0.12447 0.320714 -0.893383
18.576 10.9281 24.2709 0.67952 -0.923128 -0.878891
22.3467 13.389 26.5658 0.0322863 -0.836337 1.23069
24.1817 12.6611 24.4655 0.841925 1.87649 0.466185
26.9846 13.5277 24.5628 -0.558947 -0.862237 -0.63415
10.9975 17.9175 26.5985 0.630878 -0.295016 0.789923
12.6502 15.7716 25.4672 1.16295 -0.806284 -0.34932
12.379 16.9425 22.85 0.510026 -1.70609 0.38262
15.9674 17.9853 26.114 0.9089 -1.59338 -1.89054
16.6522 14.245 22.785 0.991577 -1.27784 -0.309749
15.2707 15.22 26.5335 0.689704 -0.687073 0.812149
14.9995 16.3909 23.9163 -2.44305 1.23537 0.411245
20.9373 18.0531 25.6294 1.80476 -0.803385 -0.447554
20.2406 15.2878 26.049 -0.351517 -0.903151 -0.405312
19.9694 16.4587 23.4318 -0.0536605 0.8511 -1.01338
17.6201 15.8394 24.9826 -0.186491 -0.97889 0.0163074
23.0434 16.1543 26.1463 1.08455 -0.592524 -1.26184
22.7723 17.3253 23.5291 0.785653 1.99721 -0.418463
24.958 18.1079 25.2374 -0.397799 -1.099 0.721958
25.1495 14.2555 26.6631 0.343042 0.674123 0.304218
24.8784 15.4264 24.0459 1.4842 0.975544 0.310199
22.0756 14.5599 23.9486 0.708395 0.669104 0.998708
27.0641 16.2091 25.7543 0.14906 0.498301 -1.06104
26.793 17.3801 23.1371 -0.460381 -2.33294 -0.972919
28.8991 15.4813 23.6539 0.0363315 -0.510874 -0.994255
13.3469 18.5369 25.0476 -0.170517 -1.09797 -2.17932
10.7263 19.0885 23.9813 0.0439443 -1.08382 0.516506
12.5078 21.2813 24.7778 1.45118 2.00292 1.02102
15.6962 19.1563 23.4968 -1.35958 -0.621663 -2.08611
17.4777 21.3491 24.2933 -1.73218 0.0165336 -1.13242
15.1283 20.7297 25.8441 -2.20327 1.33046 -0.353815
14.8572 21.9006 23.2269 0.772829 -0.228791 0.0844848
20.6661 19.224 23.0122 -0.233029 1.62967 -1.65973
18.3168 18.6047 24.5631 0.778066 -0.290925 -0.250512
20.0982 20.7975 25.3596 2.0239 -0.378428 0.436921
19.8271 21.9684 22.7424 0.821704 0.471865 -1.01271
22.8519 20.0067 24.7205 -2.88778 -1.84867 -0.395467
25.0376 20.7894 26.4289 -0.647685 1.41904 -0.615401
24.7665 21.9604 23.8117 0.576524 0.199779 -1.36118
24.6869 19.2789 22.6202 -1.26842 -0.261694 2.0498
26.8726 20.0616 24.3285 -0.317795 -0.610984 0.289085
29.0583 20.8443 26.0369 0.0290278 0.113395 0.686992
28.7872 22.0152 23.4197 1.66454 1.62914 0.0692449
28.9787 18.1628 24.8454 -0.181833 0.752467 1.09709
16.9098 22.9225 26.6406 -0.897855 -0.547737 -0.695253
16.6386 24.0934 24.0234 -1.58793 -1.39976 0.123288
14.2892 23.4741 25.5743 -0.727133 -2.19471 -1.71692
14.0181 24.645 22.9571 -1.41312 0.981703 -1.30526
16.0707 25.6668 26.3708 -0.723929 0.374728 1.6009
15.7995 26.8378 23.7536 0.381346 0.510515 -1.28511
19.2591 23.5418 25.0898 -0.0459997 -0.248334 -0.44059
18.4201 26.2862 24.82 2.10575 -1.33179 2.2326
21.1737 25.4955 24.1809 0.685111 -1.26672 0.336556
22.0128 22.7511 24.4507 1.17909 0.50699 1.19574
24.1985 23.5338 26.1591 -0.937272 -1.3546 -1.19329
23.9274 24.7047 23.5419 1.64799 -1.00756 0.663747
23.3595 26.2782 25.8892 2.49505 -0.454566 0.417091
26.9522 22.7431 25.52 -2.64239 0.532571 0.756104
26.681 23.914 22.9028 0.00367049 0.186943 -1.61674
26.1131 25.4874 25.2502 -1.89595 1.70907 0.483727
25.842 26.6584 22.633 0.660486 -0.454208 -0.932862
28.8668 24.6967 24.6111 -1.87055 -0.527537 0.164163
17.581 29.0306 24.5501 -0.0468857 0.834095 0.715235
20.6058 27.0689 26.5283 -1.50867 1.7007 -0.17933
20.3347 28.2398 23.9111 -1.95296 0.303805 0.455764
23.0883 27.4491 23.272 0.834237 0.22564 -2.11167
13.618 17.3659 27.6648 1.46129 2.03291 0.45974
16.2385 16.8144 28.7312 -1.50142 -0.637167 -0.808226
21.2084 16.8821 28.2466 0.851852 0.13401 -0.173953
18.859 16.2628 29.7975 -0.101217 0.484609 0.0376242
18.5879 17.4337 27.1803 -1.49107 -0.438273 0.369255
20.5117 14.1168 28.6662 -0.548648 0.211344 1.91852
17.8912 14.6684 27.5998 -0.396468 1.94884 -0.03754
21.4795 15.7112 30.8638 1.03259 0.35412 0.855066
23.3941 17.6648 29.9549 -0.0258834 0.227106 1.12587
23.3146 14.9833 28.7635 -0.227776 0.154324 1.51538
25.2291 16.937 27.8546 0.00574329 -0.457741 -0.605421
12.7789 20.1103 27.395 0.585982 0.737377 -0.762154
15.3994 19.5587 28.4613 -1.25649 -0.24337 0.481874
17.1809 21.7515 29.2579 -0.680308 1.42394 -0.803736
14.5604 22.3031 28.1915 0.311407 -0.0622723 -0.0373438
20.6405 18.4556 30.594 0.821358 -0.838863 1.01429
20.3693 19.6265 27.9768 -0.101473 -0.581307 0.387614
18.02 19.0071 29.5277 0.368811 0.463534 1.44617
17.7488 20.1781 26.9105 -0.242587 -0.67567 -0.763636
19.8014 21.1999 30.3242 1.67659 -0.614111 -0.455759
19.5303 22.3709 27.707 0.123867 -1.41593 0.670591
23.123 18.8358 27.3377 -0.534848 -1.29361 -0.139359
22.5551 20.4092 29.6851 0.90836 -0.2356 0.112345
22.2839 21.5802 27.0679 0.17791 1.17987 0.643289
24.4697 22.3628 28.7763 -0.25382 -1.43702 1.31216
25.3087 19.6185 29.0461 -1.66763 0.863313 1.36353
27.2233 21.5721 28.1372 0.449337 0.169052 0.194824
27.1437 18.8906 26.9457 -0.510035 1.65795 -0.150914
16.3418 24.4959 28.988 -0.632633 2.46407 0.556651
18.9623 23.9443 30.0544 1.20605 1.87562 -0.51726
18.6912 25.1153 27.4372 -0.172002 -1.77508 -0.337346
21.4449 24.3245 26.7981 0.673583 -0.331736 0.311571
18.1233 26.6887 29.7845 -2.82123 -0.697611 0.358812
20.8769 25.8979 29.1455 2.0904 1.15061 0.153764
21.716 23.1536 29.4153 -0.0449268 1.63022 1.99544
23.6306 25.1072 28.5064 1.20989 -0.249142 -0.259802
26.3842 24.3165 27.8674 -0.0275092 0.914765 -0.795392
29.1379 23.5257 27.2283 1.0976 0.436107 0.833745
17.8521 27.8596 27.1673 -0.0582959 2.64969 -0.382098
ITEM: TIMESTEP
1000
ITEM: NUMBER OF ATOMS
309
ITEM: BOX BOUNDS ss ss ss
1.0378133585544925e+01 2.8690995930358017e+01
1.0178821181164171e+01 3.0859829369040021e+01
1.0316868957363079e+01 3.0560135385327214e+01
ITEM: ATOMS x y z vx vy vz
17.6053 15.8002 13.9753 -0.14263 -1.36 0.18425
17.3533 17.0964 11.3201 -0.230762 1.8386 -0.691539
16.6593 14.4519 11.8263 1.1947 1.42582 1.52262
14.9996 16.3418 12.8451 -0.940931 -0.974517 -0.458334
20.2033 16.7174 13.6693 1.64323 1.29847 -1.0767
19.9938 17.8535 11.1907 0.87373 0.61865 -0.503291
19.3632 15.0596 12.059 1.22573 1.0291 -0.434386
23.0115 17.4963 13.8522 -0.810578 -2.45416 -1.17449
24.9913 16.9934 11.8116 -2.58313 2.0487 1.43232
22.1132 16.0071 11.972 0.18827 0.170748 0.987994
27.5348 17.7571 12.5904 -0.35293 -0.123753 0.911961
13.4783 18.5509 14.0486 0.0363015 -0.273445 1.26059
16.3275 21.6209 11.9521 2.09499 -0.029112 0.519464
15.6214 18.9559 12.2576 -1.35213 0.124831 -1.46424
13.9142 21.1096 13.2537 -0.783738 0.972981 1.9936
18.7936 21.301 13.0314 1.0149 -0.903723 0.925946
18.6269 22.4506 10.5334 0.395966 0.125873 3.05913
20.7163 19.4188 13.3457 1.0482 2.10255 2.07851
20.7029 20.571 10.8845 0.265648 -0.183388 -0.216756
18.0891 18.5104 13.3791 1.8078 -1.41035 0.369928
17.8793 19.6313 10.8501 -0.299107 -0.574147 -2.23926
21.6082 22.0187 13.1272 -0.235415 -0.879009 0.834599
23.8037 20.116 13.53 0.756678 -0.314495 -0.12019
23.2919 21.1201 11.0455 -0.730534 -0.227124 -1.49047
22.631 18.4884 11.3741 0.435611 -0.901093 -0.538815
25.7802 22.1622 12.574 -1.26578 2.22726 -1.12418
25.6066 18.2714 14.2821 0.582481 0.953671 -2.95282
25.3549 19.5574 11.6903 -0.00253857 -1.67391 -1.76122
27.5645 20.2536 13.083 -0.966362 0.752302 0.255218
17.3377 23.3228 14.1306 1.02422 -1.0523 -1.20137
16.9827 24.4186 11.5982 0.00580052 -0.406283 0.958534
14.8262 23.8587 13.1014 0.234891 0.644348 -2.92361
16.5237 26.0866 13.8011 0.144625 -1.27374 0.0891519
19.5327 23.8776 12.7838 0.463545 -1.48604 -0.406636
19.2685 24.9579 10.1973 -0.87865 -1.22123 1.34514
18.73 26.5152 12.2671 0.138748 -2.38149 1.21635
21.4364 23.2216 10.5826 -0.20594 1.89413 2.10338
21.3767 25.8112 11.7885 -0.570809 -0.45567 1.21306
23.6911 26.3989 13.4903 0.581196 -0.400509 0.176319
23.6367 23.8136 12.2716 -0.177211 -0.182182 -0.166608
25.7583 24.4927 13.7317 -0.467797 -0.525271 -0.625251
20.9475 27.4693 14.0783 -0.844581 1.42111 -0.646427
17.3789 11.9681 16.8981 -0.32802 -0.468246 -1.97388
16.91 13.0044 14.3486 -0.416555 0.150542 2.17718
20.1505 12.6793 17.0284 1.79952 -0.415062 -0.534495
19.5965 13.7288 14.2883 1.84585 -0.805537 1.7309
22.6451 13.8 17.0774 1.62465 -1.33744 -1.15883
13.4895 17.3911 16.6766 -0.176061 0.545544 0.991215
16.1508 16.7187 17.5004 -0.301968 0.572429 -1.80629
15.8382 17.7677 14.8195 1.40133 -0.543386 2.14522
15.5028 14.0254 18.1024 -0.562997 1.81458 2.32388
15.4247 14.9469 15.4147 0.98298 2.15365 2.08632
21.1314 18.1955 16.1185 0.554269 0.348678 1.80429
18.5418 17.369 15.9699 0.702856 0.314235 -1.01164
20.4777 15.4031 16.3523 0.785526 0.83851 -0.383493
17.8199 14.4246 16.366 -0.950305 1.81119 1.00591
23.3417 16.2683 16.4824 -1.49383 -0.390133 2.00219
24.7257 15.4727 14.5178 -3.4215 1.29175 -1.88608
22.1927 14.6292 14.3819 -0.140027 0.733517 -0.253648
25.9993 17.0826 16.6855 -1.92339 -1.38316 1.89172
27.9061 15.1515 17.3731 -1.10073 0.241126 0.0517684
27.3171 15.9816 14.6802 -1.04281 -0.134299 0.237499
25.3398 14.1313 17.2784 -1.93469 -0.441439 -0.525236
12.9608 22.0078 17.3773 -0.309455 0.557196 -1.0223
11.9756 19.4444 17.7609 1.83565 -1.27205 -0.266339
11.8865 20.4988 15.1392 -0.747219 0.645989 -0.480781
17.6049 22.1132 16.6419 1.23476 -2.2745 0.444445
15.4182 21.4075 18.1535 1.76704 0.835277 0.73261
16.9099 19.3058 16.9424 0.431612 -0.162436 0.969648
16.3016 20.5124 14.3928 0.995724 1.07067 1.01149
14.3017 19.9399 16.0831 -0.521299 -0.215508 -0.141376
20.242 21.5824 18.0694 0.570076 -0.594964 3.67778
19.414 18.9518 18.4108 0.534369 2.1795 -0.678726
19.2178 20.0645 15.5886 0.79971 0.979879 2.70581
22.1132 19.6592 18.3773 -1.67056 1.3769 3.12619
21.9337 20.9317 15.745 -2.2784 -0.718819 1.63318
24.1593 21.6083 17.3779 -2.57487 1.97306 1.42708
23.9341 19.0062 16.2107 -0.876215 0.320715 1.79208
26.1701 19.6208 17.7849 0.819989 0.0685753 -0.907378
26.068 20.9228 15.2289 0.185034 0.41824 -0.518409
28.1386 21.4954 16.8963 0.485667 -1.49744 0.709954
27.9939 18.7623 15.6056 0.223437 0.548573 1.87583
12.7256 23.0878 14.5735 -2.63916 -0.948601 0.127811
10.5999 22.5551 16.2887 1.43618 -0.82859 -1.365
12.0721 24.7722 16.9175 0.279819 2.35582 3.08847
14.9469 22.7219 15.713 0.201195 0.741429 0.280933
16.6763 24.9631 16.3878 2.04913 -0.48323 -1.03917
14.5353 24.2311 17.8512 1.36098 -1.22438 1.14898
14.1868 25.5401 15.3311 0.206038 1.20156 -0.596011
19.8819 22.8008 15.3113 1.50513 -1.66974 2.83778
19.3266 24.2775 17.5067 0.568404 -0.222566 2.20808
19.176 25.4161 14.9994 -0.0395168 -2.35143 1.22125
21.2023 26.2441 16.495 0.683547 -2.11114 0.649799
22.0176 23.4896 16.8667 0.0771574 0.43744 1.75427
21.685 24.6089 14.1198 -0.624928 -0.00684743 0.494538
23.9842 25.3575 15.8916 0.547748 -0.162636 0.889355
23.8517 22.7696 14.7301 -0.812296 -1.86418 -0.506107
25.9109 26.096 17.5506 -0.258282 1.02861 0.110537
26.0057 23.5959 16.4693 0.363012 1.23205 1.0824
28.1415 24.3782 18.1717 -0.30535 -1.72085 0.137724
27.7708 25.4103 15.6689 -0.709394 -2.52638 -0.511208
27.7237 22.8282 14.2843 -1.56487 -1.41531 -1.3286
13.8023 26.9382 17.627 -2.45605 0.243382 0.0189303
16.0935 27.7137 16.0642 1.00029 -0.42233 -3.24472
18.5188 27.142 17.0834 -0.430016 1.27297 -2.95185
18.368 28.0936 14.421 0.543644 0.816894 -0.734296
17.7683 29.559 16.7998 0.751171 0.000419118 0.851271
20.4412 28.9436 16.1994 0.447457 -1.45494 -1.38888
23.2591 28.1368 15.6126 -0.591084 -2.15387 -1.70483
22.378 29.6114 18.0806 1.13006 1.19995 -0.57651
25.6796 27.2164 14.9633 -0.179191 1.33542 -0.496132
25.1272 28.9254 17.4462 -1.42189 -0.415568 0.566146
27.7304 27.9159 16.6711 -1.42451 0.714494 0.328035
17.4816 10.733 19.2907 1.54442 0.591253 0.903423
15.8539 12.6891 20.5255 -1.33147 1.56133 -1.16745
20.9796 12.9491 21.786 1.02233 1.63913 -0.847461
18.4425 12.3979 21.5489 0.660977 -0.495272 -0.141437
18.1131 13.3505 18.9102 1.20999 1.49682 -1.37208
20.4202 10.4973 22.2329 -0.101367 0.376643 1.16894
19.9846 11.2818 19.5771 1.47828 1.4676 0.261268
17.7712 9.68394 21.9362 -0.239628 3.49368 2.0771
23.2053 11.3262 22.3744 -0.254177 -0.973936 -1.41563
22.8699 12.4313 19.6651 -0.292245 0.215387 0.646803
28.505 13.1245 22.4098 -2.76457 -0.0201239 2.25931
25.9117 12.0569 22.4218 -1.52121 1.86987 0.105112
25.5637 13.1893 19.8395 -0.503941 -0.29439 -0.0881964
12.4705 18.0612 20.1915 0.252616 0.344998 0.122402
17.3293 17.0266 22.3838 0.260826 0.41079 -0.245014
16.4618 15.3149 20.2812 -1.07961 -0.121668 0.635502
14.8443 17.446 21.4727 -0.0830442 -0.589144 -0.709717
14.1789 14.8718 21.7699 0.0972356 0.388213 0.915554
14.0938 16.0984 19.2014 -1.49153 -1.23008 0.890005
19.7311 17.6559 20.7447 0.529523 3.43079 0.502171
18.9667 14.9262 21.3766 -0.546656 0.891921 -0.482394
18.7369 16.0154 18.6897 0.0754094 1.34156 -0.160004
20.798 14.2111 19.2905 0.497006 -0.405957 0.798918
24.5841 16.6057 21.5453 -3.52429 1.03217 -1.87313
24.2691 17.7642 18.8234 -1.93768 0.690089 0.563104
21.8019 15.8129 21.4806 -0.285109 2.57191 0.499786
21.4429 16.884 18.6096 -0.788316 1.00209 2.86826
24.0146 13.8599 21.9918 1.40621 0.663406 -1.18113
23.6473 15.0881 19.4263 0.374812 -0.243035 0.259352
26.4804 14.8284 21.8922 2.75125 -0.284534 1.95041
26.2884 15.8944 19.2949 -2.25054 0.296053 -0.797042
28.4624 16.6375 20.9698 -0.392485 1.73095 0.852195
28.402 17.8104 18.3218 0.887091 2.51897 0.471514
28.2354 14.1902 19.8822 0.641867 -1.49962 -0.0459511
13.1926 19.7153 22.5674 1.74268 0.248222 1.0661
12.9833 20.9899 19.8383 1.33241 -1.97843 2.68937
10.9258 20.1256 21.2593 -0.868047 0.872346 -0.0761703
10.5423 21.5912 19.0082 -0.342917 -0.103513 -0.961535
12.4076 22.3528 22.1104 1.82035 2.09386 0.16838
15.5216 20.2247 21.0481 1.85818 -0.234932 0.467379
17.1721 22.4764 21.8279 2.7735 -1.639 0.886645
17.126 18.1255 19.7172 3.08109 1.90417 0.0999624
14.6618 18.907 18.7306 1.48658 1.09203 0.0891653
20.3615 20.3279 20.5811 -0.280582 1.55394 -0.154147
18.1028 19.7897 22.0901 1.68471 1.25244 -1.67007
18.0037 20.8218 19.3611 3.01187 1.80122 1.47582
22.4946 21.128 22.0077 -1.32652 0.0145882 -1.57304
22.2271 22.3359 19.5526 -1.48507 -2.00711 0.565975
22.5283 18.6375 20.8936 -3.77772 2.24473 -1.04281
24.4747 20.4828 20.007 -4.02188 -0.489659 -0.067174
26.8173 21.2257 21.8217 -0.326872 -0.414942 0.601312
26.3935 22.5089 19.0181 -0.74423 0.863798 -3.18349
26.4512 18.3706 20.6787 0.729507 0.849631 -1.09554
28.6455 19.3064 22.2984 1.69922 -0.621133 0.692457
28.1059 20.3701 19.4402 2.29789 -1.06681 -0.523517
12.3866 23.7153 19.6012 0.400099 0.223971 -0.231605
13.9805 25.8212 20.3009 0.269477 -0.542368 0.0681079
17.0497 23.6471 18.987 0.782794 -0.250022 0.382258
14.8103 22.9674 20.5079 0.652417 1.1159 -0.8567
16.3145 25.1527 21.3149 -1.57246 0.3368 -0.413014
16.1907 26.4874 18.6089 0.758791 1.78599 0.0947074
19.5017 23.1757 20.251 1.91575 -3.99002 -1.33114
18.8114 24.7721 22.3362 1.01252 -1.41888 -0.13029
18.6958 25.8339 19.7226 2.12342 -2.59896 0.391647
20.6839 26.5879 21.5043 0.536265 0.29316 -0.359139
21.794 23.9854 21.8255 -0.185446 -4.06751 -0.0935006
21.4453 25.0261 19.202 -2.30809 -0.672518 1.03741
24.5617 23.1339 21.1648 -1.91996 -1.07442 -0.011661
24.2006 24.2485 18.4733 -0.892231 0.71725 1.17343
23.6077 26.0208 20.7154 -0.454685 -0.332288 -0.259169
26.345 25.0752 20.1216 0.877991 -0.209914 -0.409063
28.1498 26.0151 21.8757 0.504987 1.0871 -0.112254
28.4578 23.1282 20.7416 1.45752 -0.523594 0.444528
15.702 27.9412 20.7906 0.222893 -2.50092 0.290961
15.5382 29.1078 18.3003 -1.56615 -1.26661 -1.09544
17.4097 29.9555 21.5989 -2.36643 -0.482916 0.023264
17.2435 30.9863 19.1251 0.451764 -1.36735 -0.31878
17.9159 27.4381 22.3095 -0.26158 -0.143785 -0.110187
18.0964 28.3482 19.4551 -1.27694 0.524846 1.48406
20.7541 27.7971 18.8474 1.98882 2.621 0.53577
20.2226 29.3286 21.2175 -0.264839 -0.381965 -2.10686
19.8917 30.4022 18.5861 0.467181 -1.55638 0.106576
23.4978 27.0675 18.1589 -0.587967 0.65174 -2.06834
22.559 28.4968 20.6976 0.324313 1.04521 2.09881
25.5141 27.8203 19.9428 -4.19809 0.535655 1.21178
28.0501 26.8021 19.2676 -0.022847 -1.01444 0.651901
16.9771 12.8647 25.4737 -0.619771 0.703402 0.329794
16.0229 11.5949 23.022 0.0139148 -0.76995 -1.64521
14.3809 13.7854 24.3117 0.148588 -0.765121 -1.46101
19.4811 12.5743 26.4934 0.395294 -2.40879 0.383492
19.1775 13.6692 23.8828 -0.156021 -0.51561 1.91784
21.408 11.8666 24.4122 0.346018 2.68563 0.784775
18.518 11.147 24.2278 -0.501407 -0.140419 1.39598
22.3385 13.5864 26.4332 0.298743 1.01542 0.253286
24.2046 12.7452 24.5404 0.121953 -0.471294 1.2765
26.7951 13.7231 24.5736 0.193024 -0.245403 -0.83544
11.3033 18.0497 26.4706 0.655849 1.59119 -0.699874
12.9129 15.7574 25.4223 -0.617825 -0.657431 0.378967
12.4751 17.1665 22.8519 1.2895 -1.02171 -1.34623
15.9611 17.9112 26.2205 -0.496596 0.49839 1.29013
16.6241 14.1907 22.8359 -0.430823 0.114412 -1.11169
15.2001 15.266 26.5821 -0.970415 -0.472935 2.07446
14.9566 16.3367 24.0282 0.975987 -0.150688 -1.5748
20.8574 18.0022 25.5597 -0.518483 0.158379 -3.26784
20.1692 15.2687 26.0944 2.38733 0.231979 0.829453
19.9785 16.433 23.518 -1.06294 2.12604 -2.21043
17.4755 15.6476 25.0259 -0.0599679 -0.562913 -1.29267
23.0872 16.2219 26.1535 -0.159405 1.29831 0.0375417
22.7423 17.3791 23.6001 -0.804031 0.354641 -2.81185
25.0546 18.2064 25.2655 -0.380783 0.674194 -0.886211
25.1428 14.396 26.7199 0.367478 -1.63033 1.86802
24.9296 15.4229 24.237 -0.425364 -0.228957 0.560858
22.1118 14.5227 23.9578 1.51573 2.30311 -0.294196
27.145 16.2188 25.6986 1.01648 -0.414677 1.8073
26.8244 17.369 23.3038 0.0168702 1.47013 -0.226873
28.6401 15.5586 23.5666 -0.0997359 1.41956 1.65061
13.557 18.5628 25.1442 0.831166 -1.37222 -0.704106
10.9433 19.0654 24.0714 0.186572 0.23494 -0.0206775
12.5663 21.2286 24.8257 0.278056 1.09559 -1.6788
15.7128 18.9922 23.6722 2.12184 -0.765986 -2.0182
17.5651 21.3762 24.3668 0.363241 -0.786604 -1.23216
15.1567 20.6132 25.8415 -0.397054 -0.410325 0.0439749
15.0073 21.7962 23.3864 1.00805 -0.203723 0.206452
20.5841 19.1635 22.865 -1.41806 0.758784 -4.13838
18.381 18.5879 24.7199 1.06414 0.338563 -1.71537
20.1086 20.6204 25.3201 0.67598 0.351203 -1.72818
19.8295 21.9631 22.8573 1.67231 -0.629682 -2.59691
22.6471 19.9364 24.5944 -0.584319 -0.239921 -2.09631
25.069 20.8078 26.4789 -0.121447 -1.00694 -0.310368
24.6293 22.0188 23.8124 -0.727949 -0.961599 -0.483319
24.5932 19.3399 22.6967 -2.2827 0.847522 -2.07372
26.9202 20.0979 24.3534 1.49676 -0.236012 0.36284
28.9182 20.8097 26.096 -0.732502 -0.996351 -1.02835
28.8899 22.1765 23.4475 1.17426 -1.47114 -1.10179
28.7899 18.3947 24.8458 1.59238 -0.574541 0.0889275
16.7027 22.8504 26.8308 2.61757 -0.654328 -0.696837
16.6087 23.9614 24.1978 0.77623 -0.745188 0.451267
14.2186 23.2277 25.4741 -0.0172564 1.17585 -0.545874
14.1005 24.3354 22.934 0.151442 2.06092 0.661465
15.9464 25.6694 26.3014 0.511609 -3.00622 -0.87028
15.6202 26.5589 23.724 -0.658707 -1.26057 0.262154
19.2246 23.3123 25.1519 1.2715 -0.569085 -1.30384
18.2961 25.9729 24.8061 -2.26427 -0.403394 -1.4378
21.0429 25.4163 24.2618 1.27774 -0.546969 -0.309263
22.0931 22.8563 24.4588 -0.664315 -0.235241 -1.08428
24.3681 23.4851 26.2062 0.137765 -0.263201 1.17705
23.8931 24.6425 23.5166 -1.12906 0.109067 -0.21159
23.2663 25.9121 25.8536 0.518401 -1.02599 1.06032
26.8367 22.6382 25.4218 -1.09367 -1.39989 -1.20238
26.6307 23.9289 22.7374 -0.422504 0.792245 -1.43868
26.1493 25.2823 25.0617 -3.58523 -0.688181 -1.69938
25.4866 26.5699 22.5613 -1.76034 -0.982465 -0.169764
28.6274 24.5251 24.6772 0.300675 -0.182575 -0.400629
17.4408 28.475 24.6688 0.0838756 -0.299487 0.827322
20.309 26.8316 26.5458 0.895895 -1.048 -0.298897
20.2302 28.0136 23.962 2.85587 -0.625011 0.523863
22.8111 27.2027 23.2672 -0.733295 0.700546 0.258298
13.98 17.3342 27.7394 1.80638 -2.03943 0.185814
16.4522 16.644 28.6907 -1.72318 -0.505021 1.71287