ITEM: TIMESTEP
0
ITEM: NUMBER OF ATOMS
318
ITEM: BOX BOUNDS ss ss ss
9.3477143252282406e+00 3.0841422009969161e+01
9.1872774758577140e+00 3.1573772688517831e+01
1.1230708865418437e+01 2.9559291399941468e+01
ITEM: ATOMS x y z vx vy vz
16.9303 12.2611 15.5302 -0.0403495 0.976321 -0.861943
16.6592 13.4321 12.913 -1.90324 1.74064 0.399047
14.3098 12.8127 14.4639 -0.605969 -0.990718 -0.190526
19.7332 13.1276 15.6275 2.47764 -0.410795 0.329884
21.5682 12.3998 13.5272 -3.43257 -1.10357 0.282326
18.7653 11.5333 13.4299 0.405073 -1.60878 0.46009
24.371 13.2663 13.6245 0.247388 -0.134939 1.1601
13.3538 17.7239 15.1756 -0.768799 0.0168878 0.247334
12.6571 14.9586 15.5952 1.56827 -0.650158 2.2287
17.627 15.0264 15.1106 1.21962 0.064926 1.70855
17.3559 16.1974 12.4934 0.094824 0.529597 -1.04713
15.0065 15.578 14.0443 1.09365 0.491261 0.755261
18.3237 17.7917 14.6911 -1.04261 0.192322 0.401157
20.4299 15.8929 15.208 -0.530312 1.66994 -0.180918
20.1587 17.0639 12.5908 -0.344216 -0.611599 0.245713
19.462 14.2986 13.0103 0.82119 0.24008 -2.1954
26.0356 17.626 15.4026 1.65038 -1.0442 0.565719
23.2327 16.7595 15.3053 -2.62541 0.512741 0.671331
22.9616 17.9304 12.6881 0.000593695 0.1436 -1.69893
25.0677 16.0316 13.2049 0.0437884 0.13263 0.946505
22.536 13.9942 15.7248 -1.93541 0.317724 0.354559
22.2649 15.1651 13.1076 0.0256546 0.744087 -0.986769
27.8706 16.8981 13.3023 -2.75906 -0.648589 0.267974
30.0563 17.6808 15.0106 0.0710506 2.05762 -1.02451
27.1739 14.1328 13.7218 0.517548 -0.109221 0.78248
16.3999 21.1086 13.2052 1.31251 -1.20548 -2.25419
15.7032 18.3433 13.6248 -0.522919 -2.45975 -2.58678
14.0505 20.4893 14.7561 0.440205 0.285265 -0.865441
21.8233 21.4236 14.3689 1.07813 -0.562069 -1.24163
21.5522 22.5945 11.7517 0.775884 1.9875 -0.413914
19.0204 20.5571 14.2715 -0.553033 0.304955 1.96599
18.7493 21.728 11.6543 -0.362073 -0.828692 -0.355541
21.1266 18.6583 14.7884 0.841251 0.0927667 0.849339
20.8554 19.8292 12.1712 3.48275 -0.709926 0.312482
18.0526 18.9627 12.0739 -0.91608 -2.12853 -0.401355
23.9294 19.5248 14.8857 0.616618 -0.694314 2.22584
23.6583 20.6957 12.2685 0.00696243 -0.441353 -0.614808
25.844 21.4784 13.9769 -0.979517 0.540739 -1.46263
25.7644 18.7969 12.7854 -2.93383 0.585175 -1.80051
28.0298 22.2611 15.6852 -1.35591 0.975304 -1.34605
27.9502 19.5796 14.4937 -0.672142 0.39472 1.52332
17.3678 22.703 15.4029 0.0567857 -0.167686 1.07413
17.0966 23.874 12.7857 0.39293 0.0340742 -0.460655
14.7473 23.2546 14.3365 -0.57235 0.476215 -2.04227
16.5287 25.4474 15.133 -1.21663 -0.566746 -1.31806
19.7172 23.3224 13.852 1.04217 1.04536 0.24486
19.446 24.4933 11.2348 1.39847 0.510824 0.396163
18.8781 26.0668 13.5822 -0.799326 2.10591 -2.51723
21.9029 24.1051 15.5603 -2.82725 -1.825 -0.4222
21.6317 25.276 12.9431 -2.21416 -0.400015 -0.463618
21.0638 26.8494 15.2905 -0.855713 -0.180454 1.6547
23.8175 26.0587 14.6515 1.24705 0.502746 1.12793
23.7379 23.3772 13.46 -0.598347 1.41088 -0.666758
25.9236 24.1599 15.1683 1.08209 0.327933 -1.18162
17.2015 11.0902 18.1474 -1.09055 0.473493 0.35358
15.5488 13.2361 19.2787 4.36758 -0.964606 0.395367
14.8521 10.4708 19.6983 -1.12527 -1.09684 -0.863628
14.5809 11.6417 17.0811 0.702749 1.2863 1.20034
18.1693 12.6845 20.345 1.08761 2.42319 -0.735129
20.0043 11.9567 18.2447 1.20482 -0.181063 -0.332297
22.1104 10.0579 18.7616 -0.870766 -0.273623 1.406
21.8393 11.2288 16.1444 2.27051 1.65441 1.13824
19.3076 9.19136 18.6643 1.45902 1.6598 -1.70855
19.0365 10.3623 16.0471 1.05935 -0.688603 -0.256825
22.8072 12.8232 18.342 -1.48858 1.73217 -0.266059
24.9133 10.9244 18.8589 0.603803 -0.82519 -1.12316
24.6422 12.0954 16.2417 -1.31092 0.925141 1.76532
27.7161 11.7909 18.9562 1.06438 0.618085 0.117038
27.445 12.9619 16.339 -0.681193 0.583823 0.352023
13.625 16.553 17.7928 -1.01776 -1.37853 0.928921
12.9283 13.7877 18.2124 1.36284 0.0368385 3.45914
11.2756 15.9336 19.3437 -1.78221 0.319906 -1.62533
11.0045 17.1046 16.7265 -0.860344 -0.526654 2.14033
17.8982 13.8555 17.7278 -1.56057 -0.0809818 -3.30143
16.2455 16.0014 18.8592 2.96907 -0.697473 0.259255
15.9744 17.1724 16.242 0.362272 0.940958 0.112199
15.2777 14.407 16.6615 1.56125 0.393896 1.97965
21.6689 16.3164 20.0228 -0.306605 1.3877 0.97572
21.3977 17.4873 17.4056 0.588119 -0.511444 1.6434
18.866 15.4498 19.9255 -1.03814 -0.469117 1.86878
18.5949 16.6208 17.3083 -0.784902 0.0178157 0.364575
20.701 14.722 17.8252 1.18431 -1.06352 -0.852392
24.4717 17.1829 20.1201 -0.441683 -0.0743187 0.746416
26.3067 16.455 18.0198 -0.915169 -1.36381 -1.26991
23.5039 15.5885 17.9225 0.45384 0.176757 0.124108
25.61 13.6897 18.4393 -0.025358 0.844929 0.609653
25.3389 14.8607 15.8221 0.345684 0.391953 -2.67331
28.4924 17.2377 19.7281 1.06162 1.44574 0.841492
28.4128 14.5562 18.5367 2.65784 -0.941429 1.22457
28.1417 15.7272 15.9195 -1.40841 0.348996 -0.325176
30.5986 15.3389 20.245 -0.690149 -1.28508 -0.990284
30.3274 16.5099 17.6278 0.445652 -0.570509 1.22123
12.669 21.4643 18.5046 1.03773 0.451787 0.810161
10.3196 20.8449 20.0555 -0.902072 -1.76008 0.130267
10.0485 22.0159 17.4383 0.303497 0.143088 -0.119966
11.9723 18.6989 18.9242 -1.62787 0.414001 -1.25111
11.7012 19.8699 16.307 1.44664 -1.67073 1.35877
9.35179 19.2505 17.8578 -0.121379 0.81326 -1.63295
17.6389 21.5321 18.0201 0.736044 0.0203774 0.488946
15.2895 20.9127 19.5709 0.0450834 -0.21528 -0.461904
15.0184 22.0837 16.9537 -2.04582 -0.266815 -2.06656
16.9422 18.7667 18.4396 1.06237 -0.0872613 -0.155676
16.6711 19.9377 15.8224 -0.484249 0.205647 -0.166328
14.5928 18.1474 19.9905 -0.225349 -0.484746 1.0976
14.3217 19.3183 17.3733 -0.120297 -0.863606 1.37059
20.2594 20.9805 19.0864 -1.71819 1.34313 0.312887
19.9883 22.1514 16.4692 0.419941 0.500749 -1.15048
22.0944 20.2526 16.9861 -0.221689 0.206016 1.5307
19.5627 18.2152 19.5059 0.255181 -1.89494 0.0900292
19.2916 19.3861 16.8887 1.02593 1.58949 -1.94712
22.3656 19.0817 19.6033 -1.2487 0.339508 0.390875
24.2802 21.0353 18.6944 0.596846 -0.93353 0.880029
24.009 22.2063 16.0772 -1.60745 0.883775 1.31182
24.2006 18.3538 17.5029 -1.22516 -0.475248 -1.58393
26.3863 19.1365 19.2113 0.726992 -1.27768 0.245078
26.1152 20.3075 16.5941 0.674453 2.01704 -0.683117
28.3009 21.0902 18.3024 -0.668761 -2.15762 -1.7445
28.2213 18.4087 17.1109 -0.57631 2.49768 0.495868
30.4866 21.8728 20.0107 -0.468661 -2.40317 0.860835
30.407 19.1914 18.8193 0.661485 0.984062 -0.122081
30.1359 20.3623 16.2021 -1.6873 0.335552 0.402639
12.3979 22.6352 15.8874 -0.135485 2.35598 0.110406
11.8299 24.2087 18.2348 0.12169 0.426966 -0.789181
13.6114 26.4014 19.0313 -2.16556 0.924373 0.438013
9.48056 23.5893 19.7857 1.45613 -0.544502 -1.03964
17.071 23.1055 20.3675 0.197847 0.798551 -1.18007
16.7998 24.2764 17.7503 -1.22518 0.563046 0.430015
14.4505 23.6571 19.3011 -0.426721 -0.122428 2.81112
14.1793 24.828 16.6839 -0.35923 2.08186 0.0424615
16.2319 25.8499 20.0976 -1.00454 -0.309752 0.74769
15.9608 27.0208 17.4804 -0.317953 -1.51601 0.255104
19.4204 23.7248 18.8166 2.07244 -0.314665 0.420455
19.1492 24.8958 16.1994 0.872015 0.505331 -1.03183
22.174 22.9341 18.1775 -0.482608 -1.24761 -0.156672
18.5813 26.4692 18.5468 -1.809 1.99205 0.262457
21.335 25.6785 17.9077 0.0447782 -0.199867 -0.484128
24.3597 23.7168 19.8859 0.987961 -0.184686 0.072429
24.0886 24.8878 17.2687 0.2566 1.19728 0.589488
23.5207 26.4612 19.616 -0.562348 1.50317 -0.822126
26.2743 25.6704 18.977 -0.760958 0.348362 -0.0721558
26.0032 26.8414 16.3598 1.3249 1.92555 -0.578747
26.1947 22.989 17.7855 -0.272806 -0.767578 2.51213
28.3805 23.7716 19.4939 1.65092 -1.01371 0.588941
28.1093 24.9426 16.8767 -1.00637 -0.715548 -0.460582
30.2951 25.7253 18.585 0.874387 0.0912592 -0.272002
30.2155 23.0438 17.3935 0.38561 1.10575 -3.32494
17.7422 29.2136 18.2769 0.0203622 0.761976 1.27266
15.3928 28.5942 19.8278 -0.566764 0.574582 1.91953
18.3102 27.6402 15.9296 0.604157 2.3581 -3.00387
20.767 27.2519 20.2551 -2.09332 1.41148 -0.344159
20.4959 28.4229 17.6379 0.860843 -0.164401 0.0807816
19.928 29.9963 19.9853 -1.05623 0.710596 -1.04864
23.2495 27.6321 16.9988 -0.783715 -0.482799 -0.725133
22.6816 29.2055 19.3462 -0.638885 1.30442 0.380004
25.4353 28.4148 18.7072 0.715617 -0.211118 0.830221
28.1889 27.6241 18.0681 -0.285244 0.457988 0.21525
13.1994 12.6167 20.8296 0.119346 -0.214684 1.41815
16.7878 13.6595 24.0936 -0.502699 -2.2995 -0.967085
17.4726 9.9192 20.7646 1.05624 0.531732 2.23631
15.8199 12.0651 21.8959 0.648894 -0.423582 -1.01695
21.2433 12.3801 23.0596 -1.16325 0.323039 -0.658231
20.9721 13.551 20.4424 0.441057 -1.12163 1.00577
18.4404 11.5136 22.9622 -1.71769 0.0907917 -1.10162
20.2754 10.7857 20.8619 0.874387 1.59121 0.241928
24.0461 13.2466 23.1569 0.99218 -0.481585 0.646557
25.8811 12.5188 21.0565 -0.0316499 2.6757 -0.470583
23.0783 11.6522 20.9592 2.09513 1.21068 0.0760187
28.684 13.3853 21.1539 0.387766 0.501413 -1.35576
12.5146 16.357 24.1586 0.0462313 0.186168 0.645923
12.2434 17.528 21.5414 1.66741 1.66785 0.0208065
11.5467 14.7627 21.9609 0.13355 0.18294 -1.18548
9.89407 16.9086 23.0922 -0.426591 0.699076 -0.0137276
9.62293 18.0796 20.475 -2.27517 0.288228 -0.681481
17.4845 16.4248 23.674 0.00261388 -0.751971 1.28723
17.2133 17.5958 21.0568 0.669834 0.719459 1.04569
16.5166 14.8305 21.4764 -0.579023 0.684456 -1.57808
14.864 16.9764 22.6077 -0.46211 -2.54875 1.15428
14.1673 14.2111 23.0272 -1.84746 -0.480138 0.0820311
13.8961 15.382 20.41 -1.34913 0.685441 -1.37153
20.105 15.8733 24.7404 1.63329 -0.66267 -0.0850499
19.8339 17.0442 22.1232 2.37135 -1.10294 -0.648567
21.94 15.1454 22.64 -1.28836 -0.277312 2.01237
19.1371 14.2789 22.5427 1.42348 0.991112 0.33226
22.9078 16.7398 24.8377 -1.8002 -1.20016 1.08032
22.6367 17.9107 22.2205 1.09332 -0.432361 0.213372
24.7428 16.0119 22.7373 -0.3987 -0.71676 -1.5474
23.775 14.4176 20.5397 0.549969 1.96375 -1.96981
26.9286 16.7946 24.4457 0.0112022 1.65378 1.9163
26.6574 17.9656 21.8285 0.720583 -0.322523 0.231109
26.849 14.1131 23.2542 -0.826429 -0.320494 0.70694
26.5778 15.2841 20.637 -0.23054 -1.42029 1.2322
28.7636 16.0668 22.3453 1.2824 0.021797 -0.225111
30.6782 18.0204 21.4365 -1.23905 0.899868 1.53016
13.2113 19.1224 23.739 -0.295736 -1.11789 0.744177
12.9402 20.2933 21.1218 -0.374384 -0.30031 0.169138
10.5908 19.674 22.6727 0.816235 1.97015 0.544778
12.3722 21.8668 23.4692 1.83267 1.13836 1.57961
9.7517 22.4183 22.4029 -0.140676 0.832253 1.08781
17.91 20.3611 20.6373 0.79161 -0.210259 -0.222844
15.8318 18.5708 24.8054 -0.775319 -0.0292446 -1.90596
15.5607 19.7417 22.1882 1.52707 0.109572 -0.977959
17.3421 21.9345 22.9847 -1.31502 -0.526943 -2.03861
14.9927 21.3152 24.5355 0.498581 -0.639835 0.706705
14.7216 22.4861 21.9183 -1.12099 -0.533655 0.267851
20.8017 18.6386 24.3208 1.81166 -0.74832 -0.435561
20.5306 19.8095 21.7036 -0.219622 1.64547 -1.65173
18.1812 19.1902 23.2545 -1.4596 -0.331298 0.404281
19.9626 21.3829 24.051 0.886832 -0.721542 1.0163
19.6915 22.5539 21.4338 -0.0358192 -0.49092 0.382301
22.7163 20.5922 23.4119 -1.48069 -0.669381 -2.27247
22.4452 21.7632 20.7947 0.0285242 0.289952 1.11225
24.6309 22.5458 22.5031 0.256041 -0.230242 0.745966
24.8224 18.6934 23.9288 0.803497 1.43367 -0.181111
24.5513 19.8644 21.3116 -0.292939 -0.475824 -0.0883028
26.4659 21.818 20.4027 1.51724 -1.69518 0.812061
26.737 20.6471 23.0199 2.17361 -1.31816 2.13506
28.9228 21.4297 24.7283 0.648527 0.785836 -0.753101
28.6516 22.6007 22.1111 1.50376 2.01873 1.00908
28.8432 18.7483 23.5368 -2.3567 -2.15819 1.0626
28.572 19.9192 20.9196 0.368942 -0.0118037 -0.0635792
30.7578 20.7019 22.6279 -1.49543 -0.616715 0.692699
12.1011 23.0377 20.852 1.45947 -0.480915 -2.13061
11.5331 24.6111 23.1994 0.662454 0.0182497 1.73394
11.262 25.7821 20.5822 -0.0418579 -0.323259 -0.719976
13.3146 26.8039 23.9959 0.241351 1.32821 0.766063
16.5031 24.6789 22.7148 -0.760378 -0.589133 0.17326
14.1537 24.0595 24.2657 -1.49326 0.285049 -1.30055
13.8825 25.2305 21.6485 1.14182 0.868734 -0.43648
19.1236 24.1273 23.7812 -0.157237 -0.572571 -0.752996
18.8524 25.2983 21.164 -1.64344 0.0902334 -1.13057
21.8772 23.3366 23.1421 1.76771 -0.512622 -0.477464
21.6061 24.5075 20.5249 0.218735 -1.33537 0.631624
18.2845 26.8717 23.5114 -0.0836946 -0.976438 -2.11783
21.0382 26.081 22.8723 -1.14686 -0.127951 0.497663
24.0629 24.1193 24.8505 0.608493 0.586434 -1.66617
23.7918 25.2902 22.2332 -0.930718 -1.34493 1.45655
23.2239 26.8636 24.5806 0.761506 -0.606744 0.865589
25.9775 26.0729 23.9416 -0.711786 -2.29747 -0.427266
26.8166 23.3285 24.2114 0.0776014 -1.8362 -0.722057
26.5455 24.4995 21.5942 -0.498292 0.452652 0.81195
28.7312 25.2822 23.3025 -1.32004 -1.39806 -0.653694
28.4601 26.4531 20.6853 -1.70466 -1.19945 0.599643
30.8373 23.3834 23.8194 0.0780868 -2.75405 1.15303
30.5662 24.5543 21.2022 0.911123 -0.92757 -1.13717
13.0435 27.9749 21.3787 -1.06346 -1.02251 -0.555784
15.664 27.4233 22.445 -0.943821 0.960942 1.64054
17.4454 29.6161 23.2415 -0.323793 0.261405 -0.64634
17.1743 30.787 20.6243 0.256654 0.510903 -0.141026
15.0961 28.9967 24.7924 1.06069 -1.91132 -1.42503
14.8249 30.1676 22.1752 -0.357708 -0.148168 -1.97102
18.0134 28.0426 20.8941 -1.34277 -0.7958 -0.808624
20.1991 28.8253 22.6025 -0.620449 -0.260407 0.52166
19.6312 30.3987 24.9499 -1.24343 2.56538 0.778453
19.36 31.5697 22.3327 0.895645 0.302057 -1.94515
22.1137 30.779 21.6936 -1.13102 -1.89382 -1.39416
22.9527 28.0346 21.9634 -2.35853 1.27932 0.456087
25.7064 27.2439 21.3244 1.44778 -0.350719 0.266049
22.3848 29.608 24.3108 0.888176 -1.28364 -0.986388
25.1385 28.8173 23.6718 1.45394 0.590385 -0.123062
24.8673 29.9882 21.0546 0.695635 -2.29954 1.33967
27.8921 28.0265 23.0327 -0.41975 -2.35831 -1.0092
27.621 29.1975 20.4155 1.88079 -0.0487002 -0.0337137
19.4083 13.1079 25.1599 0.293841 0.716873 0.337186
13.4824 17.9514 26.3562 -1.01938 0.0852226 1.26091
16.1029 17.3998 27.4226 -0.059577 0.922339 -0.959932
17.7556 15.2539 26.2912 0.950633 1.00737 -0.233311
15.1351 15.8054 25.2249 -0.595816 -0.808133 -0.586209
21.344 16.2967 29.5552 1.05398 0.453566 0.881418
21.0728 17.4676 26.938 0.869212 0.209231 -0.152638
18.7235 16.8482 28.4889 -1.37616 1.22409 0.821598
18.4523 18.0192 25.8717 -0.0725781 0.611824 0.0854045
20.3761 14.7023 27.3576 0.68226 -0.929961 1.63361
22.2111 13.9745 25.2572 -0.417632 -1.08439 0.702932
23.179 15.5688 27.4549 -1.91185 0.363935 -0.354066
25.0936 17.5225 26.546 -0.373932 -0.573571 -1.62578
25.014 14.841 25.3545 0.576332 0.168815 -1.41802
10.8619 18.503 25.2899 0.343214 0.879053 0.584258
12.6434 20.6958 26.0864 0.313719 -0.486927 -1.28389
10.0228 21.2474 25.0201 1.86722 -0.0828044 -0.569723
17.8844 19.5926 28.2191 -1.44594 -0.491412 -0.746225
17.6133 20.7636 25.6019 0.945651 -1.46767 -1.83327
15.2639 20.1442 27.1527 -1.08914 -1.19802 0.975868
17.0453 22.337 27.9492 -0.142652 -0.873166 0.077368
20.5049 19.041 29.2854 -1.06096 1.00919 -1.06219
20.2338 20.212 26.6682 1.03032 -0.164796 0.69968
19.6658 21.7854 29.0156 0.576916 0.189473 1.68132
22.1484 22.1656 25.7593 -0.983693 -0.0578484 0.880088
23.2586 18.2503 28.6463 -0.650665 -0.013641 -0.301173
22.9874 19.4213 26.0291 0.982547 0.509343 1.01956
22.4195 20.9947 28.3765 0.228613 1.2054 0.418127
25.1732 20.2039 27.7375 0.243922 -0.633742 -0.297166
24.902 21.3749 25.1203 0.229148 0.836699 1.17675
27.0877 22.1576 26.8286 -1.49256 -1.38321 0.0688932
27.0082 19.4761 25.6371 -0.0861715 -1.73346 -0.409433
11.8043 23.4402 25.8166 1.99968 -1.48976 -1.8071
13.5857 25.633 26.6131 0.0934966 -0.466696 -0.976946
16.7742 23.5079 25.332 -1.02704 -0.825166 1.36231
14.4248 22.8886 26.8829 1.41823 0.147772 -1.30622
16.2063 25.0814 27.6794 0.175473 0.253188 0.587694
15.9351 26.2523 25.0622 0.707023 -0.823779 -0.764504
19.3947 22.9564 26.3984 0.455747 0.585645 1.45515
18.8268 24.5298 28.7458 -0.0246603 -1.65987 -0.367408
18.5556 25.7007 26.1286 1.54391 2.16215 0.517128
21.5804 23.739 28.1067 0.0212915 -0.309679 1.94329
21.3093 24.91 25.4895 0.853898 0.479915 0.796179
20.7414 26.4834 27.8369 1.04173 -1.21965 -0.238957
24.3341 22.9483 27.4677 -0.0399035 -1.28876 -0.862897
23.495 25.6927 27.1978 0.15815 -0.936745 -0.446721
26.2487 24.902 26.5588 0.207709 1.56474 -0.635462
29.0023 24.1112 25.9197 0.111076 -1.04798 0.538612
28.1633 26.8556 25.6499 0.497853 -0.156117 0.15786
17.7166 28.4451 25.8587 -0.657904 2.25903 -0.642374
15.3672 27.8257 27.4096 -0.0893826 2.0818 1.1298
17.9877 27.2742 28.4759 -0.14744 -1.28325 -2.20446
20.4702 27.6544 25.2197 -0.374416 -0.597443 1.69558
19.9023 29.2278 27.5671 0.975863 0.757037 0.062338
22.656 28.4371 26.928 -0.283124 2.3749 0.820395
25.4096 27.6463 26.289 0.985883 -0.0603244 1.79402
ITEM: TIMESTEP
1000
ITEM: NUMBER OF ATOMS
318
ITEM: BOX BOUNDS ss ss ss
9.3477143252282406e+00 3.0841422009969161e+01
9.1872774758577140e+00 3.1573772688517831e+01
1.1230708865418437e+01 2.9559291399941468e+01
ITEM: ATOMS x y z vx vy vz
16.9531 12.409 15.7921 1.0559 1.32683 -0.190524
16.7826 13.6737 13.2939 0.94264 1.33513 0.876096
14.4927 13.4807 14.8207 -0.682402 -1.10257 -0.62104
19.5953 13.4964 15.6617 0.0687054 0.77998 1.53898
21.4937 12.8163 13.7499 0.246681 -0.739796 -0.860217
18.9663 12.1404 13.6328 0.746906 -0.253201 -0.50912
24.0638 13.7203 13.8719 -2.65902 -1.59288 -1.66825
13.5521 17.8235 15.1247 0.296665 1.50391 -1.26983
13.0597 15.2616 15.7502 0.574972 0.686173 0.490774
17.629 15.2452 14.9537 1.35488 0.850057 1.7602
17.5314 16.4739 12.6284 -1.16995 1.08475 -0.421469
15.1722 15.8261 13.9566 -1.33821 -0.158439 0.385401
18.285 18.0776 14.6223 1.22202 0.0970751 0.0951865
20.4158 16.1568 15.0372 -0.505783 -0.954563 -0.950227
20.12 17.4226 12.5111 0.339331 1.23828 -0.774551
19.5067 14.7443 12.952 -0.764773 -0.13461 -0.53456
25.8617 17.8369 15.366 -1.59636 -1.73601 2.02141
23.0061 17.1959 15.2683 1.08633 -0.660382 0.462469
22.8635 18.1341 12.5521 -1.3918 -0.925267 -0.265413
24.8748 16.4589 13.1244 -0.560764 1.38726 -0.0453447
22.4237 14.5547 15.8409 0.733074 3.70184 -0.396905
22.2465 15.4902 12.9368 -0.729731 -2.38503 -0.240285
27.6751 17.2001 13.6512 1.93235 -0.718188 -0.736877
29.4798 18.0308 15.1614 0.488094 0.0791142 0.401538
26.7406 14.5354 13.9653 0.153849 -0.0875014 2.19828
16.1348 21.3993 12.7783 -1.70959 2.01699 -0.10032
15.7103 18.6483 13.304 1.36953 -1.98171 -0.5876
14.1607 20.7027 14.5188 -1.37456 -0.872711 -0.257919
21.7574 21.5758 13.9556 1.08552 0.534802 0.71188
21.477 22.6816 11.4653 -0.93479 -0.604358 -0.131021
18.8058 20.7957 14.0219 -0.251889 0.191787 -0.0552032
18.7833 21.8561 11.3777 1.6046 -0.716525 0.701551
21.1123 18.7848 14.5951 1.43038 -0.186946 -0.825443
20.9188 19.9033 11.956 0.403749 1.49773 -0.00332823
18.0743 19.28 12.022 0.878233 -2.71288 1.34752
23.9236 19.7346 14.6249 0.0620748 -1.61439 -0.231231
23.4563 20.939 12.1577 1.69931 -0.982892 1.3209
25.7466 21.6195 13.641 -0.895017 -1.26091 0.185251
25.4375 19.1006 12.7395 -1.09494 2.91912 -0.464294
27.7536 22.3377 15.7647 -1.27651 1.78294 -1.12935
27.6452 19.9585 14.3932 -1.29032 -0.478674 0.734805
17.2126 22.8379 15.167 0.256408 -0.478839 -0.756626
16.9392 24.0335 12.7639 -0.411591 -0.990027 0.30135
14.8771 23.3331 14.3074 0.0344943 0.696908 0.848668
16.392 25.7044 14.7849 1.50096 -0.148581 0.423426
19.5517 23.4438 13.6732 -0.598799 -0.806253 0.66717
19.3622 24.5095 11.2668 0.0660786 0.603383 1.28299
18.8107 26.2566 13.4144 -1.1853 -0.227175 2.91244
21.7897 24.1566 15.305 0.433533 0.895821 -0.650803
21.5948 25.3161 12.7804 1.53542 0.17233 -0.300976
21.0597 26.8412 14.8593 1.02396 -0.00642072 -0.867727
23.8653 25.8348 14.5257 -0.444929 0.894198 -0.554812
23.6983 23.4625 13.1313 0.627773 -0.19595 0.0351416
25.9091 24.2221 14.9904 1.40496 0.452404 -1.01959
17.1807 11.1044 18.2676 -0.0668339 0.711496 1.15848
15.9882 13.4897 19.3256 2.02084 3.48524 -2.87671
15.1103 11.0127 20.076 -1.87298 1.54591 0.0356844
14.6369 12.0211 17.405 -0.0425806 0.0384341 0.616434
18.3968 12.7039 20.5294 -0.564349 2.45378 -2.16998
20.0789 12.0462 18.4972 -0.640525 1.65414 -0.821125
22.0488 10.3994 18.7135 2.57963 -2.28108 0.292551
21.6608 11.696 16.2517 2.37293 -0.668535 0.996017
19.5457 9.60886 19.026 0.752837 0.422218 0.0515522
19.0872 10.8215 16.2979 -0.512059 -0.583939 0.0889413
22.696 13.1308 18.4075 -1.62667 2.58193 0.787588
24.6448 11.3161 19.0594 -2.34646 -0.573811 -1.32018
24.1928 12.3754 16.3496 -0.0732919 -1.04472 0.366257
27.2845 12.084 19.1361 -0.144078 -0.421702 -1.68282
26.777 13.2503 16.6028 -2.45062 -0.624256 0.64226
13.8548 16.8488 17.8848 2.88228 1.10461 0.847329
13.2809 14.083 18.1755 -1.11976 -0.0517521 2.18243
11.6509 16.0769 19.4954 0.695415 -1.28636 -0.818499
11.4745 17.3272 16.6654 0.0313793 -0.647037 -0.448997
18.0892 13.9995 17.8585 1.01091 1.57012 -0.529539
16.5281 16.1353 18.7939 -0.50779 -1.20567 2.40518
15.9873 17.4604 16.1023 1.51675 -0.60978 1.56747
15.6415 14.7369 16.7721 0.53752 0.277831 1.991
21.5356 16.5287 20.3195 -0.424916 0.604901 0.390656
21.3309 17.679 17.3882 -0.679408 1.04734 1.26151
18.8907 15.4933 20.0726 2.23007 0.743854 0.39211
18.4948 16.8065 17.1061 1.41034 0.310282 0.943649
20.532 14.985 18.0329 -2.13356 -0.819514 0.173006
24.3651 17.2431 20.2378 0.15753 1.1361 2.1596
26.2065 16.4412 18.1141 0.425892 0.108722 1.51529
23.21 15.8192 18.2209 2.35596 -0.282306 -1.5836
25.3124 13.832 18.68 -1.51845 2.51161 -2.15956
25.0473 15.2495 15.9227 -1.49691 0.966338 1.89542
28.0878 17.2885 19.8101 -1.67978 1.05742 -0.822806
28.2592 14.5075 18.5617 -1.91242 0.500469 -0.7494
28.045 15.9024 16.0968 0.447562 0.128271 1.42355
30.1577 15.506 20.3575 1.78518 -0.261931 0.303968
29.7088 16.828 17.7974 -0.192998 -0.0725463 1.64008
12.8549 21.4291 18.3646 -0.23928 -1.40413 2.10828
10.5301 20.7698 20.0441 2.18698 -0.445103 1.4698
10.4841 21.9787 17.5844 -0.663723 0.252788 0.477978
12.2567 18.8288 19.0487 0.615049 0.559416 2.24995
11.9504 20.0839 16.2172 0.687192 -0.744299 -0.470356
9.85262 19.1514 17.7365 -1.09541 -0.137598 -0.301078
17.6672 21.414 17.7292 1.55035 -1.18553 2.46412
15.5522 21.0712 19.3738 2.80361 -0.935434 -0.910242
15.0029 22.0574 16.7526 2.02843 0.427352 -0.222478
17.1462 18.8716 18.4256 1.02796 0.690416 -0.960394
16.558 20.0567 15.3889 0.651915 -1.51766 0.454227
15.0083 18.4538 19.8996 -0.27217 -0.519555 2.59595
14.5425 19.4617 17.167 0.653495 -0.553421 -0.262872
20.2321 21.0511 18.8173 -1.11489 -2.47685 1.66853
19.815 22.3261 16.175 0.334023 -0.615602 2.3509
22.0638 20.4349 16.7548 -1.38004 -1.26036 1.55493
19.6209 18.233 19.4548 -0.728259 -0.192679 -0.600428
19.3277 19.6251 16.5422 -0.983502 -0.66322 0.605651
22.4632 19.0917 19.5333 -1.51695 -0.42536 0.358447
24.0036 21.1475 18.5373 -2.27083 0.595146 -1.03199
24.0102 22.4124 15.719 0.485316 -0.702003 0.57593
24.1215 18.4413 17.3216 -0.861094 1.19579 0.343966
25.9804 19.1581 19.2016 1.61656 -2.3002 -1.07615
25.817 20.4992 16.3751 1.00375 0.0111771 2.05279
27.8184 21.0928 18.3848 -1.37604 0.770153 1.8675
27.7717 18.4892 17.1617 -0.831822 -0.200747 0.854871
29.7947 21.9735 20.0327 -0.77588 -2.44738 -0.198986
29.8984 19.4177 18.9723 0.819649 1.82119 -0.303865
29.7192 20.4293 16.5529 2.92555 2.21353 1.56612
12.7565 22.8391 15.9258 -0.617219 -0.215358 0.150615
12.1918 24.2007 18.1863 0.52311 1.23108 1.25976
13.8615 26.4968 18.7759 -1.39009 0.502143 -0.567617
9.96849 23.3536 19.7394 -1.7698 -1.34772 -1.21182
17.3738 23.0058 20.1679 0.403944 -2.03726 -0.752058
16.6208 24.2754 17.4196 -0.620712 1.57888 -0.0667703
14.5754 23.5021 19.1858 -1.05262 -0.491649 2.02237
14.2127 25.0363 16.6472 0.537844 -0.0804687 -0.402501
16.2812 25.562 19.9105 -0.156429 0.528987 1.01055
16.1441 26.9908 17.3732 1.51178 0.0442094 -1.18731
19.2826 23.6792 18.5737 1.55101 -1.09458 0.941881
19.0722 25.049 15.9957 -0.359388 0.361928 0.849165
22.0685 22.9234 18.0072 -3.11374 -2.61976 2.04828
18.5676 26.2635 18.3555 1.63288 -0.318713 -1.16491
21.3923 25.6544 17.6966 2.29589 1.38194 1.473
24.3226 23.7606 19.8922 -1.09784 -2.78577 -1.06928
24.0287 24.7037 17.0086 0.999954 -1.56058 -1.43695
23.4176 26.3957 19.436 0.23838 -0.127761 1.11043
26.0565 25.5916 18.8498 0.0692814 -0.277789 2.43673
25.6967 26.6382 16.3792 -0.29789 0.220957 -1.64816
25.9223 22.9434 17.7466 -0.61928 1.14089 1.13489
27.8205 23.7203 19.5248 -1.97406 -2.33661 1.21382
27.8004 24.8776 16.7736 -0.679676 -0.287392 -1.82966
29.681 25.545 18.6923 1.30793 0.887939 -0.375416
29.6069 23.0598 17.6577 -0.955208 -0.74444 -0.785023
18.0304 28.861 17.9984 -0.560522 -0.139964 -1.53925
15.5576 28.5023 19.675 0.824222 -0.229945 -1.56903
18.5681 27.5502 15.7703 0.853421 -2.42748 0.330356
20.6682 27.0168 19.8553 0.123447 -1.00821 1.12626
20.595 28.2395 17.3597 2.34214 0.892484 -0.993364
19.9564 29.5317 19.7171 1.71528 -1.59776 -0.0382952
23.1884 27.2621 16.6996 -1.61793 0.0966339 -1.49062
22.676 28.9564 19.0694 -0.607065 -0.34021 -2.76554
25.1968 28.256 18.4701 -0.00870095 -0.258912 -0.320027
27.7433 27.3368 18.0921 -0.00452308 -0.1042 -1.26238
13.8904 13.1202 20.9962 -2.81002 0.517776 -0.479702
17.0278 13.8713 24.407 1.0341 -1.60607 -0.566974
17.5919 10.2017 20.9177 -0.220025 1.75191 0.446096
16.2479 12.2141 22.2313 0.854571 0.718477 -0.0695384
21.4569 12.3727 23.2804 1.12655 0.800623 -1.32821
21.0302 13.6266 20.7221 -0.136057 0.188229 -1.29507
18.6877 11.7751 23.0195 -0.143162 0.253085 0.298762
20.3421 10.9153 21.1667 1.19653 2.55228 0.85822
24.1793 13.1439 23.5637 2.03193 -0.867866 -0.119573
25.674 12.6823 21.3063 -1.96337 -0.00127727 0.666438
23.0149 11.8509 21.1743 -3.14882 -0.176008 0.501692
28.4407 13.7418 21.1047 0.191654 -0.294297 -0.631323
12.9762 16.4914 24.2771 -0.158398 -1.50098 -0.477623
12.713 17.6352 21.5317 0.607787 0.274028 -1.46052
12.1826 15.0167 22.1049 -0.00535025 -1.9878 -1.22606
10.6319 17.0268 23.0518 -0.360669 1.14592 0.746209
10.149 17.9338 20.4963 2.32362 0.1324 -0.506279
17.604 16.4184 23.7931 0.836337 -1.53159 -1.90557
17.3033 17.5959 21.0311 0.499432 0.800778 0.521938
16.831 14.8053 21.7862 -1.78532 0.360759 -0.78105
15.1581 17.0033 22.7359 -0.929578 -0.49038 -0.564399
14.5626 14.3175 23.2921 0.712803 0.000276502 2.80083
14.2418 15.6537 20.4564 0.122588 2.6462 -0.175207
20.1501 15.7658 25.135 -0.234831 0.850813 -0.739747
19.9397 17.0864 22.3647 -1.36143 1.90863 -3.38961
22.1561 14.8747 23.0504 -0.0581755 0.733846 -1.55014
19.3589 14.4409 22.8252 0.579332 1.15482 0.793006
22.9147 16.502 25.2183 0.869617 -0.0747697 -0.506403
22.6846 17.7283 22.4808 -2.76737 0.849269 -2.39085
24.7022 16.0259 22.9012 -0.0317433 -0.626421 -0.561799
23.6475 14.6046 20.7971 -0.559719 -2.36085 -1.01822
26.7405 16.718 24.7278 0.297899 0.245509 -0.275387
26.4611 17.8795 22.0498 1.60956 -0.057923 -1.26702
26.6732 14.3407 23.431 -1.06078 -0.318783 0.370339
26.3281 15.3687 20.8426 -1.44102 2.44385 -2.66516
28.6136 16.2726 22.3964 -2.14622 1.07272 1.64002
30.2821 18.1059 21.3091 -0.549493 1.37316 1.28684
13.5208 19.0878 23.9001 -0.0466289 1.98167 -2.0133
13.2328 20.388 20.9461 -0.324269 -0.393662 0.28801
10.7289 19.5675 22.5468 0.723933 1.24025 -1.29549
12.7357 21.7337 23.1876 0.374525 0.936689 -1.45544
10.0242 22.3987 22.3244 1.16433 -0.359137 -0.0432859
17.9546 20.2403 20.7696 1.17357 0.582627 0.297891
15.9641 18.6479 24.8575 -0.312718 0.752186 -1.44884
15.7338 19.7808 22.2236 0.587838 0.496177 -0.461854
17.5365 21.7555 23.09 0.798889 -0.554854 0.425299
15.1268 21.2178 24.6215 2.15489 -1.35007 -1.51503
15.044 22.3267 21.8285 -0.941675 -0.0963593 0.844351
20.8959 18.5134 24.6379 0.859244 0.442219 -0.992034
20.5931 19.7639 21.9602 0.854387 0.926872 -2.45476
18.1754 19.2568 23.4088 0.949024 0.350639 -1.68044
20.0819 21.3008 24.3487 -0.970457 0.494195 -3.21206
19.7058 22.6035 21.5453 0.82424 -1.73974 0.0712348
22.6785 20.5053 23.7085 -0.553691 0.386884 -1.21149
22.4496 21.8521 20.8764 -1.85906 -0.0220409 -1.0134
24.4579 22.4934 22.5986 0.094252 -0.514457 1.56039
24.7695 18.5728 24.3041 -0.0908553 0.297974 -0.0591713
24.2939 19.8135 21.5535 -2.07553 1.58968 0.244936
26.0192 21.7311 20.4341 1.70235 0.0919458 1.00646
26.575 20.4145 23.2548 0.163934 2.79325 -1.73684
28.7703 21.1236 24.8219 -2.51242 -0.797912 0.514605
28.1165 22.4142 22.3332 -0.975055 1.10409 -1.44535
28.6292 18.7583 23.563 1.38816 -1.21466 1.25246
28.1235 20.0732 20.9656 -1.24606 0.273194 -0.441624
30.2435 20.7905 22.4504 1.92857 -0.832236 -1.07641
12.2846 22.9163 20.8281 3.18475 -0.134757 2.9308
11.848 24.6618 22.9841 -0.282742 1.18233 -0.785079
11.6557 25.5365 20.3208 1.14638 0.629237 1.77144
13.5446 26.6748 23.8125 -1.98746 1.29864 -0.428087
16.8224 24.38 22.5076 1.22232 1.95723 -0.330854
14.4993 23.9916 24.0967 1.65402 -0.228063 -1.40522
14.1105 24.9875 21.5434 2.11173 -1.26162 0.887341
19.1565 24.056 23.8337 -1.24625 -1.60483 0.852043
18.8573 25.2266 20.9927 0.354787 -1.5525 -2.34498
21.9176 23.1929 23.1726 -0.685934 -2.26244 0.358433
21.5268 24.3968 20.2786 -0.247518 -3.29365 0.827185
18.3718 26.6108 23.3782 -1.33128 -1.31043 -0.832861
20.9082 25.785 22.6917 -0.639433 2.34523 1.88517
23.8524 23.7397 24.9826 -1.65726 0.0764789 -1.46124
23.5149 25.0636 22.0253 -0.573745 -0.734702 0.94076
23.0664 26.3339 24.455 1.3167 -2.359 -0.384846
25.6878 25.7537 24.0622 -2.21459 -0.282614 0.167993
26.5777 23.0887 24.4878 -0.395894 1.62234 -3.36571
26.2631 24.48 21.7662 0.315746 -0.116956 -0.547514
28.5135 25.1507 23.4858 -0.311465 0.547849 -0.964072
28.2662 26.406 20.7801 1.49346 -0.502249 1.33978
30.3601 23.0404 23.6476 -0.881425 -0.322483 -0.826738
29.9547 24.2957 21.3826 -0.0571784 0.230809 0.374645
13.2748 27.4858 21.3321 -0.832563 -1.2623 1.06581
15.863 27.0855 22.2453 0.664295 -2.078 0.21595
17.5161 29.5751 23.1397 0.233477 -1.56813 -0.497911
17.3884 30.3241 20.4702 0.46578 -0.689932 0.917733
15.1733 28.5571 24.649 0.00292926 -1.27608 0.312138
15.0003 29.5994 22.0387 -0.0298622 0.308291 0.138278
17.9619 27.8149 20.5971 0.94025 -1.65217 2.12867
20.0643 28.3896 22.3257 0.363131 -1.64872 2.27275
19.8099 29.8098 24.6534 -0.311258 -0.600873 0.577998
19.5632 30.9741 22.0223 -0.159931 2.86904 1.34399
22.0693 30.3699 21.4449 -0.0748491 1.833 -0.226075
22.7888 27.7612 21.8283 0.0100257 -3.30721 -0.277057
25.5869 26.9926 21.271 0.247904 -2.45643 1.23951
22.2478 29.378 24.063 2.41213 -1.32968 0.0793509
24.9166 28.398 23.485 -1.53585 1.15031 0.855291
24.5411 29.5142 20.9166 -0.346379 -0.1991 0.569239
27.466 27.5971 23.1562 -2.13483 1.52695 -0.947584
27.1743 29.0566 20.3629 -0.293555 0.232034 2.35849