ITEM: TIMESTEP
0
ITEM: NUMBER OF ATOMS
32
ITEM: BOX BOUNDS ss ss ss
1.5676921999491849e+01 2.5002161293236519e+01
1.5372236391806666e+01 2.5233468094465756e+01
1.6494274656469045e+01 2.4101186747422108e+01
ITEM: ATOMS x y z vx vy vz
15.6847 20.0349 18.951 -0.166295 1.15345 -1.57148
17.0751 17.9016 17.8825 0.739774 0.00727538 -1.02146
16.5943 15.3763 18.9499 -1.06211 -1.30674 -2.18771
19.2793 16.1775 18.2529 -2.00709 -0.722588 -0.29867
19.4055 18.3344 16.4984 -1.82041 -1.63676 1.36845
23.2952 19.9473 18.6037 -0.848854 2.50643 -2.84932
21.5288 17.8603 18.2389 -0.441264 -0.0337502 -0.247028
21.2087 15.942 20.2785 -2.57939 -2.04845 -0.326272
18.1177 20.4901 17.6673 0.0326507 -0.650459 1.35009
19.6378 22.5574 18.6465 2.06664 -0.603613 0.519707
17.5031 21.6927 20.1552 1.17772 -0.912604 0.403356
23.6784 24.3572 20.0747 0.819657 0.751996 0.828933
24.9219 22.0625 19.2794 0.681495 0.363122 0.382255
22.3859 22.6284 18.2569 0.18905 0.0680344 -0.586049
20.895 20.4749 17.3368 1.04726 0.457138 1.19326
21.0202 24.6756 19.669 -0.9706 -1.43852 -0.219535
18.1148 19.0259 22.1728 1.48164 0.828201 0.466979
18.5922 16.5773 20.9131 -0.982123 1.03298 1.13802
16.1919 17.7758 20.5598 0.333801 -1.14444 0.726946
15.681 20.2705 21.7799 -1.94414 -0.191219 -0.122402
23.1316 17.8929 20.5702 1.93899 0.760038 0.455102
22.802 19.8821 22.5181 -1.38547 -0.193291 0.424474
20.6893 18.1319 21.9434 1.29772 -0.310043 -0.148958
24.9981 19.8672 20.9267 1.3066 0.22135 0.672214
17.664 21.7375 23.0139 1.02749 -0.132521 -0.0185235
19.783 23.2101 24.0971 1.95559 -0.938391 -0.454664
20.2152 20.5792 23.1164 -1.01484 1.04254 -1.11284
19.442 23.2219 21.3715 0.784913 -1.01646 1.17778
24.2355 22.3717 22.0609 -1.9756 1.84898 0.21605
22.3378 22.1084 24.0348 -0.024575 0.841658 0.0376247
21.9165 24.245 22.3236 0.686394 0.650274 -1.23246
24.6136 25.2294 22.4962 -0.344626 0.746378 1.03612
ITEM: TIMESTEP
1000
ITEM: NUMBER OF ATOMS
32
ITEM: BOX BOUNDS ss ss ss
1.5674263599970930e+01 2.5190350908838280e+01
1.5400513184097564e+01 2.5099705620526713e+01
1.6750074421165188e+01 2.4271128384412023e+01
ITEM: ATOMS x y z vx vy vz
15.9857 20.0571 19.2498 2.77492 0.0689207 0.877743
17.8142 18.0532 18.6341 3.21386 1.0711 -0.329062
17.1254 15.6061 19.3288 -1.43428 0.931214 -3.14619
19.278 16.1746 18.1812 1.08076 -3.39978 0.268338
20.2789 18.225 17.2496 3.76026 2.88778 -1.27368
22.8482 20.4115 18.3647 3.5282 -0.167902 3.67075
20.5593 19.1922 19.341 3.75109 1.77275 2.15254
21.1459 16.0312 19.9903 -1.65238 2.34055 -0.171751
18.3078 20.9707 18.2025 -3.64668 -0.0172083 -3.74329
20.7382 21.9504 19.5414 -1.68189 -0.509349 2.03479
17.0694 22.1957 20.4292 -3.56574 2.63536 -0.938032
24.5028 23.5826 20.0499 -1.3605 -0.251527 0.509114
24.9237 21.747 18.1513 -3.03142 -4.24468 -1.53504
22.5987 22.9239 18.0722 -0.10397 -0.302476 -2.02856
20.8147 20.9373 16.8376 -3.09804 1.54854 0.712606
21.7765 24.3109 20.0985 -1.29485 -0.802282 0.857818
18.3844 19.5591 20.6933 3.71401 -0.606221 0.634576
18.8259 16.5328 21.0833 1.86649 1.51175 4.84332
16.5246 17.6619 20.8787 -0.203457 -1.49134 -0.454833
15.9927 20.2105 21.8453 -4.01538 -0.965125 4.13525
22.7858 18.0632 19.9926 0.642557 2.34354 -5.10112
22.4275 19.4866 22.962 -2.67722 -2.59885 2.21406
20.8438 17.7243 22.2329 -0.110779 3.56122 3.43736
24.1657 19.6322 21.2751 -5.57315 1.25131 0.31117
18.0677 21.4133 22.6081 1.08709 0.525525 -1.82043
19.4499 22.7544 24.2546 -1.535 -1.21763 -0.662364
20.6759 20.9224 21.6653 5.54712 -3.62724 -2.26619
19.3811 23.4606 21.1245 -0.95907 3.28842 -2.54061
23.1766 21.9331 21.0423 1.08465 -2.96798 -0.871224
21.9905 22.2931 23.8491 1.24366 -0.643026 -0.169419
20.9258 24.5404 23.0809 0.628678 -2.09672 0.49528
23.2547 24.0828 22.3297 2.02047 0.171345 -0.102906
ITEM: TIMESTEP
2000
ITEM: NUMBER OF ATOMS
32
ITEM: BOX BOUNDS ss ss ss
1.6141944713113631e+01 2.4000827804390301e+01
1.5811513551415674e+01 2.5157896634170694e+01
1.7039630698830159e+01 2.4212821763936578e+01
ITEM: ATOMS x y z vx vy vz
16.4231 19.7278 18.5789 2.03682 -0.167245 2.20934
18.9487 18.2931 17.7074 4.22435 -0.0181947 -4.28343
16.8782 17.3007 18.9012 -4.2177 0.866743 2.96001
19.2674 15.9272 18.168 0.325961 3.25791 -1.37658
21.6505 17.3141 18.1226 -3.81681 -1.90194 0.840216
18.2419 19.4704 19.9658 0.384876 -1.72909 1.53178
18.7964 16.6188 20.6903 2.91578 0.259485 -0.187568
16.4425 18.1073 21.3156 1.23826 -0.669876 -2.21772
21.1441 19.17 20.0761 0.922191 -0.237754 3.51783
21.8054 16.8463 21.3503 3.96345 0.860064 3.21111
23.4425 17.7889 19.581 -1.35256 -0.231539 -1.73219
21.5594 19.0788 22.9582 -3.94307 -1.18624 -2.48712
19.142 18.3359 22.1173 1.10915 1.78631 2.40682
24.0724 18.798 21.8025 2.38265 2.29849 1.67845
19.4156 21.1 18.2213 -1.40058 0.486418 0.892658
17.2254 21.8984 19.7747 -0.0663196 -0.734244 -2.31065
16.2173 20.6097 21.7995 2.08791 4.7167 -0.782241
17.4814 22.4062 22.4319 -4.14599 -1.96705 -1.2816
20.8899 21.5688 24.3239 -1.95898 0.0530475 3.22579
19.4278 23.7073 23.3951 2.56679 -4.27701 1.43839
23.1213 20.0012 18.492 0.280422 -0.565012 -0.338421
19.5344 23.6611 20.8387 -2.18593 3.06007 2.54773
22.8099 24.3797 17.9652 -1.59403 -1.40491 -1.50274
24.0517 22.5589 18.7405 1.62286 -1.63403 -2.25133
21.2223 22.8007 19.1973 0.490019 -0.335421 3.29739
21.1697 19.4434 17.0111 1.99401 2.22231 -1.02301
21.1005 25.155 20.0717 1.2147 1.03455 -1.76925
19.6904 21.0259 22.0828 -0.832931 0.626801 -0.465079
23.0153 21.0816 20.7022 1.8666 -0.428863 1.2711
23.5557 21.4761 23.0313 -3.61212 -5.59621 -5.27187
21.6709 22.9472 22.4865 -2.22786 -0.12711 2.40356
23.2258 24.0415 20.7392 -0.271926 1.68285 -4.15141
ITEM: TIMESTEP
3000
ITEM: NUMBER OF ATOMS
32
ITEM: BOX BOUNDS ss ss ss
1.6395373055628035e+01 2.4804831475597641e+01
1.6604573280418279e+01 2.4758411620370758e+01
1.6706804204360012e+01 2.4534367985074098e+01
ITEM: ATOMS x y z vx vy vz
16.3959 20.3958 18.5274 -0.0975884 -0.389144 -0.865346
18.4901 19.085 16.9011 1.59193 -0.919489 -1.2434
16.9192 18.1494 18.7598 2.19229 2.14037 -1.99293
19.4808 17.3127 18.2008 -0.256438 8.55787 1.49964
19.2889 19.6912 19.3631 0.912429 -1.00152 -3.66522
19.312 17.4152 20.6158 1.96822 2.78428 -1.82256
22.2218 17.4805 18.7418 1.02093 -3.34025 0.521996
21.913 19.5433 20.0194 -0.233457 -1.89128 0.9204
24.7781 17.1722 19.8363 -2.31807 1.35539 0.576846
24.2041 19.6735 19.0309 3.40625 -3.49004 0.953328
21.3594 20.1354 17.4416 -3.60882 0.558878 2.39903
18.7172 21.6544 16.7257 -1.06368 0.217624 1.52728
17.909 22.4047 19.3516 -2.33967 -3.99598 0.462994
20.8723 22.6481 16.6874 0.847918 0.427212 -2.89162
22.9467 22.2015 18.5325 1.59844 0.583777 -0.35228
20.4271 22.3506 19.4696 1.03259 -0.276819 0.191785
21.0533 24.7016 20.0906 1.05903 -4.33644 -0.564946
23.8605 21.7301 20.5849 -3.26937 0.0706869 -0.33411
23.2424 24.3014 20.0739 -1.165 0.277889 1.1418
18.0791 17.7658 22.9044 2.03462 3.30937 3.08092
17.9962 20.6267 24.0901 6.05692 3.12287 0.0615342
17.5153 19.7737 20.9474 -0.473619 -2.19244 0.812194
21.7171 16.6121 21.3471 0.826741 0.243365 -1.40801
20.3236 18.4491 23.0743 -1.13885 -1.32689 1.56537
23.1487 17.9772 22.0442 -1.91484 2.2287 -1.88345
16.98 21.8602 22.3515 -5.78402 0.696444 -1.79951
19.3662 22.5555 24.0305 2.69783 1.25609 2.49144
19.0408 23.7425 21.6595 -0.618923 0.141165 1.65431
19.7244 21.2314 21.8042 -0.403472 -2.70967 -2.3506
20.8349 20.4611 24.5438 -0.232433 -1.4707 1.13138
22.5546 20.6013 22.8816 1.19804 -1.12998 -0.209227
21.9675 22.9368 22.0072 -3.5259 0.498662 0.390982
ITEM: TIMESTEP
4000
ITEM: NUMBER OF ATOMS
32
ITEM: BOX BOUNDS ss ss ss
1.6408400989678395e+01 2.4074055628346006e+01
1.5946228963606826e+01 2.3994425475747096e+01
1.6421252723428292e+01 2.4826280720433989e+01
ITEM: ATOMS x y z vx vy vz
16.813 20.5834 17.8502 -1.48603 -0.0148763 -0.939493
20.07 20.6112 16.4263 0.890208 -0.405013 0.157895
17.3614 18.3565 18.8748 -2.65986 -0.248923 -1.16567
19.6258 17.1568 18.2783 3.63852 -1.7946 -4.21456
19.1794 19.9266 18.7507 0.827031 -0.966993 2.30901
22.0035 17.1531 17.9882 -5.07346 2.97744 0.31348
21.572 18.7012 20.2059 -0.32671 -2.78799 -2.27584
23.645 16.8033 20.8537 0.0810547 3.38245 6.23779
24.0435 18.7507 18.919 -1.13544 0.472633 -1.19737
22.1362 19.5936 17.4913 -2.66396 1.09945 3.25009
18.6096 22.6045 17.5758 2.94874 -3.51023 -1.80718
17.209 22.2577 20.1343 0.253366 -0.90879 -2.90873
22.3426 22.2722 17.1675 3.90205 0.447144 -0.0252106
23.7591 21.5528 19.2148 1.59563 0.77498 2.35151
20.8282 21.9069 19.1349 -0.718967 1.2733 0.0960628
18.9789 23.7658 19.5248 1.89058 1.2718 1.4587
21.6175 23.9526 19.0566 0.0618623 -0.837578 -0.241419
19.3237 17.8612 20.9988 -5.61169 0.283119 3.8109
18.0048 19.6782 23.3884 -1.36132 -0.89665 -0.45173
17.2432 19.7038 20.7355 3.18865 -0.998915 1.80257
21.2617 16.0077 20.3415 1.62761 3.06814 -0.627782
21.497 18.0924 22.657 1.48066 -1.34691 -1.88569
23.9143 19.7788 21.0852 -0.971421 -0.0921131 -2.09648
18.4375 21.624 24.8684 -0.996897 2.8524 2.31843
16.3982 21.5966 22.5803 -0.559648 0.532794 0.767892
21.1295 22.3051 23.739 2.18682 -5.86024 -0.66191
18.5476 22.7957 22.866 -1.75508 -0.781253 2.7762
19.943 20.6803 21.6177 -1.80838 0.603444 2.46932
22.7202 22.4452 21.339 -2.86661 2.97312 -3.30779
20.6324 20.0061 24.3192 4.444 -3.75755 -2.57676
22.7797 20.1873 23.1638 0.0298373 -0.632564 -0.36679
21.0127 23.9291 21.493 0.948852 3.82899 -3.36943
ITEM: TIMESTEP
5000
ITEM: NUMBER OF ATOMS
32
ITEM: BOX BOUNDS ss ss ss
1.6638660066700250e+01 2.4647491009912354e+01
1.6754452677244966e+01 2.4512666949017994e+01
1.6316141598213484e+01 2.4692649844183205e+01
ITEM: ATOMS x y z vx vy vz
17.2322 17.5955 19.9788 0.0180989 0.875038 -2.78884
18.9311 17.5661 17.7289 -2.97499 -1.59513 2.34327
18.8379 19.688 19.4951 1.51348 2.24784 1.81507
21.2767 18.6391 17.9489 -0.993834 -3.91171 -2.04762
21.9938 19.434 20.3163 -2.13501 -2.51431 1.16986
23.6474 18.2718 18.8518 -1.07454 5.06172 1.02531
23.0869 20.8665 17.7742 3.02125 0.885459 -1.4641
22.0324 16.5834 20.0193 0.559392 0.112142 1.98163
16.527 19.0459 17.5932 1.539 -3.90584 2.12733
18.7089 19.0748 15.9385 -2.74135 -0.659622 -2.71091
17.9643 21.024 17.4928 -0.0315163 -4.6806 2.13794
18.4478 22.8284 19.6947 2.76235 0.224543 0.606252
20.6235 23.5011 18.3489 1.13635 -0.691651 0.422087
20.6323 21.1019 17.6329 -1.46013 -2.19609 1.4739
23.2893 22.8739 18.9074 -1.92973 1.41587 6.19054
20.9829 21.9906 20.5262 1.54917 -2.42396 -1.05191
21.54 24.4543 20.7181 -0.246306 0.982764 -1.63376
19.4698 16.9658 20.5357 -0.584158 1.42921 -0.85294
17.8869 18.735 21.8106 1.90977 -0.0774133 -1.69396
16.587 20.5162 19.7641 -3.77916 3.26269 -6.12669
23.2184 17.7914 21.8296 1.51669 0.0722126 -2.9259
20.639 18.1433 22.4366 0.627642 0.646849 -2.38251
24.5625 20.3983 19.7901 -0.786262 -0.0147084 1.29513
20.1325 19.9638 24.6077 2.46735 1.34351 1.23427
22.5084 19.5765 23.3524 -2.27101 -2.11731 -4.54356
18.7854 22.3679 24.1171 2.1198 1.70463 2.161
17.2465 21.7092 22.1083 1.55155 2.9499 -0.656292
19.5282 23.5926 22.2376 -5.70548 -0.887301 2.19796
19.568 20.5716 22.2326 -0.239477 1.59636 -3.52491
21.4308 22.0945 24.0974 3.21353 1.41952 1.62495
23.4033 21.7633 21.5328 1.87682 0.327713 2.75885
21.9194 23.911 23.2214 -0.42929 -0.882324 1.83856
ITEM: TIMESTEP
6000
ITEM: NUMBER OF ATOMS
32
ITEM: BOX BOUNDS ss ss ss
1.6457360389070477e+01 2.4773377229475731e+01
1.6435815147035296e+01 2.4523832124254941e+01
1.6110596423977640e+01 2.4462361746385923e+01
ITEM: ATOMS x y z vx vy vz
16.9351 18.2733 20.6664 2.69442 0.803336 -1.93925
16.9291 17.5313 18.034 -2.95091 -0.585562 -1.61669
19.6062 18.8748 19.8202 2.57727 0.752682 -1.46672
16.604 19.3769 16.1229 4.50702 1.47381 0.449792
18.701 18.8778 16.9718 -1.16241 0.215028 2.8872
18.9039 16.4561 18.7135 -1.92358 0.218285 1.09105
21.0125 17.9214 17.8076 -2.20673 -1.25962 2.30831
21.2861 17.2436 20.2076 1.98249 -0.36673 4.0366
24.7931 21.4731 21.3536 0.190116 0.724505 -0.105702
18.4169 21.6269 16.8733 -0.362423 0.429938 -1.06303
19.7338 21.8 19.5576 -2.129 -0.271352 -0.104875
17.2905 20.056 18.7004 0.677026 1.22775 2.67044
23.9558 21.5263 18.8883 2.93441 3.46874 -1.30678
22.1332 23.378 18.5798 0.475131 -0.102489 0.259276
20.7663 21.162 17.2699 -0.902334 -3.84783 -0.2525
24.2413 23.902 20.4955 -0.250058 -1.56084 -2.02786
18.9302 16.756 21.209 0.319092 0.255308 3.87093
18.1921 18.7528 22.9245 -1.78806 2.51991 0.240176
20.1349 19.2047 24.4431 -0.179214 -0.628399 0.61634
21.7697 20.1773 19.3207 -0.210389 0.367864 -2.80499
23.9811 18.8365 19.5558 -1.05832 1.3708 -0.354308
21.0508 17.7465 22.709 -0.711886 -2.36779 -3.81287
22.809 19.7287 22.1907 0.0190037 -0.208023 -3.29168
18.5407 21.3678 23.5817 -2.8792 -2.96872 -1.19767
17.4642 20.7907 21.502 0.771397 -1.7162 -1.96215
19.0395 22.9743 21.5969 -1.55662 -2.60008 -1.53217
20.3936 19.9902 22.065 1.84516 0.978345 -1.60331
22.139 22.3412 21.1241 1.74546 -5.52241 0.540543
21.3431 24.6852 20.8909 1.95462 6.226 5.4371
21.3102 21.7708 23.8024 0.728924 0.353317 2.3791
23.4701 23.9512 22.6222 -3.00174 -0.589898 -1.36237
20.7633 24.0866 23.0398 -0.148652 3.21033 1.01806
ITEM: TIMESTEP
7000
ITEM: NUMBER OF ATOMS
32
ITEM: BOX BOUNDS ss ss ss
1.6365190482755960e+01 2.5230735815025621e+01
1.6518016330654465e+01 2.4583605232292278e+01
1.6325345235191914e+01 2.4291742173149348e+01
ITEM: ATOMS x y z vx vy vz
16.965 17.6688 18.3935 0.407961 -2.40625 -0.534513
18.8785 19.5096 19.0783 -0.61094 1.99616 0.252623
16.4717 19.2396 17.0129 1.58906 -0.0258846 1.20938
19.0898 18.8381 16.4348 1.43696 -0.414274 -0.75987
19.3079 16.6544 17.9307 1.103 1.95117 0.22418
16.6255 20.8938 19.1006 -2.93316 5.2192 0.993358
21.3939 17.9546 17.5008 2.98343 1.31762 0.390741
21.4742 19.9809 16.2992 -0.741993 0.294223 1.06647
21.816 19.9755 19.3832 1.11541 1.6592 -1.26353
24.2301 20.4681 20.4441 -0.533178 1.80687 -0.208735
19.1177 21.3751 17.131 0.413549 -4.09225 2.8877
19.1461 21.8566 19.5658 -2.14755 1.13755 -1.29007
23.5976 20.657 17.6288 2.17306 -3.45541 -1.47928
21.5516 22.2459 18.5184 -0.351659 -1.1399 0.760322
23.7275 23.1325 20.0052 0.467524 0.748789 -2.06725
16.4194 18.7665 20.7645 1.02039 0.568453 0.177832
18.9297 17.2283 20.58 0.0894487 3.06494 -0.215131
18.1741 18.8108 23.1369 -2.86762 2.01906 1.55699
20.5898 19.0864 24.191 -0.758285 0.0448532 -1.83882
17.6558 20.8805 21.6215 0.672763 -2.44143 5.2776
20.0253 19.4338 21.5109 1.09224 0.919878 -1.75539
21.9229 17.9033 20.9318 -2.32905 -1.89264 -2.50101
20.1013 16.9886 22.6455 -1.29706 -2.33639 -0.339343
22.9392 20.0013 22.7073 1.88202 -1.6699 -1.60786
19.3703 21.2443 23.8308 4.10998 -4.7606 -2.22561
18.9724 23.3172 21.8612 -0.284417 0.323562 0.301434
25.0079 22.4631 22.2124 -0.411181 -1.82961 0.999067
21.4107 21.9638 21.5037 -2.96864 -2.70308 2.8518
21.8449 24.5542 20.543 0.730058 -0.773714 -4.67756
21.9999 22.0117 24.2028 -1.17981 3.2163 2.48307
23.2432 23.6358 22.7439 -2.83028 3.77176 4.02712
20.64 23.8997 23.2254 0.957972 -0.118272 -2.69571
ITEM: TIMESTEP
8000
ITEM: NUMBER OF ATOMS
32
ITEM: BOX BOUNDS ss ss ss
1.6788156649963671e+01 2.4114896784459781e+01
1.6669706558675056e+01 2.4468348041501901e+01
1.6013131019780541e+01 2.4598067893050928e+01
ITEM: ATOMS x y z vx vy vz
17.4294 17.0894 18.7789 3.12684 1.70339 2.98734
19.4997 19.18 19.0221 -2.75939 -1.36223 1.57681
17.1553 19.4233 17.5929 -1.23559 -1.88902 0.365569
19.2868 18.5386 16.237 1.16213 1.61364 -0.425218
19.5812 16.6789 17.7601 2.71245 0.862884 -1.73742
17.7019 21.0601 19.7441 -0.779186 -2.58524 0.535015
19.2523 21.1281 17.1323 1.02158 1.99685 -0.215924
20.0498 22.5288 19.5753 0.332394 3.3219 3.47629
22.1347 17.945 17.7856 0.109655 1.09175 0.409823
21.4096 20.4299 16.0059 -0.897034 -2.9365 -1.78052
21.5164 20.4986 18.9717 -0.724402 0.599662 -0.345828
23.776 19.587 19.9682 -2.26786 2.94508 1.50009
23.6151 20.5946 17.4448 0.240407 -2.93315 -0.0759243
21.9904 22.7059 17.4476 2.92106 2.12532 -3.44148
22.8149 22.6102 19.8857 -5.24794 0.645084 -0.930608
20.9647 24.4621 20.9734 2.57179 -0.354514 0.088074
16.8616 18.7841 20.5183 0.670558 -0.52517 0.495078
19.073 17.2933 20.8717 0.601189 3.40282 0.379384
17.7331 18.4042 22.8804 1.77932 -0.493607 0.528109
16.8059 21.0564 22.6724 2.40736 2.16824 -3.18066
19.6402 19.9991 21.5203 -0.365037 -0.964481 4.7058
20.9276 17.7119 22.6954 1.54416 -1.67122 -1.86312
18.4151 21.7693 24.2599 -1.23355 -1.28445 -1.09052
18.7732 22.9876 22.0396 1.20714 -0.91294 2.37631
20.1334 19.7288 23.9939 -2.76447 1.82371 1.12919
22.0524 18.025 19.9362 -0.868093 -1.21013 -4.04893
22.3726 19.6549 22.4076 -1.125 -3.29535 0.0491785
24.1175 21.1929 22.031 1.21481 -1.11461 -0.354421
21.4754 21.9695 22.0811 -3.51241 -4.8249 0.209214
21.5512 21.8774 24.5931 -2.32309 1.70077 -0.0660658
23.2472 23.7615 22.184 1.88121 -0.449009 1.03142
21.2821 23.9638 23.6294 0.598989 2.80541 -2.28606
ITEM: TIMESTEP
9000
ITEM: NUMBER OF ATOMS
32
ITEM: BOX BOUNDS ss ss ss
1.6468252334237899e+01 2.4280041415591299e+01
1.6159226665527729e+01 2.4897194335734390e+01
1.6127929106560490e+01 2.4736179945739373e+01
ITEM: ATOMS x y z vx vy vz
17.4797 17.1786 18.2028 1.47444 3.57683 -0.858185
19.0196 19.0993 19.192 -2.21355 1.44938 -3.41745
16.6207 20.1349 17.7726 2.08938 -1.33611 0.751373
19.6711 18.1824 16.8627 1.17546 1.71562 1.28294
19.6394 16.3612 18.7183 0.716976 1.03861 -0.333206
22.1705 18.3195 18.158 1.41054 -3.33725 -0.291517
21.2377 19.946 16.3548 0.349426 1.87139 -0.625758
21.1369 20.7919 18.8274 -1.27771 0.872833 2.80704
23.627 20.5632 17.6435 -0.945628 0.044208 -2.56911
17.7313 21.3945 19.6943 1.27103 -1.65746 -1.47324
19.2039 21.1482 17.2906 -1.52968 1.14923 -1.17511
19.7753 23.2089 19.6054 -0.0341439 -5.16813 1.28838
21.9622 22.6747 17.419 2.46544 -2.72989 1.12422
23.7901 22.5524 19.3695 -3.49005 1.07693 -0.835085
23.0624 19.8836 20.1714 0.285258 0.178706 4.0661
16.6277 18.9475 20.1802 0.936004 1.55415 2.54423
18.4882 16.2536 20.8077 -0.25447 -0.752481 0.739489
18.3958 18.5612 22.1436 -2.19181 -1.61099 -0.617928
20.1872 20.3861 21.2738 1.54588 4.01903 -0.35735
20.8317 17.4138 22.8624 4.74775 -0.688436 1.43113
20.7742 19.2202 24.7915 -0.818035 0.155187 -2.85612
20.8326 17.6605 20.5855 -2.88741 -0.99599 0.783024
22.6052 19.4068 22.5058 -0.362691 -3.60636 1.52288
21.3097 25.2341 21.2451 -0.730541 -1.33394 1.71784
17.0326 20.7444 21.842 -0.902834 1.69038 -2.22707
19.1247 20.7028 23.6193 0.928628 0.697447 2.47251
18.9389 22.7695 21.9967 -0.0229213 -0.607421 -1.16344
24.0485 21.598 22.1854 -4.10157 2.07832 -1.44341
21.9527 22.5382 21.0038 -2.28446 -0.638851 -0.545785
21.5955 21.6585 23.9633 2.67901 0.585953 -1.00192
23.1221 24.1138 22.5035 1.71049 -0.291272 -2.14018
20.6449 23.9917 23.848 0.261787 1.00038 1.40071
ITEM: TIMESTEP
10000
ITEM: NUMBER OF ATOMS
32
ITEM: BOX BOUNDS ss ss ss
1.6687380748871362e+01 2.3495437477186055e+01
1.5953025746810058e+01 2.5098160178048623e+01
1.6143593809363185e+01 2.4294325263857974e+01
ITEM: ATOMS x y z vx vy vz
17.5334 17.5978 18.7399 -0.73836 1.57851 -1.89424
19.3869 18.43 19.9013 0.691252 0.343587 1.57486
17.3228 20.7804 17.7778 0.323583 -0.0447496 0.88546
19.3062 19.1693 17.0714 -0.292951 0.291589 1.01671
19.9321 16.2795 18.74 -0.107933 0.558887 -0.3585
21.6484 18.1841 17.7403 3.85357 1.75449 1.97094
21.5488 20.763 16.2346 -2.60239 0.471915 2.17146
21.0433 20.736 18.8847 -2.38361 0.236246 -2.73147
23.4626 21.0485 17.8359 0.447737 0.910902 0.655734
18.5845 21.381 19.8622 0.118601 1.1957 0.871472
19.3143 21.9062 16.7278 0.379308 -2.8615 -1.0267
19.2532 23.6849 18.6368 -4.94027 0.948119 -0.423026
21.7905 23.2936 18.2763 0.99014 -1.32252 1.73967
23.244 22.1133 19.9054 2.37785 -1.50181 -0.0235893
23.1728 19.2883 19.6156 0.0796641 2.53349 2.1795
16.9426 17.5498 21.2178 1.51689 -1.01557 1.49585
18.3521 15.8344 20.7319 -0.0395866 -1.61577 -0.94036
17.9728 17.7767 23.5997 0.563037 -3.21737 1.23764
21.1353 19.874 21.3611 -0.278147 1.30429 1.05814
20.1168 17.2492 22.2272 1.63511 1.91798 -3.98101
19.8416 19.5747 24.0504 0.414426 1.10354 -2.17529
21.9943 17.2751 20.3385 -2.68282 -0.932991 0.0857951
22.2054 19.049 23.9488 -0.600159 1.7356 1.66804
21.153 25.0518 20.3298 3.72876 -0.681463 0.158499
18.4058 19.5735 22.0441 -0.868401 -0.574048 1.62251
19.1402 22.0539 23.1392 -3.06855 2.00383 -2.00382
18.9108 24.3632 21.5869 1.75566 2.68387 -0.875133
23.871 20.5619 22.1573 1.81469 -0.347671 0.406381
20.5721 22.3477 21.1856 -2.26323 -2.82678 3.13051
22.099 21.705 23.6575 -2.19403 -2.71383 -5.28353
22.7927 23.9327 21.8421 2.34606 -0.958456 -1.77503
20.5907 24.2115 23.2722 0.0240977 -0.95802 -0.43746
ITEM: TIMESTEP
11000
ITEM: NUMBER OF ATOMS
32
ITEM: BOX BOUNDS ss ss ss
1.6537160646147523e+01 2.3694908563851989e+01
1.6326188659646295e+01 2.4787972137751360e+01
1.5765579787154774e+01 2.4397564541871350e+01
ITEM: ATOMS x y z vx vy vz
16.9398 17.5363 19.0595 1.93187 2.14494 1.63441
18.9678 18.7374 20.6165 0.949383 0.914269 -0.802566
19.6432 19.2637 16.1518 2.65846 2.4949 -1.48616
19.5031 17.5397 18.2632 0.651387 -2.34498 0.954241
21.991 18.4033 17.5887 -0.563131 -4.75092 0.579817
23.3119 19.146 19.6124 -0.3115 -1.01671 -0.755263
17.8578 20.063 18.0088 -0.390139 -3.64293 -0.124173
21.7405 21.1295 15.7775 0.878945 -0.062615 0.494775
20.9173 20.2435 18.8549 -2.80624 0.966401 1.42967
23.3104 20.8163 17.5712 -2.71043 2.45172 1.20307
18.4724 21.2145 20.6602 -1.10524 2.42444 -0.44144
19.6485 21.6103 17.1901 2.04279 2.01232 0.178195
19.5398 23.4255 19.2587 -0.00501993 1.24095 0.819506
21.7413 23.0078 17.7527 -0.560231 2.23606 2.80174
16.5176 17.5637 21.4344 -1.37114 1.26186 -0.718527
19.0567 16.3181 20.6184 -1.60073 -0.94046 0.729836
18.3731 17.4657 23.1743 0.323678 -6.34425 0.731677
21.634 19.7287 21.4083 2.71912 -2.41393 -0.686411
20.8341 17.5993 22.5364 1.78766 -1.00399 -2.83848
19.8389 20.0061 23.4555 3.8434 0.742971 -0.482485
21.5802 17.1833 19.7204 -3.74062 -0.674123 1.28484
22.4009 19.4572 24.4198 -1.30743 3.91095 1.11343
17.2932 19.6201 22.7101 -0.359531 -1.16758 1.12099
23.1782 21.885 19.8977 -1.27855 -0.277984 -1.68032
21.6427 24.7669 20.295 1.62628 -1.44621 2.79736
18.7786 22.3051 22.8933 3.35112 1.10333 -1.89289
18.1301 24.1101 21.3318 1.54238 0.481766 -3.21574
23.6587 20.6506 22.5582 -2.01792 1.09409 -1.82293
20.8302 22.0861 21.1056 -1.79222 -2.26451 -4.35349
21.6537 22.1141 23.9322 0.881875 1.46211 2.0353
23.0984 23.4209 22.0923 -3.11158 0.355903 -0.0338181
20.5557 24.2223 22.6903 -0.156705 1.05223 1.42584
ITEM: TIMESTEP
12000
ITEM: NUMBER OF ATOMS
32
ITEM: BOX BOUNDS ss ss ss
1.6391829779552786e+01 2.3792243344199772e+01
1.6583549434027105e+01 2.4306573134619086e+01
1.5805323568455782e+01 2.4839784197241141e+01
ITEM: ATOMS x y z vx vy vz
17.4226 17.0601 19.1919 0.116122 -1.48652 0.394484
20.0334 19.4712 16.3874 -2.09919 1.61796 1.71023
19.5977 17.3189 17.9258 0.917559 -0.598088 1.43108
22.0786 18.0004 17.4878 0.517138 0.406383 0.823297
23.6938 18.8151 18.9046 -1.31448 2.29653 1.22654
18.1516 19.8096 18.8729 0.784207 -4.45936 -1.12521
21.4368 20.0776 18.9695 -2.33762 -0.850877 -0.313172
22.7777 20.756 16.8577 0.118789 0.835417 1.37146
21.3851 17.0865 20.1135 1.11814 1.20555 -1.96158
20.9708 21.7646 15.7753 -0.592709 -0.367438 -0.112339
18.7049 21.6573 17.245 -2.62637 -0.936328 -1.13887
18.8424 24.1498 18.2966 2.00441 2.92364 -0.12011
21.1422 23.0925 18.2923 0.907615 1.35686 -0.078555
19.6304 19.1423 21.1148 1.50389 0.151707 0.961638
16.4312 17.9212 21.1965 0.38284 1.56706 -1.39325
19.082 16.3735 21.0676 0.199373 -3.76754 2.41093
18.3249 17.7845 23.0028 0.46223 2.04663 2.29772
22.71 19.221 21.4078 0.317795 -4.74926 0.0922594
21.0091 17.639 22.8741 0.449579 0.161776 -0.165561
19.6551 20.1193 23.6677 -1.18386 -1.17581 -0.643016
22.3011 19.2309 24.3508 -1.08998 0.256061 -2.41592
17.3215 19.9944 21.4304 0.602006 0.246756 1.05472
18.8535 22.1469 19.6673 2.50443 1.79226 -1.01513
23.1098 21.6921 19.9171 -0.0551082 0.0999439 -2.26691
21.0195 24.0066 20.6064 0.166312 0.773438 -1.04097
18.5186 22.4414 22.503 0.605836 1.40713 -2.1674
18.4703 24.4484 21.3052 0.87425 2.05909 1.43902
23.1182 21.2393 22.9621 0.0294688 3.31248 0.321259
20.7949 21.4673 21.6088 1.20966 0.0804644 0.423229
21.3336 21.5547 24.7937 -2.69729 -3.95779 -1.28378
23.5115 23.5219 21.8341 0.0286835 -1.16625 0.031426
21.2072 23.6358 23.0095 -1.82371 -1.08186 1.25249
ITEM: TIMESTEP
13000
ITEM: NUMBER OF ATOMS
32
ITEM: BOX BOUNDS ss ss ss
1.7305823699022042e+01 2.3910305298251551e+01
1.6004355703254795e+01 2.4368509165793753e+01
1.5342032795586190e+01 2.4673492301000209e+01
ITEM: ATOMS x y z vx vy vz
17.7953 16.0831 19.0153 1.31515 1.08475 1.85327
19.6265 19.8617 16.5394 0.753699 -0.989065 0.611186
19.6763 17.9027 18.4844 1.75094 2.89802 -0.560813
21.623 17.8533 17.1659 -1.34918 0.255785 -2.38202
23.2811 19.5416 18.641 3.09412 -0.617002 0.300776
17.6377 19.5687 18.8089 -1.36389 -0.718959 0.831279
20.7961 20.4383 19.139 0.151483 1.59688 -0.280578
21.8145 17.5338 19.8504 0.331044 1.59315 -2.42431
22.2539 20.0803 16.2725 1.28933 -0.550386 -3.33801
20.4466 21.8112 15.2799 -1.20673 1.45878 0.831089
18.6514 21.9635 17.4728 -1.14746 -0.130313 -0.401895
19.6911 23.8628 18.618 0.643443 0.85205 0.921732
21.5599 22.4391 17.5322 2.93184 1.72782 0.0369438
18.4602 21.9205 20.2166 0.936456 -2.00796 2.69028
24.0156 21.5462 20.5344 0.807814 -2.31985 2.24824
19.8144 19.0813 21.111 2.93304 -0.739847 0.829246
17.2784 17.6259 20.9606 -6.21613 -1.16619 1.98543
19.4383 16.2658 20.6608 0.748693 -3.20093 1.10935
18.7225 18.1202 23.3654 -1.65779 -1.01365 -0.214985
22.7717 19.4078 21.8063 0.0128713 1.00415 -0.857102
21.403 17.0666 22.3699 0.325123 -0.86689 2.46998
18.4383 20.2692 24.1126 -4.4762 -1.2266 1.62084
20.9029 19.3444 23.8769 0.817634 0.0751635 0.727205
17.2819 19.8394 21.6237 -1.29946 1.92578 -1.71759
21.8533 23.2668 20.06 0.301102 -0.774854 -0.270595
18.1837 22.5428 22.8592 0.396507 -0.982747 -0.431747
19.8757 24.0718 21.4476 1.32852 0.962919 0.535131
22.9189 21.7212 23.0769 1.00582 -0.790544 -3.30549
20.6057 21.6525 21.9526 -0.0597667 -1.47599 -0.880047
20.3791 21.9704 24.5065 1.82405 0.948249 -0.808812
23.7146 23.9492 21.802 -2.15928 -0.569371 -0.976946
21.7282 24.0377 23.4774 -2.76281 3.75764 -0.751035
ITEM: TIMESTEP
14000
ITEM: NUMBER OF ATOMS
32
ITEM: BOX BOUNDS ss ss ss
1.6948310482673403e+01 2.4023506693853506e+01
1.6527652952627744e+01 2.3949758369944984e+01
1.5886132118908991e+01 2.4870722314807367e+01
ITEM: ATOMS x y z vx vy vz
17.1804 17.4639 19.5047 -0.897727 1.41153 1.23208
20.4385 18.9051 16.5788 0.121548 -1.47572 -0.662017
19.2884 18.0897 18.9496 1.91644 0.240338 -1.55938
22.1565 18.0992 18.2194 0.120226 -2.4504 2.14156
23.2809 21.163 18.8594 3.66558 -0.979619 1.80178
17.0826 19.6739 19.1268 -3.41278 -0.0338312 -0.723118
20.9979 16.1211 19.2308 -3.04878 -0.80016 -0.218678
22.4044 20.4345 16.64 -1.65092 -0.184872 -0.73044
20.9443 20.7447 18.6359 3.04148 -1.0748 1.42491
20.259 21.5544 15.8528 0.678551 -0.49019 0.53071
18.4603 20.7594 17.5028 0.658546 -0.815493 0.997126
19.5997 23.4755 18.2643 -1.97385 2.55262 -1.2951
22.2278 22.8552 17.0944 0.014545 0.0487008 -2.0824
19.4421 19.2519 21.1073 -2.18655 -1.6349 0.622271
17.059 17.8292 21.9318 0.916962 -1.84899 2.09355
18.9906 16.0735 21.0316 -1.28595 -2.66543 -1.24287
19.4151 17.4456 23.2888 2.05878 -1.41459 -0.694864
22.707 19.2068 20.7694 0.707897 0.475864 -0.658688
21.3101 17.249 21.5414 1.67036 0.942222 -1.37085
21.683 19.5575 23.1783 1.8542 -0.491301 0.197
16.8536 20.4652 21.4316 -1.63142 2.60892 -1.34838
18.758 22.0006 19.8434 0.456683 1.75022 1.65921
24.0117 21.6432 21.163 0.421798 1.22296 -1.55937
18.5616 19.5453 23.6287 -0.902716 -0.167133 -0.312494
22.2773 23.6934 19.5212 1.05173 1.93268 -0.188398
19.1733 22.1093 22.7028 -0.881459 -0.770496 -2.24529
20.2816 24.2069 21.2252 -1.22114 3.11163 -0.848932
22.6757 22.0124 23.6469 -1.39775 1.93973 0.625342
21.2684 21.4239 21.3268 0.476382 0.390649 0.200957
20.3015 21.7042 24.7908 -0.0372196 -1.74323 1.37857
22.5883 23.9734 22.1421 0.238754 0.814698 1.70794
20.9616 23.9088 23.9093 0.457782 -0.401597 1.12829
ITEM: TIMESTEP
15000
ITEM: NUMBER OF ATOMS
32
ITEM: BOX BOUNDS ss ss ss
1.6228361985902261e+01 2.4503634757915691e+01
1.6548674876036252e+01 2.4176093333723685e+01
1.6455405666366129e+01 2.4365033863559567e+01
ITEM: ATOMS x y z vx vy vz
16.3497 17.8585 20.383 2.66404 1.54521 -0.221695
20.4377 19.1943 16.7412 -3.17956 3.22163 0.375953
18.0678 18.6206 18.4292 -0.239938 -0.381236 -0.395008
23.5901 18.0246 19.2129 -0.0381059 0.198533 0.0961802
16.2253 20.1254 19.4167 -0.177422 0.177449 -0.378985
21.0129 17.1816 18.7179 0.665166 1.68831 2.44965
24.6003 20.1549 18.5218 1.19175 -1.00353 -0.573143
22.7938 19.8463 16.4685 0.941223 -1.04623 0.742145
21.4325 19.9201 19.0185 0.637637 -0.840089 1.71371
20.6533 21.6099 17.1158 -2.17729 -1.58803 0.932124
18.2589 21.2379 17.7888 0.729956 -1.18478 -0.225531
19.4685 23.6459 18.2268 -4.72092 4.00834 -0.852049
23.2038 22.0148 17.5691 1.65834 -2.37813 0.473926
18.1287 21.8224 20.218 2.35808 1.42152 -2.30001
21.6452 22.6581 19.67 -0.156329 0.582903 -2.67708
19.2002 19.2557 20.808 3.07722 -3.98834 -0.856396
17.5616 17.8132 22.6639 -0.662375 0.434065 -0.582565
18.8178 16.8075 20.0843 1.48685 4.43399 -1.39705
19.9579 17.2542 22.5035 -2.98131 -0.243361 -1.26652
23.4995 20.0332 21.1633 0.685637 0.103515 -1.19195
21.9445 17.7797 21.0304 -0.464884 -2.75564 2.43345
21.6351 19.3082 23.007 2.69862 1.62916 -0.0917699
19.0312 19.7224 23.7003 1.84883 1.04096 0.872886
16.6349 19.9862 22.0537 0.375343 -2.27109 0.128893
24.1092 22.2497 20.0714 -0.712648 0.662302 1.09492
18.0242 22.0001 22.9392 0.864508 2.14142 0.208406
19.7535 24.077 20.7394 -1.01284 -1.46214 1.64233
23.1124 21.5922 23.0333 -1.7327 -0.870598 -1.12375
20.5332 21.5064 21.8996 -2.87175 -0.938703 0.167951
20.4689 21.9141 24.4644 -0.0874374 -0.983649 1.33655
22.4464 23.476 21.9541 -1.62649 -1.87486 0.0466278
20.0408 23.9485 23.0262 0.958801 0.52107 -0.582201
ITEM: TIMESTEP
16000
ITEM: NUMBER OF ATOMS
32
ITEM: BOX BOUNDS ss ss ss
1.6728476375307434e+01 2.4330679461795352e+01
1.6730877338523484e+01 2.4197094215702169e+01
1.6546842280664130e+01 2.4706217873202888e+01
ITEM: ATOMS x y z vx vy vz
16.9358 18.3962 19.9559 0.616645 0.100353 -0.161349
20.6516 20.0224 16.7754 0.124916 3.46844 2.88426
18.8562 19.1287 18.7488 -2.73191 0.872716 -1.02271
16.7156 21.0947 19.7853 2.08362 3.41001 2.05264
17.8312 20.8479 17.2775 2.09122 1.88723 2.25205