ITEM: TIMESTEP
0
ITEM: NUMBER OF ATOMS
32
ITEM: BOX BOUNDS ss ss ss
1.6172615817844605e+01 2.4617737324888015e+01
1.6375473901143526e+01 2.4415051887637009e+01
1.6191223699687686e+01 2.4598812923771327e+01
ITEM: ATOMS x y z vx vy vz
19.8015 18.9081 16.1953 0.0695979 0.840456 0.0406159
16.1767 20.3879 18.8439 1.03978 0.0905627 -0.370635
18.4264 16.3796 19.9433 -1.89444 -0.639172 -2.76717
17.8808 18.3523 18.0956 0.0319221 0.582269 1.07918
23.0288 17.0023 19.0718 1.02806 0.232509 0.958713
22.3498 18.9565 17.2489 0.918749 -0.106266 0.601232
24.1333 19.5107 19.3815 -0.668505 -0.382777 -0.146386
20.4218 17.0962 18.1789 0.978542 0.596914 1.01218
19.7757 24.2883 19.9018 0.924989 0.519647 -1.00107
17.4819 22.7962 19.1598 -1.2544 -0.177362 0.525289
19.3902 23.4871 17.2919 -1.97029 -0.270736 -0.29614
18.2373 20.9881 17.1118 1.52066 -0.190528 0.253501
23.8861 22.2575 20.0406 -0.91852 0.70681 -0.846083
21.9505 23.4005 18.3139 1.57437 -0.320876 1.09114
23.6249 21.3948 17.4328 -0.603133 2.09688 -2.52293
20.9992 21.3609 16.5878 -2.80583 -1.95028 -0.307076
16.9038 18.5325 20.7514 0.876055 -0.637244 0.931986
19.7905 19.4282 24.201 2.116 -0.649443 0.450086
18.841 17.3891 22.476 0.67754 0.445986 -1.32314
17.1656 19.3958 23.3572 -0.672936 -1.37386 -0.296533
22.5524 19.8027 23.6779 0.869188 -0.271933 -0.0413403
23.3078 17.992 21.6304 -2.07653 1.03814 0.399056
21.4008 17.3034 23.4991 -0.254417 -0.604605 1.10989
21.0139 16.5011 20.8882 -2.24702 -1.51246 1.06758
16.6558 21.28 21.4088 2.14164 -0.67633 -0.523283
18.4409 21.8346 23.5411 -0.155815 1.69126 -1.76101
20.3681 23.6936 22.61 1.83552 0.315094 0.703556
17.7604 23.7886 21.7166 0.768431 0.0472853 -0.362838
22.3631 24.411 20.8465 1.58268 0.836993 0.665518
24.6137 20.4012 21.9466 -1.49139 0.750245 1.15528
20.9882 21.8821 24.5947 -0.019051 -0.973704 0.606506
22.9093 22.437 22.695 -1.92145 -0.0534835 -0.085689
ITEM: TIMESTEP
1000
ITEM: NUMBER OF ATOMS
32
ITEM: BOX BOUNDS ss ss ss
1.6414625869999867e+01 2.4539227267246893e+01
1.6652749219441581e+01 2.4546858564832512e+01
1.7006592702440056e+01 2.4709942700179610e+01
ITEM: ATOMS x y z vx vy vz
19.6663 19.1806 17.1793 0.889416 -1.69747 -0.283655
16.5023 20.3862 19.7141 -1.48214 -0.143659 0.0152059
18.3695 16.8064 19.5506 -0.594606 2.3992 3.14415
17.1761 18.4621 18.0691 -4.38131 0.25154 -2.7148
22.929 17.6896 20.4279 0.936361 -0.642483 1.91235
22.4994 19.159 17.1315 -1.78278 3.02695 2.80278
23.1342 20.2166 19.5838 3.23986 5.73313 -1.24169
20.7398 17.3708 18.5039 1.8054 -0.899325 2.10235
19.7475 23.2715 20.0252 0.64446 -0.946469 0.906962
17.2171 23.1844 18.6391 1.48509 -1.52142 0.349216
19.5226 22.8718 17.4626 1.14651 -1.77142 -4.76134
17.5769 20.8527 17.3798 -2.51969 0.316937 0.540915
24.7416 22.0452 20.11 0.794735 -1.01605 -2.66729
21.9084 23.0234 18.7753 2.09623 2.38116 -1.53531
23.8267 21.6356 17.5597 1.23136 -0.0695569 2.21842
20.949 21.0132 17.9072 -1.19389 -0.550144 1.38597
16.4511 17.8864 21.2263 -0.396401 -0.896583 -3.83675
20.7526 19.0904 23.5551 1.24529 -2.61767 0.430203
18.5499 18.1789 21.686 -3.32344 -3.37195 2.27229
17.4495 19.8973 23.0362 -1.00839 -2.01727 3.01137
22.8068 19.4176 24.7614 0.502137 -2.90218 2.12895
21.0681 19.5233 20.8736 -0.305416 -1.07853 -2.41181
22.7406 17.5784 22.8372 3.27784 0.979361 1.37779
20.7288 16.7773 21.2577 -0.0452192 -1.29891 1.09829
18.936 20.2842 19.8027 -3.80863 7.01819 -2.31499
19.4228 21.5174 22.8018 1.81768 1.63778 -5.04401
19.9743 24.2408 22.4325 -1.27126 1.37321 1.96959
17.7851 23.1778 21.2707 1.44956 1.12208 0.56358
22.2232 24.3811 21.3315 -2.44715 -3.30441 1.14807
23.4608 20.0731 22.4378 1.0034 -0.0338542 0.233133
21.8288 21.5709 24.08 0.54042 0.196746 -2.03043
21.9551 21.876 21.2307 0.454545 0.343071 -0.769531
ITEM: TIMESTEP
2000
ITEM: NUMBER OF ATOMS
32
ITEM: BOX BOUNDS ss ss ss
1.5514305696640166e+01 2.4666863953250967e+01
1.7089147639894257e+01 2.4119336184706412e+01
1.7004499205298153e+01 2.5006868083945822e+01
ITEM: ATOMS x y z vx vy vz
19.9307 18.9554 17.4908 0.323319 2.07577 -3.50244
15.6892 21.1268 20.0872 0.872283 2.05501 0.723699
19.0902 18.6023 19.7992 3.5257 -1.19375 -0.16367
16.2912 19.1261 18.3026 3.23936 -0.0499816 0.813129
16.4956 18.449 20.6513 -1.89082 -0.888941 0.848287
23.3568 16.9194 20.3212 1.6158 0.911527 2.0242
23.3937 18.3937 18.1926 1.18637 0.584075 1.66963
24.71 20.1539 20.1318 -2.27813 -1.04227 0.552369
21.471 16.914 18.6079 -1.4217 -2.91401 1.54848
22.1399 19.4006 20.2381 3.08551 -2.21099 1.75997
19.5116 23.5539 19.9002 2.92173 4.28992 2.0112
17.0234 23.0028 18.1519 -0.646211 -1.6194 1.98918
19.1779 22.522 17.141 0.512808 -0.429151 1.54112
15.8127 21.2127 17.2121 -4.58279 1.86651 0.829032
17.9022 20.7888 19.016 -4.06426 2.04621 -0.48563
24.1754 23.4531 19.5729 -2.25085 0.148108 -2.1711
21.6797 23.2896 18.9373 0.794008 -4.50397 -0.407385
22.8214 20.8174 17.9458 -0.254082 1.23086 -1.75349
20.3328 21.0791 19.0378 3.64231 -0.21859 -0.355823
18.175 17.6371 22.1071 -0.817722 1.36472 1.00243
17.8697 20.1497 22.4662 0.759189 -2.18429 -0.186238
20.9405 18.9741 23.5702 -2.53213 0.4866 -2.4792
23.0494 18.71 25.075 -0.745837 -2.38343 -0.497696
22.8982 17.5313 22.957 1.30803 -3.10908 -1.07461
20.7498 17.2949 21.4519 2.31116 -1.20219 0.827124
23.4589 19.994 22.909 -0.0592222 3.74916 1.62201
20.0551 20.9164 21.7841 2.28121 -1.15826 -0.865041
20.2709 23.7191 22.3365 -1.08221 1.89671 -0.252036
17.3998 22.5463 21.2173 -1.69993 1.58425 -2.62077
22.2803 24.1538 21.3593 -0.840147 2.29438 0.0327695
21.5726 21.4409 23.7513 -1.3289 -1.57326 -6.76668
22.9141 21.8116 20.9172 -1.88384 0.0977395 3.78718
ITEM: TIMESTEP
3000
ITEM: NUMBER OF ATOMS
32
ITEM: BOX BOUNDS ss ss ss
1.5292970389316697e+01 2.4829351407693846e+01
1.6468947872308075e+01 2.4303467280940481e+01
1.7286593084888004e+01 2.3876541513691258e+01
ITEM: ATOMS x y z vx vy vz
20.6105 19.7259 18.5014 0.117415 4.00987 -0.162352
15.9003 21.235 20.5362 2.85741 -2.52728 0.0942746
18.9102 18.4049 21.1854 -0.698796 2.31955 2.31991
17.6951 18.2582 18.6755 -4.04857 -1.35254 1.24164
15.2075 18.7876 19.6052 -2.60669 -1.73747 -4.46305
18.9426 23.4528 20.5014 1.29554 -3.09683 3.07715
17.3299 22.8181 18.6113 0.486718 3.65135 -0.496866
20.0606 22.5338 18.2884 4.90205 -0.482724 3.13499
16.3247 20.5966 17.9937 3.59436 0.443875 -2.24616
18.4107 20.6222 19.4389 0.321872 -2.31957 1.95213
22.801 18.3401 19.978 -0.617078 1.16199 -3.38492
22.9536 19.2635 17.2741 0.545528 2.8516 0.355915
24.9342 20.6294 19.8444 3.43371 -0.589603 -1.08825
20.0922 17.1026 18.8223 -1.02767 -1.64702 -0.0556962
21.2977 19.464 22.3815 0.443683 2.06588 2.40646
24.0893 23.0808 19.2012 0.155607 1.42453 -0.66044
22.5454 22.8019 17.4203 -2.32203 -3.61031 2.59118
24.6201 21.1751 17.3353 -0.0606917 -0.569688 -0.284695
22.4093 21.2324 19.3844 -4.34553 0.496765 -2.39348
22.856 22.3116 21.778 -0.825306 0.474779 0.381643
19.1406 17.2083 23.4224 2.33591 0.436785 -0.578435
16.6212 19.0902 21.4968 -0.0777345 -1.87405 0.718193
20.2415 21.3687 20.9547 0.658193 -3.05457 1.15139
17.7974 22.0226 22.0241 0.692864 1.35915 -0.205582
18.7891 20.0715 23.326 -0.505217 1.45966 0.613496
21.2955 17.3471 23.9125 1.63273 -0.821931 0.989767
23.0551 16.827 22.1226 -1.08766 -4.87976 3.02576
20.6347 16.3501 21.1935 -2.44458 -3.14377 -3.10529
23.8376 19.9912 21.9729 -0.559575 1.75821 -1.01494
21.1784 24.1246 22.1374 -1.61114 1.29306 -5.24137
21.8064 24.4183 19.6543 -0.857846 2.53299 0.985863
20.2516 21.984 23.6659 0.222531 3.96707 0.341752
ITEM: TIMESTEP
4000
ITEM: NUMBER OF ATOMS
32
ITEM: BOX BOUNDS ss ss ss
1.6028977234432524e+01 2.4384822700851323e+01
1.6109873504558145e+01 2.4037601456284424e+01
1.6161012831157141e+01 2.4237366678303900e+01
ITEM: ATOMS x y z vx vy vz
20.5839 19.0188 20.5727 -2.32822 -0.0605641 0.28651
17.62 18.5153 19.704 2.00128 -4.55743 -1.7022
16.2217 19.9928 18.0908 1.07736 -0.0734341 -2.89239
19.3898 17.2363 18.5415 2.02184 0.676624 -0.571578
19.726 17.2731 22.537 -2.82962 0.834772 -2.8809
18.498 19.1446 22.5078 4.81003 3.13227 0.170957
18.495 21.3829 24.4005 0.352815 3.53226 3.82943
20.5382 19.5638 17.3613 -1.62712 -0.751233 -0.39052
22.2742 17.6657 19.0408 0.309307 -1.544 -2.57577
23.2832 19.7214 16.6725 2.26685 -1.48033 -0.518537
21.0488 19.0338 23.9587 -3.6725 0.0529137 1.54439
22.1154 17.1554 24.1305 1.3605 0.959375 -0.407843
22.8339 17.7444 21.7536 1.17116 1.16776 -3.43025
20.944 16.196 20.7199 2.94745 0.866694 1.53139
22.9303 20.1471 22.5176 -3.07056 -0.895376 1.42413
16.1816 20.508 20.6625 -1.91286 1.36119 1.37318
18.4697 23.7911 20.5376 0.321927 3.39997 -0.777964
16.9922 22.6154 18.8274 1.95647 -1.52912 1.26118
19.9249 22.5878 18.4096 3.27807 1.27953 1.43691
18.4301 20.6407 17.4465 -1.00051 1.98729 2.4659
18.788 20.8987 19.929 -0.90891 0.425829 -0.607044
17.3005 22.1965 22.1602 2.00154 -1.01336 -0.0843993
24.0025 19.6185 19.3695 -3.1452 -1.01614 2.2111
24.1508 21.716 20.4494 -1.55154 1.37916 -2.67066
21.0602 21.5744 16.1499 -3.41977 -0.870164 1.90456
23.4689 21.7643 17.6838 -2.08091 -0.819348 1.24414
21.86 20.7153 19.6941 2.65048 0.434147 0.156862
22.8067 22.406 22.3693 -0.644936 0.234853 0.0628841
20.6129 21.1852 22.2935 1.02359 0.861941 -1.41679
20.8195 23.591 21.4648 0.622895 -3.12528 -1.14905
22.1961 23.4461 19.5327 1.24927 -1.5913 0.416059
19.073 23.5938 23.1511 -3.23018 -3.25949 0.75632
ITEM: TIMESTEP
5000
ITEM: NUMBER OF ATOMS
32
ITEM: BOX BOUNDS ss ss ss
1.5782221840941165e+01 2.4218874398698031e+01
1.5797319164384447e+01 2.4204768666791864e+01
1.6758593442080915e+01 2.4523326021388499e+01
ITEM: ATOMS x y z vx vy vz
17.1905 17.9588 20.4296 -1.01552 2.78383 0.475666
17.1201 20.3037 18.4084 -0.384222 -1.60358 2.58475
19.6732 16.4874 19.5339 6.47989 -1.6608 -0.320628
19.8775 19.5043 18.0524 0.645822 -2.14466 1.07003
21.7949 17.2852 18.3965 -2.5422 0.885365 -4.11767
22.0778 19.7303 16.8779 -0.411524 0.907439 2.07675
23.1966 19.2359 19.2472 -1.96122 -1.10744 -0.469264
18.7856 23.5472 20.3151 0.597031 0.765767 0.216069
15.6928 22.4641 18.396 0.337094 -0.315822 0.793294
19.1964 22.1575 18.3014 0.821348 1.01337 0.0488832
18.5048 20.6012 20.5696 -1.01333 -0.115672 1.76809
20.6541 24.296 18.4025 0.90112 1.6246 1.01167
24.5669 21.2139 20.4985 4.19328 -1.12227 0.424831
21.2364 22.1562 17.1904 1.15125 3.7003 -3.07203
23.9367 21.2122 17.7239 -2.10324 -1.38326 0.950428
21.5529 21.4359 19.6518 -0.936551 1.13217 -1.65169
22.9987 23.4467 19.2445 -1.85518 -2.2594 -0.699574
20.2249 17.1668 22.4544 3.34392 -0.316995 -0.0257106
18.3878 19.2802 22.6841 -0.48364 2.81535 -3.05637
20.6734 18.8813 20.4869 1.0021 1.50558 3.68782
20.8964 19.389 24.0904 -1.94285 2.0643 5.70934
22.5991 17.0482 23.0557 -0.577628 -1.22715 -2.84322
23.6783 17.5628 21.0719 -0.271517 0.621234 -1.59097
21.6499 15.9788 20.8586 -0.300461 2.93703 1.60237
22.5894 19.8382 22.1675 -5.51522 -1.84714 3.23854
18.6925 21.1115 24.5009 1.35304 -1.28858 -1.4691
15.8165 19.7894 20.5641 0.0981977 0.011486 0.157686
16.4555 22.451 20.8296 0.356753 -1.19435 -5.28981
18.271 22.999 22.689 -0.426416 -3.8118 1.80586
23.1999 22.5634 22.1721 -1.69416 -0.00878668 -3.72324
20.2696 21.6264 22.6632 -0.742173 0.749607 2.05953
21.1801 23.9174 21.1121 2.89621 -2.10974 -1.35233
ITEM: TIMESTEP
6000
ITEM: NUMBER OF ATOMS
32
ITEM: BOX BOUNDS ss ss ss
1.6338682810492259e+01 2.4294034327664381e+01
1.6872977619749904e+01 2.4558604219177511e+01
1.6545264965683359e+01 2.5053205094562284e+01
ITEM: ATOMS x y z vx vy vz
17.0443 18.4411 20.7388 1.23316 -0.427769 1.1554
16.371 19.2252 18.8122 -3.14342 -0.693803 1.67596
19.7867 17.6381 19.2526 -3.53572 -0.429522 -0.15249
19.2094 19.4872 17.9384 0.79824 1.12715 -0.527303
21.2627 18.0302 17.0849 -1.71941 0.66127 -0.0866439
21.2672 20.195 16.1407 -1.65678 -1.7226 -2.75132
21.9353 19.6391 18.8711 2.39643 0.862092 -1.13374
19.3046 23.3134 21.0636 -2.03455 0.359334 1.47815
17.0408 20.5107 16.8194 1.65542 -3.28725 0.946027
19.2041 22.4336 17.8071 0.518045 2.08395 3.1814
19.1284 20.097 20.4707 -0.111984 0.0216806 -1.01337
17.443 21.83 19.6042 0.562971 -4.55334 0.768583
21.0332 24.757 19.4481 0.544168 1.84072 1.09548
24.1999 18.7886 19.622 -1.63191 0.774343 2.50483
21.2724 22.9974 17.035 1.15341 1.04754 -1.20636
23.2549 21.4749 17.7892 0.653339 -3.07122 -1.53667
20.9202 21.8987 19.6537 1.75248 0.17191 1.74043
22.9266 23.5557 19.0257 -1.62063 1.64492 1.52816
19.869 17.3949 22.231 -0.482293 0.169101 0.531697
18.2388 19.2171 23.1017 -3.42777 0.932957 -1.00074
16.1763 20.6825 21.5161 1.13407 1.04426 -3.96659
21.4649 19.1885 21.3833 -1.40148 2.23556 -0.925411
20.3067 18.9942 24.539 1.27728 -0.165002 -3.7327
22.1057 17.5639 23.2931 1.60926 2.92405 1.23793
24.2304 18.6874 22.0433 0.0939451 -2.19959 -2.01434
22.5138 17.068 20.9297 -2.22366 1.51921 2.43853
22.8241 20.6874 23.3146 3.36364 -0.613836 -0.921874
18.5783 20.752 24.8825 1.07322 -1.19772 -0.405652
17.7701 22.1634 22.9878 -5.82604 -1.47195 -1.4652
23.3663 20.9164 20.6921 3.52056 0.255311 1.90992
20.6028 21.373 22.9351 1.9935 -2.10017 0.241229
21.9885 23.6387 21.6132 3.48248 2.25841 0.406692
ITEM: TIMESTEP
7000
ITEM: NUMBER OF ATOMS
32
ITEM: BOX BOUNDS ss ss ss
1.6185961507831934e+01 2.5144112680489219e+01
1.7041350462843656e+01 2.4501201800835599e+01
1.6584606261491409e+01 2.3954112998300303e+01
ITEM: ATOMS x y z vx vy vz
17.3084 18.4446 18.5737 0.763302 1.19865 -1.72703
20.2133 17.5648 19.4182 2.57389 -1.9395 1.47913
18.9092 20.252 18.8268 -0.76175 0.51229 -2.97449
16.6423 21.568 17.8389 -2.86835 -3.00226 1.42844
18.5578 19.953 16.6987 1.34787 1.93178 0.178646
21.3286 20.9689 16.5798 0.743481 1.59091 -0.844416
21.8408 18.9043 18.1431 0.569282 0.311592 2.29929
23.9312 18.2181 20.0153 -3.6075 0.400003 -0.809327
19.6078 22.8577 16.8575 1.17798 -0.780247 -2.77218
16.6033 20.3473 20.3666 0.636956 -1.42541 2.09462
21.5043 24.508 20.4927 0.889703 -1.64563 1.83186
22.1571 23.4916 17.2333 -0.883757 0.116342 -3.62021
22.9073 21.1579 18.342 -1.72057 1.42866 -2.67472
20.8335 22.1558 19.304 -0.667533 -1.75537 -0.915709
23.5728 23.7508 19.3996 0.798009 0.755894 3.40055
17.6944 17.6719 21.1746 -2.94588 2.56642 1.94738
19.1358 19.8372 21.3507 2.4443 0.0967459 -2.43476
20.2659 17.2569 22.0881 -0.973349 -0.926599 0.355024
18.6083 18.3117 23.5227 1.17717 -0.931313 0.824076
16.3568 19.5093 22.6559 0.321419 -1.56838 0.488961
17.6581 21.3134 23.7019 3.72245 -0.415747 -1.6955
21.742 19.4879 20.8733 -1.66583 1.74899 -1.63144
20.4237 20.2698 23.4491 2.04508 -0.855686 -1.39089
22.2141 17.9134 23.7131 -0.247048 4.03618 0.548427
24.3876 18.7232 22.3489 1.2052 -0.656095 1.57227
22.8822 16.5274 21.5692 -1.47365 -1.7037 2.24799
22.9191 20.2524 23.5071 0.769602 -3.8235 1.98853
18.5427 23.3734 18.9224 3.71197 3.51349 1.18187
17.4149 22.3713 21.1073 2.15081 -1.04454 0.677355
24.329 20.6945 20.8337 -1.50559 -0.257588 -0.044039
19.757 22.8003 22.1261 -3.08867 -0.449257 -0.380874
22.3906 22.1833 21.6056 -4.63902 2.97288 -0.628857
ITEM: TIMESTEP
8000
ITEM: NUMBER OF ATOMS
32
ITEM: BOX BOUNDS ss ss ss
1.6344358016759934e+01 2.4576644908089303e+01
1.6355824432804869e+01 2.4021728175851504e+01
1.6107019711877545e+01 2.4153680107320646e+01
ITEM: ATOMS x y z vx vy vz
17.4873 18.9117 18.6897 -1.38706 -1.92544 1.66734
20.0617 18.0726 18.4509 0.718824 -1.34146 -0.560989
19.7889 21.2114 18.6012 2.71621 -2.70275 0.950742
19.5509 19.8261 16.5084 1.5292 2.71518 -1.56006
16.2569 19.3715 20.8346 -4.37789 1.13845 1.72272
18.6835 16.8383 20.8617 2.15446 -0.482403 -0.523247
18.7215 19.7589 20.9079 -0.141373 0.648537 -1.23164
19.6711 17.0072 23.0472 0.104275 -1.35232 3.61762
19.6814 20.0901 23.2858 -0.197228 1.48563 -2.423
17.7758 18.1683 22.9518 1.98906 1.80961 -0.388707
22.1223 19.2692 16.9924 0.321494 -1.73663 -2.68823
22.9846 18.6008 19.3177 1.67189 0.650222 -0.74565
21.0976 18.6711 21.2726 0.993072 0.620526 -2.58587
21.1995 22.5816 22.7511 -0.0982477 0.282546 0.0536831
21.6647 18.1885 24.1116 -1.32789 0.578544 -2.07667
23.6792 17.9993 22.0391 0.532958 -0.656339 -2.71931
21.7145 16.3606 22.1215 -0.171727 -0.363489 2.36562
22.9347 20.4573 23.0105 -1.17904 -2.79533 2.0484
17.1717 21.3315 18.4011 0.555156 1.07419 0.604556
19.074 22.5464 16.4978 -2.9048 0.644583 0.177766
17.2755 20.819 23.0051 -0.923182 -2.07406 -1.16569
18.1022 23.7302 19.1551 -1.044 -1.8687 -1.88451
16.3695 22.2444 21.0133 -2.03456 3.21345 3.22374
18.7334 22.6767 21.3255 -2.36756 1.61 1.1918
21.3842 22.0439 16.1257 2.08241 -0.554467 0.722577
21.3142 24.0716 20.7774 1.44737 2.1085 -1.53216
20.7304 23.4802 18.278 -0.759768 0.783855 -2.62049
22.9903 22.1261 18.0965 -1.42535 1.16385 2.94098
21.6954 21.3044 20.4055 1.64341 -2.8636 0.443059
24.3571 22.169 20.2652 0.326124 -2.11712 -1.16347
24.5921 19.8262 20.9747 0.873528 2.71429 1.37888
23.7738 22.8859 22.5635 0.680237 -0.407874 2.76018
ITEM: TIMESTEP
9000
ITEM: NUMBER OF ATOMS
32
ITEM: BOX BOUNDS ss ss ss
1.6316419224517809e+01 2.4567270832779524e+01
1.5890846768392745e+01 2.4281918863803678e+01
1.6148823895927872e+01 2.4018300336232247e+01
ITEM: ATOMS x y z vx vy vz
18.0744 17.8707 19.6271 -1.21142 -1.45202 0.661375
20.7472 17.5628 18.6831 -0.968464 -4.76501 -1.6751
21.5796 19.6646 16.6604 -2.05153 -0.943165 1.32737
22.0718 19.5435 19.2371 -1.12687 -1.12355 0.484353
19.2191 19.7842 17.5458 0.749509 3.04942 0.405271
16.683 20.5865 18.3699 -0.632586 2.57179 1.66597
18.4148 22.3702 17.4512 2.87481 1.28938 -0.151732
19.6433 24.4022 18.7536 -5.23537 1.79571 -0.592568
20.5535 22.0412 18.9438 5.02453 2.86513 0.160026
20.3286 21.7247 15.9937 -0.481557 -1.2612 -1.79637
20.5981 24.1826 16.5612 -2.22846 -2.4164 0.467049
22.7644 22.0087 17.5181 2.86541 1.86699 0.5215
19.4412 15.7794 20.6366 0.572737 -1.20369 1.17391
19.5499 16.4946 23.0305 1.68523 0.699491 -1.05607
17.9528 18.2547 22.2388 -0.956907 -2.04966 -0.837374
20.2115 18.1384 21.2029 5.51272 -0.119296 -1.14227
21.7964 17.7174 23.8668 1.47851 -0.444457 1.85933
23.0241 18.5001 21.5766 1.42548 -1.66559 -2.17955
22.0296 16.1999 21.7324 1.31116 2.39764 -1.47966
16.3876 20.3926 20.9521 -1.72016 2.1998 2.39298
18.7649 20.568 20.2771 2.37569 1.27314 -0.368683
19.995 19.4737 23.8653 -4.43974 -1.55806 2.35636
18.0216 21.0054 22.5802 -0.754625 -1.23692 -0.514806
17.3945 22.8554 20.3378 -1.12896 0.564988 2.21237
20.1477 23.5562 21.4831 3.64622 2.92363 -3.4046
20.2201 22.239 23.6794 0.850132 0.942712 -1.93092
22.3556 20.4169 23.9746 -2.46875 1.80479 -1.29946
22.161 23.6401 19.9416 2.30907 -2.1199 -0.678548
21.3147 20.7458 21.5774 -2.38083 -2.16218 -0.309929
23.8565 21.6404 19.9278 0.421616 -1.3714 2.37666
24.5126 20.7985 21.9102 -1.78174 2.90566 0.981863
22.8247 22.4813 22.5042 -3.53484 -3.25779 0.371274
ITEM: TIMESTEP
10000
ITEM: NUMBER OF ATOMS
32
ITEM: BOX BOUNDS ss ss ss
1.6211370379165757e+01 2.3867522108920383e+01
1.6146456751581493e+01 2.4780886592049605e+01
1.6624562478873184e+01 2.4528375386901601e+01
ITEM: ATOMS x y z vx vy vz
17.4337 18.307 19.6454 -1.16537 1.00756 0.50761
19.1028 19.5512 17.9604 3.06891 1.09994 -2.55891
20.2868 17.507 18.0108 0.948971 1.86813 -1.57602
21.7409 19.127 16.7773 1.62706 2.35314 -1.33667
23.1173 18.562 19.0766 0.245807 -2.31332 2.89301
16.4035 21.0347 19.1843 0.270623 2.00827 -0.922358
18.5594 22.3605 18.0476 0.308872 -1.53674 -0.273427
18.5481 24.8329 19.8964 -2.29499 3.30629 1.4799
21.1993 20.6532 18.9342 3.03373 -2.31078 -1.83068
21.2454 21.6224 16.6178 -1.36508 -1.09743 -0.636454
20.2829 24.2777 17.8908 1.54093 0.502061 -2.92323
23.8476 20.4952 17.6689 -1.20907 1.75145 -0.393142
19.2595 16.1398 19.7791 1.54014 -0.498888 3.14407
20.8627 16.4422 22.3407 3.61422 2.04499 0.979811
18.4884 18.6441 21.9041 2.19943 -1.43315 -0.90212
19.7047 18.8804 24.2183 -2.76455 -0.794242 0.993875
20.7088 18.442 20.7676 -1.63996 -2.61464 -1.82377
21.9727 18.491 23.3993 2.88245 0.823221 1.71218
23.8232 18.8361 21.4846 -2.02772 0.135661 -1.43396
21.8255 16.3702 19.5168 -0.972377 -0.896669 1.6299
16.2118 20.4531 21.7879 0.0327353 -0.243639 3.56708
18.6255 20.7514 20.3092 -1.54623 1.52303 1.47195
18.2566 21.1791 23.205 -2.15507 1.03146 0.289116
17.5605 22.8946 21.0476 -3.70734 2.03929 -0.610367
19.8397 23.5547 22.6323 -0.486752 -1.0562 0.946994
20.4416 22.8708 20.0164 1.47206 -0.275025 -1.0278
20.6683 21.3565 24.4975 3.12492 0.993406 -1.91069
22.5871 22.9458 18.5349 0.677571 0.210356 -0.0444401
20.761 20.8395 22.001 -0.981858 0.0488628 -1.11435
23.5189 21.4816 20.1983 -2.03558 -1.17929 -1.60021
23.2705 20.6536 23.0411 1.24888 -6.29364 0.231668
22.4853 23.083 22.2476 -3.48538 -0.20349 3.07144
ITEM: TIMESTEP
11000
ITEM: NUMBER OF ATOMS
32
ITEM: BOX BOUNDS ss ss ss
1.6528520725830422e+01 2.3629641130248149e+01
1.6335098219718482e+01 2.4249693001614204e+01
1.5896145903975194e+01 2.4841779306302389e+01
ITEM: ATOMS x y z vx vy vz
18.0505 18.6838 19.7257 -0.686594 3.08841 -2.55541
19.0277 20.1915 16.6462 0.358008 -2.39418 -1.80524
19.6824 17.8894 18.0393 -0.829718 0.114523 -1.18746
21.3821 18.7816 16.5607 -0.776986 -2.14871 1.22887
23.237 18.8157 18.6351 2.42028 -1.78781 -4.95349
20.6602 18.9594 20.1422 2.15691 -3.22215 -1.54394
21.8319 16.857 20.0239 1.50576 -0.72331 2.4004
16.9435 20.8793 18.5765 -2.97728 -1.3335 1.49838
18.5931 22.7371 17.8641 -1.57229 0.320578 -0.684711
18.7202 24.1466 19.7703 -0.607295 -2.17067 -0.47021
21.0507 20.9625 18.6341 2.03301 -0.416245 -1.37551
21.0992 21.8021 16.274 -0.922767 -0.697691 -1.05401
20.839 23.7932 17.7769 -1.5267 2.36482 1.19681
23.0537 20.7141 16.8193 -0.0204809 -1.61323 -1.33706
21.0938 22.9443 20.6634 1.32421 0.885011 -3.12487
23.0872 22.6116 18.4877 1.99416 1.21844 3.57813
19.201 16.4167 20.5435 1.42422 1.67824 -3.56738
21.0821 17.1658 22.575 0.23794 2.14533 0.996361
18.6476 18.5079 22.2544 -2.5555 -0.841449 0.406432
19.8272 18.5039 24.3639 2.52229 -2.5788 1.88896
22.2383 18.8887 24.211 0.591904 -2.04012 0.0587772
23.078 18.5762 21.4395 -3.2572 -3.68277 1.04106
16.6375 20.1056 21.6195 1.09515 1.92267 4.62723
18.8412 21.1117 20.5362 -1.97994 1.56989 -0.506882
18.2123 20.7788 23.8727 -1.45354 -1.961 -1.48515
16.8073 22.726 20.4642 -0.882722 3.17968 -1.17638
18.785 22.5561 22.6284 -1.16725 0.297255 3.21928
21.1118 21.4659 24.6282 -0.70756 0.0778676 -1.38669
20.9149 20.4914 22.2273 -0.429162 3.60876 0.111765
23.0962 20.9604 20.5889 4.06215 2.60195 3.96151
23.6745 20.7234 23.1359 0.282136 1.42372 1.3242
22.1329 22.892 22.9122 0.344864 1.11448 0.676249
ITEM: TIMESTEP
12000
ITEM: NUMBER OF ATOMS
32
ITEM: BOX BOUNDS ss ss ss
1.6423020456045275e+01 2.3678811274118129e+01
1.6160225239957953e+01 2.4295738827024593e+01
1.5997880614482050e+01 2.4968906788139442e+01
ITEM: ATOMS x y z vx vy vz
17.7092 17.8939 18.6821 -0.315045 -3.96932 0.822096
18.8982 19.8358 17.7894 -1.16296 -0.113752 1.58452
19.8618 16.5388 18.6765 1.05535 0.354516 -0.644562
21.3303 18.7972 17.2845 0.464286 -2.15644 -0.991547
23.7903 19.7417 18.6365 1.81571 -0.768147 -2.20019
20.4516 18.7568 19.8195 -0.977797 2.57568 1.90571
22.4267 17.2179 19.5074 -0.115134 2.09146 -0.488638
16.6098 20.3307 19.9401 -3.60754 0.329659 -1.7898
18.3999 22.3532 17.8707 1.18176 -2.08617 2.29479
18.7065 24.2804 19.8026 -3.4787 1.52564 -5.73767
21.622 20.8045 19.0526 -0.32959 -2.06594 2.03732
20.4571 21.4361 16.3671 0.294715 2.38069 3.06857
20.9766 23.262 17.9985 2.38118 0.218039 -0.506436
23.108 21.1644 16.8093 0.507602 3.83849 -0.900049
21.1083 22.9711 20.6083 0.736661 0.678956 1.62104
23.4749 22.7806 18.7459 -0.596312 -1.24909 0.779365
18.4891 16.3744 21.0141 -2.69563 2.08017 3.07431
20.9986 17.2655 21.7117 -1.49566 -4.54023 -0.595124
18.266 18.9637 21.2703 3.49963 -2.60358 -0.371687
19.258 18.5057 23.5122 1.4898 -0.128058 -1.63982
22.3709 18.2337 23.7265 -0.324508 -2.40227 0.233194
23.2126 19.1729 21.0726 1.43855 -1.25403 -2.54971
16.9421 21.6068 22.1174 2.04406 2.79553 1.05857
18.8785 21.3598 20.3415 3.90272 -2.15375 3.04715
19.2169 21.4846 23.4287 0.201732 2.22997 -0.555959
16.6394 23.0293 20.0477 -1.33983 3.24522 0.66283
18.8506 23.4131 22.1748 -0.57003 -2.18748 -1.18725
21.2024 20.1111 24.7827 -2.09156 -1.69243 -2.20904
20.9831 20.1625 21.9207 3.25391 0.531806 0.134839
23.4529 21.8576 21.134 -2.83177 2.80697 1.40801
23.3677 20.3747 23.4801 -2.7382 0.46099 0.466029
21.5796 22.5595 23.314 0.402579 1.2269 -1.83085
ITEM: TIMESTEP
13000
ITEM: NUMBER OF ATOMS
32
ITEM: BOX BOUNDS ss ss ss
1.6839757015083521e+01 2.3974635382699780e+01
1.5580715712852546e+01 2.4621302138534549e+01
1.6301034172750985e+01 2.4461410224359806e+01
ITEM: ATOMS x y z vx vy vz
17.7035 18.0068 19.3265 0.0847312 0.97058 -2.12147
18.9134 19.3632 17.6609 1.76299 -0.322145 0.0858875
20.1243 17.0239 18.673 -2.53542 3.22248 -2.35707
17.0586 20.5309 19.7126 -1.52096 -1.29284 -1.55179
21.3659 18.8781 16.7314 1.18519 0.846956 -0.148309
23.7282 19.3265 18.0589 0.56317 1.85569 -0.747465
19.5751 18.9521 20.9493 -2.01698 -1.29521 -0.311947
22.6878 18.4856 19.9845 2.7745 -0.144574 2.92611
18.4971 21.9192 17.9753 -1.63552 0.745211 -2.13142
19.421 23.771 19.2678 0.409068 -3.18889 -1.70283
19.0682 21.5213 20.4451 2.98299 -1.83296 -1.76119
16.9741 23.1014 20.3252 -0.830319 -3.74317 2.29528
21.0119 20.5593 18.895 -1.63371 -0.964661 -0.427879
20.3454 20.7871 15.8975 0.79107 -0.0183409 2.23607
21.2019 22.8543 17.718 -1.99425 -2.0836 3.22908
22.9239 20.974 16.5253 1.96543 2.00933 -0.397978
23.2582 21.946 19.3562 -2.95868 -1.12198 0.329423
18.5774 16.6548 21.3088 -2.77525 2.66856 -0.107166
16.824 18.9533 21.8635 -2.87206 -2.09889 0.538854
19.3998 18.529 23.42 -1.85137 0.373045 0.650213
21.2317 16.3959 20.7523 -0.00200903 1.60198 0.860194
21.9024 18.1216 22.7111 -0.137468 3.10164 2.75356
24.1028 20.3877 21.0393 -1.22667 -0.593928 -0.487049
21.2797 20.2569 24.3148 1.90523 -0.206231 0.582285
21.6111 20.6858 21.577 0.376581 2.01162 0.103421
16.615 21.4547 22.1595 -0.714236 0.00969946 -0.759477
19.1226 21.0454 23.3153 1.12628 1.94624 1.5438
18.4514 23.4246 22.2677 2.11553 -0.501654 1.61892
21.3454 23.4151 20.925 2.85142 -0.232274 -0.501304
23.4392 22.2628 22.8647 2.5933 -2.16237 -0.601695
23.7207 20.0454 23.267 2.78263 0.0926241 -1.71147
21.1583 23.0065 23.3514 -1.56521 0.348071 -1.9256
ITEM: TIMESTEP
14000
ITEM: NUMBER OF ATOMS
32
ITEM: BOX BOUNDS ss ss ss
1.6887626248914991e+01 2.4374282845883293e+01
1.5994872149839981e+01 2.4412530753090337e+01
1.6180898030487729e+01 2.4106279092215175e+01
ITEM: ATOMS x y z vx vy vz
18.5056 16.7837 19.1222 2.21466 -0.095526 -0.684136
18.7388 19.3532 17.4929 -1.30432 0.353585 0.657801
20.7293 17.6941 18.7996 -0.508382 -0.0588983 -2.56787
17.045 19.947 19.2905 0.959328 -0.313664 -0.873178
21.2749 18.8745 16.3483 0.15412 1.39233 0.421432
23.6323 19.4212 18.5516 -1.55578 -1.27418 0.655505
22.434 18.3037 20.9368 2.73143 1.14605 1.34443
18.0227 22.3215 18.4021 0.829717 -2.23718 0.45045
19.0264 24.3082 19.6914 -2.63176 0.8074 1.29006
21.2112 20.5036 18.7835 -1.89019 -0.779884 1.59403
20.0626 21.1944 16.2367 -0.812107 0.982846 2.09803
21.0601 22.933 17.9391 -2.42942 0.19982 -0.96765
22.8465 20.8017 16.6381 1.48925 0.216766 -0.754062
23.4087 21.9633 19.0089 2.77648 -2.7907 1.21092
19.4738 19.0896 20.4283 -1.39067 2.04375 -0.199057
19.5036 21.8986 20.6403 -1.12711 -3.20184 1.35894
17.0762 22.9061 20.883 0.669511 0.472876 -0.527197
17.9064 16.211 21.9664 2.69451 2.27239 0.0592912
16.5909 17.964 20.6352 -1.89809 -0.895699 1.22746
18.2879 18.5509 23.0236 0.60168 -0.0703324 -0.531073
20.0167 16.7607 21.5076 -0.265816 3.58984 -1.41891
20.975 18.5338 23.1244 -0.634784 -0.0227974 0.631979
24.4052 20.0888 20.7202 -0.595284 -2.05606 -2.2336
22.3956 20.9725 24.4209 -0.471093 3.90268 2.0967
21.9029 20.7787 21.6686 1.20595 -0.364665 0.294933
17.3896 20.57 21.6754 1.27302 0.90416 -4.56061
19.7165 20.9427 22.9981 2.25059 -1.46078 -1.32839
19.2119 23.9488 22.1458 3.91246 -0.0372416 1.82157
21.6514 23.7988 20.9122 -0.249195 -1.50374 -0.412404
23.4141 22.8823 22.1655 -0.959765 -2.63174 -2.27212
23.483 19.3198 22.9855 -1.59558 0.091711 0.515465
21.2414 23.0196 23.4972 -3.44337 1.41871 1.60126
ITEM: TIMESTEP
15000
ITEM: NUMBER OF ATOMS
32
ITEM: BOX BOUNDS ss ss ss
1.6564441167622594e+01 2.4623215878188972e+01
1.6454434591622789e+01 2.4483988748923785e+01
1.6118423486565923e+01 2.4309463460780066e+01
ITEM: ATOMS x y z vx vy vz
17.9965 17.2844 19.5386 -0.0281366 -2.47771 -2.65391
19.1088 19.4209 17.3638 -1.95956 0.861127 0.804417
17.2793 20.5429 19.281 0.210999 -0.925854 -0.39898
20.2452 17.3308 18.4668 0.408279 0.832601 -0.200715
21.8898 18.543 16.7118 1.36 1.89589 -1.15167
23.5962 19.3276 18.3229 -1.34044 1.09003 1.03009
21.1192 20.3364 18.6814 0.766994 -0.958255 1.25966
18.4946 22.6234 17.5326 -1.9406 -0.116784 0.775644
19.2034 24.3333 19.8456 -1.11127 1.48039 -0.331687
20.5921 21.0829 16.0604 0.170162 -1.76274 2.00325
17.1118 22.9069 20.1809 2.15664 -0.412551 1.33315
20.9486 23.2553 17.9458 0.504999 0.34307 -1.93604
22.9331 21.4756 16.6836 -0.169512 0.198174 -0.49844
23.0695 22.0105 19.1965 2.74262 0.661372 -0.375892
19.198 18.9864 20.999 0.0665754 -1.16069 0.524805
18.7867 16.5861 22.3684 -0.337356 -2.33557 -1.63958
16.5876 18.3835 21.6449 -0.280502 -0.894972 2.09521
18.108 18.6703 23.8631 -2.01565 2.95121 0.541702
22.3571 18.2911 20.4161 1.90418 1.43254 1.26501
20.7993 16.3372 20.8969 -2.26366 -2.11619 0.19314
20.8693 18.2882 22.6889 0.341038 2.85653 0.858097
24.2863 20.4385 21.1415 0.876646 -1.70763 -0.130558
23.4317 18.8402 22.9647 -0.97706 -2.32269 -0.742053
19.5698 21.6882 20.2757 1.15239 -0.219982 0.977081
17.1064 20.7127 22.4141 -0.570505 0.0972006 -0.606959
19.3449 20.6704 23.7892 -0.0730465 -3.18412 -3.16702
18.573 23.416 22.2635 -1.28214 3.61026 -1.49166
22.0519 20.7863 23.9747 4.08656 0.273299 1.17569
21.6464 20.7781 21.4849 0.690737 -1.24855 0.697305
21.8165 23.8947 20.4805 -0.564571 -0.0353722 1.36295
23.6685 22.4405 22.2281 -3.93479 0.976323 -1.72643
20.8503 22.9575 22.9342 1.40996 2.31962 0.154375
ITEM: TIMESTEP
16000
ITEM: NUMBER OF ATOMS
32
ITEM: BOX BOUNDS ss ss ss
1.6237257554453208e+01 2.4662871194912153e+01
1.6387989352613431e+01 2.3904416542071527e+01
1.6357120778116382e+01 2.3817940814972015e+01
ITEM: ATOMS x y z vx vy vz
18.429 17.215 19.3842 5.58419 -0.421328 0.384264
18.9054 19.4892 17.96 2.04251 0.68876 -2.96632
17.1719 20.2112 19.893 -3.07659 2.64405 1.26819
21.155 17.9331 18.5418 -2.04202 -2.00987 -1.17611
20.9687 18.9068 16.2705 -0.381613 -1.48906 -1.16475
23.5317 19.2793 18.7819 -0.406375 -0.40438 0.467053