ITEM: TIMESTEP
0
ITEM: NUMBER OF ATOMS
32
ITEM: BOX BOUNDS ss ss ss
1.6400090771943599e+01 2.4321889697924743e+01
1.6761658649498539e+01 2.4283555723026002e+01
1.6095094125832311e+01 2.4690444376726091e+01
ITEM: ATOMS x y z vx vy vz
19.6179 21.5028 16.0992 2.07832 -1.1921 -0.474726
19.6456 16.7657 18.7274 1.20864 0.924076 0.557819
17.5825 23.21 20.0139 1.62831 0.428736 0.329161
17.6029 21.2279 17.9377 0.519941 -0.242389 -0.493527
17.5757 18.6328 18.8079 1.00902 0.342646 -0.950197
19.5146 18.8395 16.8251 -0.817722 1.95829 -2.58584
19.1959 23.6989 17.7416 -2.99562 -2.24842 -0.586832
20.0268 21.7717 19.511 -1.96565 0.249611 -0.396238
21.4033 24.2795 19.5917 1.27058 0.326794 0.792279
23.4038 22.3405 19.6926 0.559302 0.370801 -1.30915
23.6575 19.9474 18.3845 -1.40618 1.05887 0.982335
23.2725 17.6382 20.0427 0.944366 -0.405907 -0.0166923
21.9757 20.0963 16.228 0.148293 -0.588279 1.24915
22.1242 17.6051 17.4396 1.14119 0.270245 1.35957
21.8878 22.5985 17.3856 -2.3338 -0.728523 -0.56628
20.9797 19.2168 19.3406 -1.85838 -1.47396 1.32567
16.4042 20.5764 20.3969 -0.143478 1.69986 -1.74409
19.0467 19.7676 21.1905 -1.78505 1.40458 0.448777
19.6549 23.71 21.7897 0.0356614 0.618073 -0.0498689
16.9089 19.1565 22.7996 1.03574 -0.746669 1.25464
18.6711 20.4094 24.5401 2.33354 -0.206037 0.526056
19.485 17.9287 23.445 -0.635047 0.0810359 -0.10058
18.1309 17.0614 21.1289 -1.55065 -0.771633 -2.1992
17.6624 21.9932 22.547 0.120355 0.364197 1.19412
22.7352 18.3726 22.7065 1.03951 0.243546 0.0243547
23.3464 21.1224 23.6004 -1.49234 -0.319667 0.454604
20.6393 22.2477 23.9429 0.906774 0.0971285 0.47933
21.5518 20.8059 21.5556 -1.07956 1.04526 -1.11802
24.3178 20.1451 21.111 1.19824 -0.278152 0.844359
22.4129 23.4719 22.1323 0.0474577 -0.563738 0.294789
20.9098 16.9009 21.2982 -0.465468 -1.40782 0.118784
21.2962 19.5988 24.6864 1.30371 -0.310456 0.355425
ITEM: TIMESTEP
1000
ITEM: NUMBER OF ATOMS
32
ITEM: BOX BOUNDS ss ss ss
1.6822042309310223e+01 2.4559156120428099e+01
1.6463700490113180e+01 2.4320848090371673e+01
1.5691037939812585e+01 2.4283937474939261e+01
ITEM: ATOMS x y z vx vy vz
19.9611 21.0833 15.9512 -0.104805 -0.240239 3.87768
19.1959 16.5472 18.8436 1.22006 -0.879364 1.29075
18.1464 23.2669 19.7671 0.313183 1.12196 -1.56868
18.0554 20.9838 17.5552 -0.198598 -0.472496 -2.40486
17.7946 19.0851 19.7226 -0.0941993 -1.72938 2.00639
19.4722 18.7617 17.5026 1.16482 -1.6219 1.0981
19.2094 23.3437 16.9148 0.833482 -0.0995149 -2.04096
19.9649 21.4631 19.1019 1.20808 2.094 -2.22564
20.6463 24.3707 18.8608 -1.14425 -0.212831 0.476829
22.6033 23.554 20.1394 -0.551434 0.941441 0.732564
23.2625 21.2524 19.1691 1.53915 0.916494 -0.900931
23.2181 18.2805 19.1368 -0.166905 0.916292 -0.218547
21.8099 19.9114 17.3552 3.49003 0.590726 -1.39827
21.8828 17.0429 17.9968 -0.9934 -1.93622 -0.815823
21.7759 22.6034 17.3104 1.1722 -0.747121 2.32263
20.6571 18.6991 20.1215 -2.57697 -3.09405 1.20181
16.4634 21.2784 20.5324 -2.12963 0.407951 1.53123
19.0007 20.5031 21.7519 -4.37684 1.57464 3.40183
20.1031 23.5158 21.4534 0.902372 1.21757 0.884118
16.7194 19.1253 22.3473 -4.2753 0.857382 -1.09078
18.3562 19.7775 24.2529 0.850949 -0.682323 -1.54903
19.8462 17.9215 22.8462 0.279081 0.497845 -0.682199
17.8993 17.0968 21.0931 -2.16496 -4.81781 -0.240034
17.8122 22.3521 22.9565 -2.43357 1.65652 1.52725
22.6489 18.3419 22.1283 0.315688 1.07631 -2.60516
23.7058 20.4549 23.6935 0.338095 0.161613 -0.411382
20.2793 21.9145 23.7526 0.379341 -0.29971 0.741241
22.224 21.0883 21.4644 5.0301 0.922125 -2.03466
24.6217 19.8809 21.266 -1.72388 0.570567 -1.40631
22.7206 23.0325 23.0245 2.85961 0.328407 0.630366
21.3118 16.447 20.5958 0.475325 0.34287 -3.71789
21.2714 19.6604 24.0325 0.563179 0.638238 3.58837
ITEM: TIMESTEP
2000
ITEM: NUMBER OF ATOMS
32
ITEM: BOX BOUNDS ss ss ss
1.6646041602250467e+01 2.4417842275851243e+01
1.6514317922510806e+01 2.4578095999524329e+01
1.6511896824317496e+01 2.4356417901771447e+01
ITEM: ATOMS x y z vx vy vz
19.1738 16.6358 19.3756 0.598026 1.04635 -0.622971
17.3709 19.014 19.6688 -1.51354 -0.0276529 -2.63543
19.2629 18.3192 17.2617 -2.44536 1.64994 4.46228
23.6223 18.5655 19.5677 2.55379 -0.967892 -1.73334
21.8424 19.5531 17.1811 2.34141 1.08656 0.372963
21.6612 17.1825 18.0911 2.71837 -0.294491 0.627307
20.6376 18.8688 19.6119 1.4674 -2.63517 0.505681
18.5328 23.0378 20.1376 0.77335 -0.54349 1.55702
17.9546 20.8853 18.2901 2.39383 1.31194 3.26457
19.2679 23.0143 17.4343 -1.13841 -4.00382 -1.09728
20.1131 21.0011 16.4769 -0.715612 -0.451962 0.586995
20.3792 21.7138 18.9885 -0.317309 0.792676 -2.20704
20.7764 24.3537 19.2344 2.70369 0.0215588 4.00207
23.191 21.1379 18.4991 -0.92923 0.270685 -1.53509
21.929 23.1904 17.2399 -1.51832 -1.07076 -0.793758
16.6991 19.2606 22.1193 0.421316 -0.0815988 2.41006
18.5266 20.1506 24.0061 -1.37245 -4.09053 -0.222146
19.1354 17.827 21.8347 -3.00946 0.38184 -0.0289694
17.0458 16.7906 21.1029 -3.47277 -0.436148 -0.355337
23.4673 18.5754 22.0422 2.15789 -0.0519901 1.84996
24.3045 20.7895 20.832 0.483476 1.32451 1.57293
21.6883 17.1245 21.2826 -1.88981 0.978208 0.561248
21.0007 19.1348 23.5013 1.05428 -1.51663 -3.66464
16.4605 21.4005 20.5666 0.0780631 1.7724 -2.43713
19.2641 20.6246 21.4879 -1.13053 2.40125 -1.49118
20.5274 23.4219 21.5993 -2.08437 0.867173 2.92765
17.1884 21.7128 22.9859 -0.378286 -0.149332 -1.09958
23.0114 23.1016 20.0331 -0.35605 1.81953 -1.14766
22.9041 20.812 24.3646 2.94647 2.36461 -0.656733
20.6958 21.8315 23.9278 -0.59213 2.53984 -0.88132
21.8895 20.858 21.2166 1.24738 -2.67333 -0.307694
23.1159 22.7508 22.6783 -1.0751 -1.63426 -1.78344
ITEM: TIMESTEP
3000
ITEM: NUMBER OF ATOMS
32
ITEM: BOX BOUNDS ss ss ss
1.6431556695116484e+01 2.4392012408792858e+01
1.6380083107750078e+01 2.4536264285817396e+01
1.6186294797289690e+01 2.3821811889404692e+01
ITEM: ATOMS x y z vx vy vz
19.4092 16.5235 19.3772 -2.36452 2.5104 0.358961
17.6773 18.741 19.876 3.68148 -0.0406729 0.364245
18.9926 18.9767 17.5803 1.0078 -2.61046 1.96246
17.0455 19.0659 22.2184 0.711583 -0.734024 0.489889
18.6454 20.0539 24.0697 0.227511 1.01159 3.07525
19.1158 17.3781 22.3661 -3.80163 -0.657758 -2.27232
17.4286 16.4998 20.8413 -0.841383 -1.12989 -3.97133
23.1622 19.0712 19.7448 2.29042 0.895408 0.599661
21.8379 19.2574 17.1586 -1.23278 -0.916694 -2.77407
21.4718 17.0424 18.2323 -0.415047 1.69915 0.558892
20.3321 19.0184 19.7583 -0.308356 0.2909 -0.507015
23.6558 18.3537 22.0796 -1.58038 -2.67673 0.336616
21.3763 16.997 21.2934 3.71025 1.21887 -0.0226977
21.029 18.9524 23.0536 -3.19911 0.593412 1.23051
18.0439 23.5255 19.6665 0.20682 1.03859 0.0894515
17.7952 21.5017 18.0844 -0.658986 0.0776882 -0.457649
19.1442 23.2932 17.1348 -0.713954 -0.850466 1.73753
20.1414 20.917 16.5345 -1.1226 0.39027 -0.319799
16.3933 20.9806 20.4583 -1.86442 -3.23802 -0.157903
19.1226 20.6825 21.4683 -0.431035 0.0333544 2.37597
20.4509 23.3051 21.8978 -0.839005 -2.3173 1.34767
17.8852 22.705 22.4332 0.787603 -0.630964 -1.15312
20.6824 21.6762 23.7372 2.78934 2.01625 1.6345
20.5898 21.6479 18.9635 0.521559 0.946961 1.38597
20.6946 24.1349 19.1108 1.58013 0.238717 -1.49715
23.2211 21.25 18.5472 0.58524 0.00753639 -2.49401
21.6613 22.793 16.8575 1.88046 -0.66729 -1.45824
24.57 20.8537 21.1863 -3.54786 1.14377 2.13284
22.7331 23.1416 20.5108 1.23813 3.21198 -3.31158
23.1427 20.5021 23.8373 2.21926 0.889642 3.08718
22.0843 20.8962 21.4381 -1.75738 -0.879128 -2.9633
23.1044 22.9024 23.1237 1.24086 -0.86509 0.592603
ITEM: TIMESTEP
4000
ITEM: NUMBER OF ATOMS
32
ITEM: BOX BOUNDS ss ss ss
1.6465016614274592e+01 2.4332491477825812e+01
1.6332768660952304e+01 2.4679882226641428e+01
1.6501103345251924e+01 2.3857401650577618e+01
ITEM: ATOMS x y z vx vy vz
19.1966 16.3377 20.0158 -1.01429 0.133605 2.14328
17.7456 18.6768 19.6912 -1.51021 -1.81309 -1.64151
18.9233 18.7243 17.4262 0.640379 -1.11188 -2.07179
23.3526 18.7893 19.4042 -0.27508 -2.25862 0.936926
21.9253 19.6573 17.4478 -1.74075 -0.114721 -0.579752
21.1478 16.9232 18.1875 2.93392 -0.0938026 0.21732
20.3306 19.0203 19.4328 -0.174765 -0.458439 -3.61312
18.3627 22.8306 19.6684 -2.8757 -1.31473 -0.469862
17.8196 21.1532 18.1248 -2.93262 -1.10573 -0.878725
19.6645 23.4907 17.0593 1.19554 0.22423 -0.656617
19.9583 21.1013 16.4892 0.858971 -1.17905 -1.37611
20.5497 21.6568 18.8727 0.882386 -0.549115 -2.9233
20.7959 24.6874 19.0609 2.24527 0.821705 0.461805
23.6686 21.3706 18.8913 -0.973362 2.15414 -0.27104
22.3201 22.8447 17.3226 1.42375 3.23663 -2.56558
22.5239 23.5906 19.9381 1.52019 -0.829102 3.23607
16.4641 18.9914 22.2703 -0.338174 -0.0505573 1.08915
18.1484 20.0336 23.7307 -1.37687 0.106563 1.38427
19.2472 17.8951 22.0636 -0.764937 4.15497 1.02656
17.0668 16.7129 21.4922 -0.525972 2.67624 -0.134733
23.8218 18.8244 22.0372 1.1965 -1.28922 -0.405915
21.6707 17.3096 20.9856 3.88111 -1.24127 1.60671
21.2219 18.693 23.5041 0.872414 -3.88596 -2.56425
16.5854 21.1845 20.7514 -1.63669 -0.331496 0.76424
18.8527 20.375 21.3387 -2.10615 0.443337 3.20178
17.8166 22.4697 22.6797 1.35951 0.922913 0.220931
20.5078 23.1517 21.3984 0.473283 0.255719 0.433184
20.4714 21.3409 23.4935 2.51325 -1.75576 1.24246
24.3035 21.2243 21.2823 -1.79798 3.11151 0.503283
23.71 20.5532 23.8449 -0.563531 0.336466 -0.65266
21.7826 20.4276 21.4831 -2.32497 1.67412 2.33861
22.684 22.5985 23.2517 0.935574 -0.869604 -0.00163187
ITEM: TIMESTEP
5000
ITEM: NUMBER OF ATOMS
32
ITEM: BOX BOUNDS ss ss ss
1.6421026980021210e+01 2.4534086527115040e+01
1.6410498035071704e+01 2.4452657099245126e+01
1.6341910042762443e+01 2.3729243108423972e+01
ITEM: ATOMS x y z vx vy vz
19.4518 16.4812 20.3477 -0.659764 0.459347 -0.865234
17.5557 18.2913 19.2778 1.34392 1.34476 0.798871
19.5757 18.6638 16.8685 -0.639151 0.672021 -0.211308
20.0407 18.8213 19.4573 -0.865233 -1.19792 -0.473831
22.8795 18.8802 19.3137 -1.3705 -0.853017 -0.84733
21.9893 19.4472 16.9754 0.665235 -0.0719729 -2.33069
21.2771 16.9778 18.5875 -0.586913 -3.82824 0.289054
18.1177 23.102 20.2273 -1.70436 -1.86137 -0.295483
18.1261 20.6605 17.9381 -1.10355 0.246589 0.421286
18.964 23.5384 17.6173 -0.0231915 1.76983 -0.818778
20.1697 21.376 16.5398 2.49258 -0.464796 2.00569
20.4063 24.6752 19.2835 -0.69683 -0.507895 -0.825937
16.2278 21.6381 19.8449 -0.629638 0.0117816 0.838686
20.5831 21.7997 19.4714 0.301432 3.19365 -1.64917
23.1396 21.261 18.7282 1.24345 1.86581 -0.935926
21.6896 23.2271 17.6756 -0.137334 -0.084725 -0.133902
16.2381 19.6136 21.5058 1.50282 0.0733044 -2.68909
17.875 19.7225 23.7421 -2.21341 -0.689574 3.60291
19.8467 18.2711 22.6056 0.164664 0.323499 3.08574
17.6188 17.6583 21.8235 -0.26462 2.29892 -0.0920506
24.1371 18.1005 22.0151 1.7579 2.57669 -0.138676
22.0863 17.1815 21.2917 0.98966 -2.05167 -2.7278
21.9265 19.4631 23.9668 1.00906 0.734687 0.108951
18.861 20.5255 21.3168 -3.47273 -2.57823 -1.4938
16.8776 21.9569 22.4332 -0.326951 0.361304 0.0419467
20.8557 23.26 21.5398 -1.2238 1.40513 1.36962
20.2745 21.3955 23.2617 -2.43897 -2.6613 -0.503983
22.9067 23.4956 20.1393 2.58055 -1.76076 0.634161
24.2582 20.5838 21.0547 0.817462 -2.39304 0.084952
24.0166 20.1391 23.7735 2.11296 2.88328 1.30113
21.8142 20.0955 21.404 -1.53176 1.45938 2.58708
22.8534 22.3367 22.6123 2.90701 -0.675469 -0.137093
ITEM: TIMESTEP
6000
ITEM: NUMBER OF ATOMS
32
ITEM: BOX BOUNDS ss ss ss
1.6111761977010762e+01 2.4174919300415233e+01
1.6428312444674656e+01 2.4675767067596535e+01
1.6898637252369650e+01 2.4277029219150400e+01
ITEM: ATOMS x y z vx vy vz
19.0933 16.5871 20.0236 1.90664 -3.4354 -0.0665506
17.4101 18.6408 19.1476 -0.949337 -1.38765 -0.945013
19.4996 18.592 17.3416 0.139806 -0.877082 0.807397
16.1447 19.7561 21.9267 1.23039 0.189922 -1.502
17.9756 19.3637 23.6486 -3.26018 0.0902069 0.0144231
20.1506 17.9903 22.2123 -2.07731 -1.47038 -0.50385
17.3334 17.7144 21.5 0.625007 -0.251818 2.21621
18.7523 20.3871 21.0786 -0.946208 3.24186 -3.39535
20.6188 18.9732 19.6086 -0.562745 2.90966 1.91624
23.0811 18.8082 19.869 -1.17293 -1.1307 -0.293696
22.2582 18.5504 17.2763 -3.54073 0.878526 3.31895
21.0826 16.5007 18.1662 -0.016337 3.58333 -3.19953
22.9492 18.3093 22.3506 1.96422 1.10404 -0.842157
21.6448 16.6597 20.5922 1.47785 -0.844278 0.248242
22.5848 19.7421 24.2558 -0.338093 -0.0352056 -0.771153
21.9657 20.9816 21.4205 1.28405 0.831379 0.531819
18.1477 22.9782 20.1592 1.23325 0.201642 -0.720506
18.1266 21.0673 18.2886 0.572743 0.655668 -2.67103
19.6277 23.2486 17.175 -0.0389873 0.816389 1.11102
16.2599 21.5022 19.852 1.43117 -3.89146 3.03348
17.7819 22.0256 22.7082 1.10749 0.885512 1.11266
19.9441 20.8995 23.4193 -1.14906 2.59591 1.71535
20.4555 20.749 16.7504 -1.05893 -0.520994 -2.98165
20.4221 24.5548 19.2866 -0.257618 1.07415 -3.69329
20.6095 21.9268 19.4488 0.613463 -1.54339 0.607694
22.8471 20.9488 18.0102 -0.319054 -1.19378 -0.396464
22.2455 23.5139 18.1236 -0.038792 -0.771547 0.408732
20.3151 23.4309 21.7606 0.931264 -0.922142 0.788875
22.7485 23.6112 21.0223 -0.0331154 -1.85329 1.93219
24.3008 21.5089 19.832 0.817806 2.0853 0.995968
24.1095 20.8063 22.6171 -1.12106 -2.06746 -0.203755
22.1536 22.3114 23.7679 1.54533 1.0531 1.42675
ITEM: TIMESTEP
7000
ITEM: NUMBER OF ATOMS
32
ITEM: BOX BOUNDS ss ss ss
1.5885009037122403e+01 2.4551508971192437e+01
1.6669297008932592e+01 2.4737474884079493e+01
1.6658163063276593e+01 2.4118493189530323e+01
ITEM: ATOMS x y z vx vy vz
19.134 17.2721 19.8783 2.7155 -1.73271 -1.40982
16.9765 18.9001 19.2562 2.44366 2.58622 0.981238
19.2937 18.8662 17.5032 -2.49593 -1.57893 0.670229
21.1684 19.0301 19.2013 -0.385079 -0.136552 1.02479
23.9265 18.6476 20.1065 1.23801 2.68936 1.07611
22.0889 18.4088 16.6609 -0.969619 -0.558868 0.133147
20.8991 16.6685 18.1967 0.198696 -0.391802 -2.72308
21.505 16.8891 20.9779 -1.30432 0.38362 -0.590763
18.3118 23.6972 20.1509 -1.01375 1.89389 -0.306533
18.1339 21.0622 18.0537 3.07839 -0.466904 -0.610283
18.869 23.2376 17.5266 -2.57784 -1.84188 0.22125
16.7038 21.6093 20.0029 -1.54275 5.15003 1.22053
20.4104 24.7418 19.2164 -0.196178 0.547465 -0.974239
20.7645 21.0341 16.9524 -0.381897 3.01661 2.34711
20.3853 21.7112 19.4179 0.540802 -2.05682 -0.769391
23.2596 20.4634 18.0578 2.87696 -0.648575 1.54155
22.2147 23.4283 18.3261 -2.76744 -0.963529 -2.16819
23.5708 21.6113 20.1675 0.685153 -1.15329 -0.157362
15.9044 19.4067 21.3129 1.32551 -0.757163 0.196884
17.4963 19.5678 23.6065 1.61157 0.24424 -1.50536
17.8118 17.6151 22.1203 -2.4509 -1.03169 -1.44189
18.7483 19.9734 21.0145 0.386893 -0.278741 0.758374
20.3363 18.2858 22.6755 -0.646446 0.212949 1.86735
23.3185 18.0538 22.6523 -0.213336 3.18065 -0.516434
22.4859 20.0615 24.1365 -3.16969 -1.23316 1.56726
21.7551 20.09 21.4257 1.24182 -0.723482 1.58365
24.5387 20.3027 22.2578 -0.809666 -2.51428 0.9449
17.6277 22.0199 22.4515 -0.221938 -0.860717 3.11116
19.8001 20.8948 23.4815 0.392186 -0.557896 -1.42184
20.1908 23.0558 22.0156 3.4288 -3.10432 -3.15507
22.2915 23.8407 21.0084 -1.74438 1.89749 -0.610688
22.7187 22.1931 22.8279 0.727215 0.788793 -0.884585
ITEM: TIMESTEP
8000
ITEM: NUMBER OF ATOMS
32
ITEM: BOX BOUNDS ss ss ss
1.6184076421212872e+01 2.4241736399616883e+01
1.6532868571425382e+01 2.4478559560220848e+01
1.5869112814186458e+01 2.4309834425917238e+01
ITEM: ATOMS x y z vx vy vz
19.1125 16.727 19.781 1.91564 0.883425 -2.20063
17.2787 18.4458 19.0604 1.4612 -1.09347 -0.674391
19.1217 17.7703 17.4477 -0.76875 -0.0409036 -0.888097
18.5699 20.6088 18.193 1.31643 1.03504 1.13524
20.7722 18.9656 19.328 -1.65648 -0.774321 3.11651
21.6881 18.822 16.8964 1.15237 -2.37577 1.14338
21.2373 16.597 18.0309 -1.18146 -0.451161 0.507056
20.0452 20.5948 16.3424 -0.857216 -3.40954 2.6019
22.4524 21.2135 17.6568 0.45063 -0.567303 0.487631
18.2615 23.1906 19.4016 2.06356 1.1824 0.200268
20.49 23.0968 17.3082 1.72119 2.23418 -2.14405
16.54 21.0944 19.9074 1.01412 -1.93019 -1.55076
20.5013 24.7677 19.4808 1.30211 0.251729 2.94712
20.7145 22.0934 19.5921 0.38939 0.867352 -1.22261
22.8414 23.6755 18.6586 -2.60744 3.10532 -1.78546
23.4661 21.7711 20.4095 -2.19293 1.03046 1.32148
16.4233 19.7389 22.5415 0.829015 0.0966273 -0.853576
18.9886 20.2244 23.273 -2.23081 1.36864 0.482099
17.5712 17.6472 21.8756 -0.268507 -1.12557 1.2676
18.7037 20.1082 20.7918 -2.43529 0.0122776 -0.89697
23.4007 18.8814 19.7772 -2.55686 -1.44744 -1.6899
21.5767 16.7063 20.5081 1.98088 2.05094 -2.46957
20.1355 17.945 22.4285 0.522989 2.52395 -1.49247
22.8178 17.9363 22.479 -1.57978 -1.82442 0.970005
21.6182 19.6163 24.1902 2.83266 0.556597 2.05557
21.4181 20.397 21.6361 -0.532179 -0.665422 -1.3766
23.9632 20.235 22.5075 0.785588 0.0246128 0.19746
17.456 22.1421 22.1345 1.53623 3.46896 0.672405
20.6997 21.926 24.4971 3.64813 -0.661377 0.206114
19.9418 23.1779 22.0892 -1.51599 -2.30425 0.903525
22.1145 24.228 21.3 -1.33326 -2.86457 0.221982
22.718 22.2959 23.1159 -3.20521 0.843192 -1.19227
ITEM: TIMESTEP
9000
ITEM: NUMBER OF ATOMS
32
ITEM: BOX BOUNDS ss ss ss
1.6019046488620639e+01 2.4454463185225109e+01
1.6575938990422941e+01 2.4698039615329318e+01
1.7108607791622685e+01 2.4183280896846568e+01
ITEM: ATOMS x y z vx vy vz
18.8503 16.7 19.9922 1.47946 -0.878687 1.10065
16.5406 18.9717 19.5401 1.71852 1.21535 -0.226131
18.3492 18.1341 17.7044 0.308559 0.222273 0.916158
20.6565 18.816 19.4781 0.390569 2.95196 -1.27457
22.7184 18.5224 17.5524 -0.86618 0.852409 -1.24071
20.56 17.0259 17.9159 1.84477 1.88853 0.667768
20.7532 19.9852 16.993 0.391334 -2.74005 0.427425
23.5356 19.095 19.9293 1.32652 -1.09044 -0.522805
22.1407 16.7443 20.1173 0.753668 -0.402014 0.701808
18.2814 20.7821 17.937 1.43807 0.714295 -1.60075
22.9695 21.2937 17.6982 -2.10483 0.849031 -0.3954
18.4538 22.9819 19.9348 1.57896 0.801126 -0.433969
20.2052 23.3431 17.4405 -0.211464 -1.01026 -2.42528
16.0458 21.4782 19.7656 -0.170715 -1.29922 -2.39834
20.3219 24.6908 19.5197 1.21551 -0.208134 2.16622
20.7574 21.6523 19.1507 -1.13666 4.14856 0.507484
22.5114 23.7283 18.7601 -0.310002 -0.819531 -2.08263
23.5707 21.8249 20.3528 -3.01888 -0.652034 -1.70774
16.2799 19.6681 21.8485 0.746648 -0.795879 1.54925
18.6521 19.8496 23.1325 -0.609188 -2.39131 -1.65941
17.5592 17.6056 21.9743 -0.993687 0.602309 1.72584
18.6535 20.1076 20.4711 -0.0207136 -2.75511 -0.271919
20.3176 17.8509 22.0243 -0.937967 -1.7419 1.20049
22.9201 18.1039 22.5584 -2.0235 0.876611 -0.720325
22.5435 19.8898 24.2711 -1.71495 0.315118 0.628452
21.4621 20.5317 21.8338 -0.408195 2.32609 -1.02626
24.226 20.0285 22.2603 -0.448945 -2.14467 1.49774
17.1851 22.1981 21.9779 3.18332 1.54889 3.53384
20.394 21.7639 24.2038 -1.13633 -0.0544796 2.46929
20.1396 22.7238 21.9146 -0.661715 0.850742 0.12061
22.3796 24.1396 21.2052 0.426602 0.257742 2.25594
22.7064 22.4086 23.1824 -0.0285851 -1.43732 -3.48272
ITEM: TIMESTEP
10000
ITEM: NUMBER OF ATOMS
32
ITEM: BOX BOUNDS ss ss ss
1.6354698593600311e+01 2.3668625599053161e+01
1.6832461518145418e+01 2.4705063605394404e+01
1.6785565421765607e+01 2.4281310644094290e+01
ITEM: ATOMS x y z vx vy vz
18.8717 17.0071 19.6544 1.21157 -1.88452 0.424318
16.662 18.8516 19.713 0.54765 0.793394 -0.485385
18.1297 18.7639 17.5409 -2.52799 -0.724693 0.423697
20.5932 18.9764 19.3075 -0.945277 2.52423 1.77215
22.4753 18.5108 17.4228 1.05534 -1.07101 -0.417865
20.5129 17.0112 17.49 0.254532 -1.38432 -0.568163
20.3863 19.9037 16.542 2.3149 -1.55562 -0.736431
23.4553 19.2793 20.3242 1.14287 -0.176272 0.253151
22.1617 17.0404 19.756 2.17251 0.528591 -0.451819
18.4803 21.0027 18.3154 0.487999 0.106937 -0.304209
18.4673 23.3456 19.2311 -0.872484 0.620885 -1.54939
17.0565 21.6175 20.9638 1.41721 0.276446 -0.151203
22.5325 20.8656 18.2119 -0.211524 0.442393 -2.16692
20.8159 22.6032 17.3376 -1.78522 1.12586 -0.226461
20.4742 24.9362 18.4833 1.17172 -1.23934 -0.717297
20.8868 21.8998 19.9469 -0.194218 1.65885 0.674148
23.2855 23.4932 18.4339 -2.16638 -1.22623 3.5518
23.5071 22.1353 20.8985 -3.46638 1.09907 -0.943804
16.2696 19.3071 22.1749 0.8858 1.92646 0.902462
18.8033 19.2165 23.5253 -0.630294 -2.84697 -1.19778
17.3182 17.1351 21.8986 -2.72554 -0.188877 -0.499787
18.6023 19.6426 20.8666 -2.09755 0.742449 -0.887646
20.3265 17.4627 21.9305 -1.60274 1.38789 1.02799
23.1496 17.858 22.3388 1.56833 -0.3222 0.0591786
21.4362 18.4634 24.341 1.05513 -2.86196 -0.0359197
21.2168 20.0141 21.8538 -2.32323 -2.01705 -1.24748
23.1694 21.0082 23.2656 0.997522 2.84687 0.0344126
19.1846 22.0447 22.4651 2.53164 2.28269 0.454103
19.7229 24.3057 21.1712 1.04148 0.379635 -2.04636
20.7842 20.9395 24.296 1.23688 -2.15823 2.09346
22.2052 24.8023 20.4495 -0.763732 -0.285207 -1.13496
21.697 23.1967 22.4902 1.21947 1.19986 4.09802
ITEM: TIMESTEP
11000
ITEM: NUMBER OF ATOMS
32
ITEM: BOX BOUNDS ss ss ss
1.6723657265403023e+01 2.3604390275144318e+01
1.6942605919244414e+01 2.5297615908498969e+01
1.6287902383272037e+01 2.4404151516829376e+01
ITEM: ATOMS x y z vx vy vz
18.9753 17.4285 19.8076 -2.81176 -1.7314 -0.0470139
16.6922 19.4745 19.8613 -3.4442 -0.145659 0.915279
18.4484 18.6678 17.2526 2.36355 1.36205 -1.9048
20.8273 19.3142 18.6923 -0.259704 -2.98842 0.496701
23.039 18.1429 17.8918 0.805085 -0.221303 4.27555
20.4104 16.9574 17.662 1.13875 0.995973 0.219653
21.0373 19.3868 16.1404 -2.1352 -0.00765191 -0.965782
23.7389 19.0074 20.1175 1.1408 1.66165 0.884737
21.8029 17.1675 20.0211 1.45154 -0.326323 0.916511
18.5143 20.9143 18.313 0.189819 -1.75112 -0.802771
18.985 23.7511 18.2374 1.89117 0.641458 2.67619
22.9367 20.9968 17.9423 -1.77442 0.694285 -2.37437
20.6236 21.8542 17.2708 -1.05033 -1.02966 1.41994
20.1302 25.3994 19.4261 -0.761937 1.49132 -1.09494
20.0753 22.0917 20.1274 0.104867 -0.0180742 0.13842
21.743 23.7585 18.2708 1.16028 0.894366 1.16648
16.7266 20.177 22.5144 0.40349 -1.48472 -1.24575
18.9358 19.0116 23.4099 -0.912441 -1.65008 0.188655
17.2107 17.746 22.0274 1.296 -0.13333 0.162446
18.9856 19.6185 20.8515 -0.60621 -1.02972 -0.145507
20.4153 16.9008 22.2885 -0.701227 0.382867 0.879459
23.2179 17.9969 22.2243 0.484082 1.10526 -0.920247
21.4843 18.328 24.4285 -0.461581 -1.96173 -0.87018
21.2004 19.6753 21.8249 -0.67455 0.0614263 -0.793098
23.4673 20.6125 22.6233 0.308707 -1.79651 -1.12626
21.1323 20.8851 24.2232 -1.07729 2.23888 -2.28183
17.512 22.2464 20.622 0.972936 0.976003 0.575918
22.9378 21.8387 20.6012 -1.18816 2.10401 0.404907
19.0394 21.6989 23.0217 2.20991 0.240946 1.31864
18.9591 24.1293 21.5156 0.764124 1.93085 -0.354095
22.0759 24.5144 20.7598 1.73782 -0.227365 -0.362749
21.3594 22.9479 22.6694 -0.563922 -0.278258 -1.35009
ITEM: TIMESTEP
12000
ITEM: NUMBER OF ATOMS
32
ITEM: BOX BOUNDS ss ss ss
1.6438274227512043e+01 2.3539539522257048e+01
1.6670250196015864e+01 2.5600327716234847e+01
1.6377916399544784e+01 2.4554782001787835e+01
ITEM: ATOMS x y z vx vy vz
19.1909 17.1336 19.6277 -0.576587 3.2313 -0.423638
16.8838 18.4589 19.4939 1.08049 1.45067 -0.457873
18.5574 18.9117 17.7041 -0.519166 -0.822906 2.05432
21.0234 19.4206 19.0057 0.351486 -1.77249 -1.86793
23.2805 18.4602 17.8326 0.866735 -0.540955 -1.13556
20.7049 16.9843 17.3041 -0.317871 -0.275536 0.730283
21.2211 19.0815 16.429 2.11289 -1.55011 -1.45044
23.2345 19.1494 20.4618 1.62961 -2.02451 -1.82981
22.0381 17.0619 19.8645 3.56685 0.321702 0.835779
17.4668 21.3342 18.5651 -0.50532 -2.23524 -1.36948
18.6015 23.7248 17.9795 -1.0668 2.50869 -2.67943
22.8996 20.8418 17.6994 0.15123 -1.11268 -1.41031
19.9173 21.5795 17.3842 0.143901 0.13967 1.2794
19.95 25.5212 19.6704 -0.81819 0.399813 1.11952
20.0885 22.6064 19.9449 -2.18741 -0.202859 -2.8953
21.7076 23.4271 18.0477 -2.27827 1.21511 0.14813
22.8045 21.9796 20.062 -2.30948 -0.236252 3.60809
17.0795 20.4005 22.2214 0.121236 0.526276 -1.12706
19.113 19.2276 23.6736 -0.686231 -0.395002 0.321303
17.7949 17.8449 21.956 -0.065784 0.0342528 2.67771
18.8868 19.9544 20.3246 -0.388335 -1.13179 -2.44285
20.3701 17.0929 22.1826 -0.597935 0.22571 0.283103
22.7945 17.6874 22.515 -0.258786 -0.583827 0.644274
21.3759 18.3465 24.5288 -0.106343 2.53013 0.155306
20.9512 19.7312 21.9339 -0.859073 1.20883 -1.94631
23.323 20.1888 23.1176 -0.233857 -0.734658 -0.136658
20.9397 20.6985 24.4303 -0.600437 1.89581 -2.8499
17.5957 22.8459 20.7084 0.0777046 -0.0150006 3.39088
19.0879 21.8268 22.9077 -0.0162905 -2.07668 0.431531
19.8558 24.2117 22.0012 1.79611 2.87937 3.48439
22.0881 24.4406 20.5919 2.34537 -2.546 2.02552
21.8134 22.4656 22.4705 0.148558 -0.310832 0.832995
ITEM: TIMESTEP
13000
ITEM: NUMBER OF ATOMS
32
ITEM: BOX BOUNDS ss ss ss
1.6524908814680614e+01 2.3978284884129003e+01
1.6784294911865775e+01 2.5153528599567675e+01
1.6277484346255140e+01 2.4271001275429093e+01
ITEM: ATOMS x y z vx vy vz
18.3636 16.6138 19.8638 -1.87454 -2.27794 0.135731
16.5234 18.788 19.4172 1.01383 2.02673 0.922534
18.6926 19.1043 17.7255 1.85517 0.0285866 1.53258
21.2037 19.921 19.0078 1.20383 1.104 -0.507345
23.1973 18.1923 17.6671 2.85183 0.686511 -0.56861
20.4302 17.338 18.39 -0.986473 -0.0306244 1.26839
21.0326 19.19 16.4487 -0.433729 0.116564 -0.160118
23.7445 19.3809 20.0945 -1.85028 -2.13947 1.18012
22.2848 17.358 20.1937 -0.485541 -0.714251 1.8548
23.0311 21.1422 17.6413 -1.97698 0.919314 -2.47131
18.9525 19.0865 20.5087 -0.176498 -1.99099 0.977591
17.9343 21.2618 19.1249 -3.95737 -0.374701 -0.914683
18.6073 23.554 18.0724 -3.5338 -0.359998 -0.940587
19.7773 21.3705 17.0743 -0.203587 -0.672233 -1.34752
19.651 25.2294 19.8253 -0.105778 1.16079 -0.103565
20.3383 22.3842 20.1142 1.69999 0.298212 1.08008
21.6757 23.157 17.8977 1.9163 2.15151 -0.552718
23.0402 21.6337 20.5697 -0.902772 -0.397714 0.559082
16.7022 20.3921 21.5632 3.26692 0.732312 2.63337
18.8937 19.4321 23.6659 1.15073 0.862822 0.187871
17.5687 17.7719 22.0443 0.0504403 -0.925694 -4.21918
20.4345 16.9125 21.6102 1.32868 -0.682148 -0.71955
23.1549 18.2444 22.4569 0.96053 -0.398213 -0.571091
21.0059 18.0553 23.939 -1.28817 -1.63354 -1.15006
21.102 19.8885 21.8492 -0.819773 -0.450122 0.117095
23.6444 20.7102 22.9416 1.87321 1.24876 1.57248
21.3849 20.6299 24.3441 -0.0669059 0.651579 0.942596
17.7852 23.3203 20.598 2.7077 -0.874671 -1.8986
18.8111 21.5995 22.289 -2.65927 2.18158 0.185007
19.7389 24.1686 22.2199 -0.909663 2.10331 1.02727
22.1701 24.031 20.6521 0.990752 -1.91849 0.634868
21.7628 22.7782 22.8298 -0.638796 -0.431776 -0.686545
ITEM: TIMESTEP
14000
ITEM: NUMBER OF ATOMS
32
ITEM: BOX BOUNDS ss ss ss
1.6420563661187991e+01 2.4253945759979512e+01
1.7030732869463172e+01 2.4842824443121877e+01
1.6831326576370859e+01 2.4297306103479880e+01
ITEM: ATOMS x y z vx vy vz
17.8083 16.9208 19.3545 4.13113 0.239145 -0.0259043
16.3963 19.2804 19.3603 -0.830022 1.48209 0.982154
18.6249 18.7709 17.574 1.49441 -0.282184 3.11198
21.2158 19.6209 19.1586 -1.95757 -0.823324 -1.49129
23.0151 18.0541 18.5166 -0.960007 0.775745 2.71656
20.3651 16.927 18.5538 -1.83779 -0.37773 -1.20617
21.2979 19.0708 16.637 -0.141985 -0.148283 -1.04862
24.1279 19.2762 20.5586 -0.781822 1.29381 -1.91361
22.1595 17.5257 20.9484 -0.52194 -0.894578 -0.0343181
22.6652 21.0057 17.5904 -2.38467 -1.48808 -1.42393
17.5217 21.4944 18.7868 -0.564595 -1.0662 -0.468111
18.9208 23.4973 17.6998 2.96887 -1.5288 -2.26178
19.8752 21.1745 17.3163 3.0417 0.727253 -1.4752
19.1057 24.6096 19.9045 -1.36717 -1.02401 -2.00398
20.3817 22.2186 20.1638 0.625778 1.45528 -0.924096
21.5027 23.5998 18.0828 1.72168 1.10598 3.81745
23.1583 21.9826 20.2667 0.994368 1.16928 -2.05422
18.834 19.7845 20.4494 1.26031 0.300417 1.19692
16.802 20.4639 21.8595 -0.728864 -1.00354 0.652758
18.9966 19.0246 23.0685 0.384766 -0.890817 1.13219
17.0696 17.9621 21.5744 0.828792 0.86647 -0.821403
19.6081 17.289 21.2012 -0.590688 -2.90486 0.650678
23.7862 18.8884 23.0501 0.676704 -0.0808841 1.17222
21.3959 17.4735 23.514 -0.560225 2.46129 -2.58767
21.5716 20.2305 21.7758 -1.27898 -0.543463 0.0646653
21.448 19.8753 24.293 -0.743419 -0.173962 0.0586885
24.3331 21.2191 22.3343 -1.36695 -1.13406 -1.0762
17.642 22.6095 20.8771 -0.342303 2.0862 1.59829
19.4378 21.5766 22.8256 -0.24467 0.105933 2.22121
19.8007 24.1271 22.3542 -1.6601 0.416867 -0.220151
21.6665 24.3756 20.3641 -1.59556 2.18742 1.61023
22.1057 22.7111 22.6259 2.33084 -2.30839 0.0506685
ITEM: TIMESTEP
15000
ITEM: NUMBER OF ATOMS
32
ITEM: BOX BOUNDS ss ss ss
1.6594533349095130e+01 2.3758210514818629e+01
1.6824325326001262e+01 2.4572453068894070e+01
1.6673649554953016e+01 2.4131871433246111e+01
ITEM: ATOMS x y z vx vy vz
17.7314 17.3287 19.4385 1.02738 -1.99053 0.284248
16.398 19.6376 19.801 -1.30814 1.46052 0.427044
18.7983 19.2069 17.831 -0.660937 -1.0606 2.07979
21.22 19.6175 19.0136 0.998877 0.655245 -2.71527
23.0247 17.862 18.0675 -2.11103 0.952027 0.874044
20.3739 17.1637 18.7367 0.614479 -1.98726 0.445866
21.3847 19.0022 16.5549 -1.31456 -0.283253 1.44595
23.8644 19.5956 20.1833 4.86963 -0.378901 -0.795197
17.9607 21.7943 18.5151 -0.00632902 0.664932 -3.16994
19.4067 23.8008 16.7117 0.322965 -1.06981 4.41985
20.2925 21.3544 17.1004 2.66275 0.0273025 0.153215
18.9313 24.1938 19.1351 -0.0281066 0.710094 -1.53638
23.0561 20.8684 17.9428 -1.49338 1.95412 2.46514
20.0247 22.1537 20.2182 1.38442 2.50588 2.34033
21.5505 23.491 18.2448 -0.379553 -1.71889 -2.48059
22.7586 21.9929 20.4755 1.40101 1.43288 -1.9571
18.8621 19.7034 20.7192 -1.80448 -0.534481 0.566375
16.9218 20.4496 22.784 -2.04198 -1.32758 -1.27469
19.2003 18.8162 23.3642 -0.742115 1.36266 -0.853553
17.0681 18.032 22.0234 0.704859 -0.203559 1.27814
19.5258 16.8937 21.2411 -0.286271 -1.96494 1.35025
22.4981 17.5215 20.8149 0.158643 1.10915 -3.95344
23.8764 18.7422 22.9494 -1.8203 -0.289369 0.935259
21.4037 17.6987 23.1236 -2.48967 -0.777089 -0.269471
21.4161 19.932 21.6235 0.0308297 0.529456 -0.00191791
21.4407 20.2058 24.161 1.10203 -1.66384 -1.54628
17.5552 22.3422 20.9177 -0.0721456 -1.1991 -0.0560984
19.2683 21.3853 22.8413 1.49215 1.23425 -0.409976
19.4551 24.0376 22.187 1.14938 -0.467814 1.07334
24.1877 20.8961 22.5378 -0.0133794 -0.36302 1.4994
21.5681 24.4204 20.7037 -1.19952 1.12914 0.580385
21.616 22.4999 22.678 -0.147506 1.55239 -1.19871
ITEM: TIMESTEP
16000
ITEM: NUMBER OF ATOMS
32
ITEM: BOX BOUNDS ss ss ss
1.6284417363292082e+01 2.3849421801462608e+01
1.7169184160559844e+01 2.4573554056357260e+01
1.6525645973152809e+01 2.4247637500126046e+01
ITEM: ATOMS x y z vx vy vz
17.7059 17.5222 19.3504 0.452773 -0.405313 -0.586152
16.5701 19.9171 19.8868 -0.913506 -0.87649 -0.537775