ITEM: TIMESTEP
0
ITEM: NUMBER OF ATOMS
32
ITEM: BOX BOUNDS ss ss ss
1.6230700167658579e+01 2.4747232406096952e+01
1.6333062767752455e+01 2.4820555496567511e+01
1.6854731702686326e+01 2.3642389927724828e+01
ITEM: ATOMS x y z vx vy vz
18.7088 17.0577 22.2504 0.619244 0.614936 -0.805549
16.8099 18.7792 21.9014 0.216821 -0.157078 1.57349
19.0747 20.3323 18.1351 1.0872 -0.496126 0.911346
19.4645 19.6634 21.064 2.37365 -0.402168 0.644143
16.8904 20.3563 19.7593 -0.66215 -0.135226 -0.0662619
18.9192 19.4685 23.6383 -1.38251 -0.525907 -2.25833
18.246 17.858 19.5856 -2.05061 0.251067 0.0279976
23.8384 18.7937 22.7358 0.126326 0.711026 0.117633
20.5342 16.4646 20.4167 0.92796 -0.371736 0.162625
21.5574 20.3431 22.9839 0.655815 0.116576 -0.503129
24.7432 17.9495 20.2897 1.0182 -0.96757 1.17664
22.8325 16.5825 18.9624 -0.0798909 -0.81679 0.703856
23.058 16.3371 21.6623 -0.784913 2.27528 -2.47137
22.0794 18.7073 20.6621 0.109957 0.228343 1.36247
21.1574 17.6717 23.06 -0.337353 -1.23607 0.110371
23.351 19.1673 18.1788 -1.99134 -1.64332 1.21722
20.7438 18.2578 18.2792 1.1819 -0.766883 0.483784
19.9782 22.9766 17.8605 1.15093 0.158336 0.825868
18.0852 24.2166 21.9878 2.20785 -0.772678 -0.633735
18.975 22.2857 20.3074 -0.13194 1.69589 -1.84212
17.2924 22.3731 17.9481 -1.90306 1.16583 0.396295
17.2307 21.3802 22.3479 -1.39507 -0.298161 0.58105
16.2348 22.9709 20.3927 0.925416 -0.0805646 0.582362
20.2428 24.8165 20.4175 1.20684 0.466183 0.805485
19.5998 22.275 23.1863 -2.86458 -1.84492 -0.515509
17.921 24.6359 19.1614 -2.38196 -0.628027 -0.686283
21.8935 22.7779 21.6007 1.14053 0.208884 -0.392789
23.774 21.8177 18.0818 1.12709 0.787838 0.031154
24.1072 20.6131 20.5158 1.63294 0.41661 0.288536
21.4636 21.1234 19.4543 -1.45394 1.11044 0.84071
21.506 20.7407 16.8588 -1.27128 0.655911 -1.18846
22.327 23.8465 18.9539 0.981936 0.280082 -1.4795
ITEM: TIMESTEP
1000
ITEM: NUMBER OF ATOMS
32
ITEM: BOX BOUNDS ss ss ss
1.6230700167658579e+01 2.4747232406096952e+01
1.6333062767752455e+01 2.4820555496567511e+01
1.6854731702686326e+01 2.3642389927724828e+01
ITEM: ATOMS x y z vx vy vz
18.6761 17.2139 22.429 0.103778 1.19845 -1.28012
16.8071 18.9324 22.0527 1.99342 -0.938 0.0360002
19.1197 20.2775 17.9181 -0.23552 -0.28105 0.724795
19.4411 19.5122 21.0363 -0.272625 0.185869 0.396952
16.8115 20.2178 19.6765 0.143999 -2.21759 0.638546
18.9587 19.809 23.6717 -0.816852 0.848519 -0.728364
18.1896 17.8687 19.5165 1.14342 -1.41967 0.316501
23.913 18.6685 22.8464 -0.551542 -2.4254 0.20511
20.5355 16.5381 20.4821 1.02274 2.24143 0.553268
21.8741 20.4019 22.6167 1.84107 -0.119585 -1.68604
24.6324 18.1458 19.895 0.010944 -0.0820595 -0.833848
22.6834 16.662 18.9674 -0.157533 -0.873969 -0.800449
23.224 16.4939 21.501 -0.375023 -0.206099 0.652323
22.1624 18.6561 20.5574 0.193889 0.200787 0.755979
21.1578 17.8602 22.9517 -1.32923 -0.24919 -0.86982
23.0503 19.1205 17.8724 -1.20882 1.13583 0.493391
20.6113 18.188 18.3496 -1.10262 -0.423462 0.266386
19.8958 23.1449 17.9422 -2.16154 -1.07217 -0.255948
17.7595 23.9283 21.7944 1.56508 -0.986961 0.329738
18.5245 22.063 20.2079 -0.067009 1.48288 1.31719
17.3078 22.3375 17.9083 0.360002 2.18574 -0.770053
17.2599 21.544 22.4841 0.72331 1.33611 -0.737429
16.0462 22.7926 20.2343 0.509353 -0.33045 -1.51795
20.3131 24.0997 20.6821 -1.70387 -1.08969 1.0998
19.8404 22.3767 22.754 0.703325 0.802307 -1.16363
18.0396 24.503 19.2141 0.782435 -1.5089 -1.09364
22.5025 22.8733 21.6196 0.881958 0.932984 -1.97585
23.9111 21.3218 18.8269 1.25697 -0.688726 0.810306
24.0515 20.5886 21.0809 -0.46018 -0.300143 1.30881
21.2221 21.414 19.6732 -1.95706 0.159621 1.76853
21.6863 21.4042 17.0324 -0.466582 0.140743 0.828052
22.432 23.6817 18.8451 -0.369699 2.36184 1.21147
ITEM: TIMESTEP
2000
ITEM: NUMBER OF ATOMS
32
ITEM: BOX BOUNDS ss ss ss
1.6229573131950850e+01 2.4530429089189898e+01
1.6338665095687094e+01 2.4507012683753903e+01
1.7377061981189168e+01 2.3531767454048577e+01
ITEM: ATOMS x y z vx vy vz
18.7375 16.9578 22.1259 -0.487996 -0.16191 -0.298126
17.0398 18.8836 21.9094 1.86221 0.343835 0.114892
18.7419 20.2444 17.8843 3.18396 0.577774 0.363853
19.6517 19.6479 21.2564 0.154902 -0.38582 -0.616101
16.3894 20.3499 19.7892 -0.879097 0.790862 1.11704
18.9542 19.558 23.6231 -1.34517 -0.500224 -0.956737
18.1192 18.1909 19.5018 1.11727 1.04724 2.06087
23.9059 18.4829 22.9945 -0.27365 1.34788 0.0825714
20.5662 16.5358 20.2731 -0.353407 -0.471133 0.642282
24.8499 18.3322 20.13 2.69299 1.44268 0.475219
22.7788 16.8523 18.9109 1.1466 -2.35788 0.557193
22.9919 16.4642 21.4071 -1.56534 0.422544 0.201082
22.3128 19.0266 20.7452 -0.760951 0.689498 -0.756598
21.0203 17.7449 22.8834 -0.645138 -0.0257772 0.330498
23.4054 19.0973 17.8902 -0.659442 0.0976225 -2.22587
20.7372 18.5697 18.5503 0.213606 0.79963 0.534069
19.6671 22.7362 17.6876 -2.46866 1.23931 -0.777697
18.0415 24.108 21.8457 0.25109 0.706083 1.2809
18.543 21.9743 20.1483 -0.230573 -0.146099 -1.41993
16.9134 22.3334 17.9775 -0.461831 0.970689 -1.30552
17.3384 21.6037 22.5672 -1.13826 -0.0283943 0.76227
15.9708 23.0465 20.5441 -0.00537365 0.00997256 -0.185363
20.3699 23.9852 20.5216 -0.74822 -1.75927 0.306012
19.9752 22.3589 22.3752 0.355616 -0.566262 2.06619
18.0209 24.5235 19.2136 -0.00196456 -1.00915 -0.248144
21.9102 20.248 23.0004 0.816374 -0.601415 1.15875
22.5809 22.7005 21.3375 0.161085 -2.36057 -0.838725
23.8147 21.5269 19.0094 0.234802 1.14346 1.30586
24.2221 20.6363 21.5402 -0.657084 -1.6039 -1.73331
21.0978 21.2809 19.5594 -2.18979 -0.654664 -0.311556
21.7893 21.177 17.0466 1.65826 0.394232 1.07518
22.1827 23.4624 18.3913 1.02319 0.609142 -2.76106
ITEM: TIMESTEP
3000
ITEM: NUMBER OF ATOMS
32
ITEM: BOX BOUNDS ss ss ss
1.6045522862529968e+01 2.4772479318927683e+01
1.6577477140871235e+01 2.4456987270291048e+01
1.6657844975348699e+01 2.3902749092667236e+01
ITEM: ATOMS x y z vx vy vz
18.3549 17.2762 22.0374 -1.80566 1.09019 -0.215388
16.8063 19.2193 21.8496 -0.416294 1.21135 0.836711
18.4295 20.2041 17.6376 -1.25701 -2.71996 0.292443
19.7413 19.6732 21.5634 0.0507718 -0.334316 0.747199
16.3196 20.1999 19.3658 -0.30011 0.334246 -0.477076
19.3107 19.5634 23.8499 -1.14333 -0.249673 -1.25184
18.2777 18.44 19.6703 -1.14596 1.17262 -1.85881
20.7292 18.6124 18.1421 0.239488 2.12093 -0.924177
23.8796 18.2711 23.0902 0.89546 -0.960138 -0.686923
20.6452 17.2651 20.4866 0.51208 0.776001 -0.838767
24.7791 18.4434 20.2398 0.192104 -0.732134 1.82875
22.9377 17.2916 18.8632 0.920536 0.495003 1.32713
23.197 16.5897 21.1244 -0.102331 3.1195 0.0994234
22.3225 19.274 20.8021 -0.0595532 0.715608 -0.683908
21.1468 17.6061 23.0032 -0.110378 0.875748 -1.05121
23.1021 19.9821 17.958 1.7156 -0.857922 -0.793526
21.9456 20.1742 23.3228 0.743521 -1.81522 0.458479
19.5462 22.8997 17.6741 -0.540535 -0.655223 -1.39347
18.2968 23.9912 21.6535 0.870607 1.09031 -1.21428
18.3476 21.8804 20.1017 -0.0983745 0.333759 -0.666897
16.9932 22.3119 17.8824 -0.649678 -0.662284 1.93257
17.5241 21.5347 22.7968 -1.45672 0.238966 0.0676484
16.0138 22.7166 20.5623 0.905983 -0.278054 0.959271
20.5333 23.7482 20.1059 0.0736735 -0.0547862 2.0594
20.0079 22.0812 22.4078 1.17932 -1.69563 0.718248
18.0329 24.3831 19.2932 -0.340329 -2.8774 0.502045
22.4393 22.2205 21.3272 0.385567 0.276588 1.45823
24.3091 21.3672 19.5937 0.804924 0.394989 -0.391523
24.3398 20.6186 22.1081 -0.00297874 0.247319 -1.33603
20.8302 21.0792 19.3814 -0.895918 1.8405 0.649934
20.869 21.1174 16.6768 0.827741 -1.46728 0.863653
22.632 22.6046 18.0688 0.00778962 -0.973618 -1.01729
ITEM: TIMESTEP
4000
ITEM: NUMBER OF ATOMS
32
ITEM: BOX BOUNDS ss ss ss
1.6045522862529968e+01 2.4772479318927683e+01
1.6577477140871235e+01 2.4456987270291048e+01
1.6657844975348699e+01 2.3902749092667236e+01
ITEM: ATOMS x y z vx vy vz
18.6588 17.372 22.2164 -0.64709 0.474598 -1.54435
16.9032 19.4729 21.6023 0.180904 -1.35676 1.18622
18.8288 20.6839 17.6472 0.79187 2.15344 1.86733
19.6626 19.6464 21.2862 1.9376 -1.32762 2.45485
16.5698 20.0282 19.1434 -1.04824 2.30191 -0.474579
19.0962 19.4819 23.7993 1.2189 -0.068216 -0.714945
18.1509 18.1308 19.7976 -0.340034 -0.297522 -1.19868
20.4466 18.4852 18.2743 -0.735126 -0.303325 0.27979
23.7562 18.397 22.8846 0.872311 0.452959 -0.784275
20.6012 16.717 20.5325 -0.0203922 -0.53877 0.346172
24.8133 18.588 20.2457 -1.95131 0.675276 1.06659
22.665 17.1816 18.8605 -0.746286 -0.780235 0.699785
22.995 16.612 21.2565 -0.877595 0.453097 -0.745612
22.3729 19.1617 20.7288 1.64227 -0.574456 1.24044
21.2021 17.7217 23.0426 -1.2894 0.47479 0.99393
23.2237 19.4882 17.8505 0.299886 -0.500032 -2.46299
21.7777 20.4895 23.0669 -0.713193 0.22125 1.16626
19.589 23.208 17.6755 -0.350898 -0.120155 0.100254
18.1469 24.0184 21.746 -0.0860675 -0.222413 -0.702597
18.5659 21.7569 20.1923 2.59672 -2.77992 -1.42681
16.7385 22.5128 18.1122 -0.899783 -1.70423 -0.45557
17.4707 21.8139 22.703 -0.378792 0.814516 -0.347474
15.9903 22.2738 20.7136 0.275859 0.380588 0.167198
20.4055 23.8464 20.2058 1.05124 0.236236 -2.55799
20.1456 22.3277 22.4586 -2.09666 0.619364 0.322947
17.9324 24.2384 19.311 -0.851904 -1.1437 1.68368
22.6211 22.2559 21.2315 0.367336 1.40569 0.475695
24.2559 21.1316 19.3811 0.438888 0.984973 -0.944857
24.4803 20.5273 22.0305 -0.775022 -0.824469 -1.21183
21.0883 20.9825 19.4217 1.47867 -0.0285828 -0.0603245
21.1906 21.1636 16.7546 0.296201 0.912663 -0.275163
22.2948 22.9249 18.4674 0.359152 0.00905976 1.85692
ITEM: TIMESTEP
5000
ITEM: NUMBER OF ATOMS
32
ITEM: BOX BOUNDS ss ss ss
1.6004800241483558e+01 2.4952954570806231e+01
1.6445709699857129e+01 2.4389922810020998e+01
1.7154230048188115e+01 2.3745550849316096e+01
ITEM: ATOMS x y z vx vy vz
18.5438 17.4128 22.2651 0.721826 -0.781337 -0.744306
16.9003 19.5136 21.5753 -0.204472 -2.28516 0.87865
19.8137 19.3684 20.9103 0.982158 -0.612827 -1.95993
16.6261 20.0601 19.2803 1.40353 -0.466591 -1.00653
19.1352 19.955 23.5677 0.383957 1.02986 -0.408671
18.2606 18.0106 19.5823 -0.209438 -0.380185 0.586745
20.5776 16.7749 20.3262 -0.702842 0.65436 -0.328961
20.8535 18.6005 18.1642 -0.284026 -1.81363 -2.1093
23.7862 18.4567 22.9148 0.852519 1.05545 1.56254
24.7376 18.0209 20.2289 -0.348728 -0.348335 0.098491
22.6836 16.6788 18.8784 -0.763712 -2.64886 -0.35667
22.9383 16.4194 21.5281 -1.16685 -2.5286 1.93227
22.3856 18.9688 20.483 -1.88832 -0.944119 1.66487
21.0659 17.7824 22.8893 0.26298 -0.25803 -0.620533
23.7006 18.9065 17.8833 -2.34878 0.787343 -2.35107
18.9278 20.4291 17.91 0.116226 0.82293 2.16215
19.4047 23.0101 17.8288 0.355261 0.681601 0.877428
18.0051 23.9047 22.006 -0.23164 1.27404 1.06295
18.4433 21.8132 20.3411 0.50664 0.831502 -0.667601
17.0076 22.4313 17.958 -0.584872 -0.993726 -1.40616
17.2816 21.7828 22.9734 0.226048 0.267878 1.24197
15.921 22.4317 20.6473 1.28025 -0.107901 -0.339001
20.3472 24.0093 20.517 0.849481 1.63714 -0.584215
19.9292 22.2961 22.4629 -3.3729 0.482807 -0.471101
17.6878 24.415 19.5156 0.738893 -2.28117 0.444463
21.8355 20.5413 22.5979 0.151614 1.16341 -1.0654
22.6471 22.9253 21.2031 2.19049 0.836167 -0.0252398
23.9442 21.2317 18.9293 -0.515244 1.44986 -1.26635
24.1567 20.6766 21.4072 1.00236 0.60432 1.90576
21.1203 21.4576 19.8254 0.0409483 0.207095 0.786795
21.7654 20.9067 17.4794 1.20905 0.894595 -0.245886
22.2068 23.4481 18.5605 -0.652401 1.77011 0.751853
ITEM: TIMESTEP
6000
ITEM: NUMBER OF ATOMS
32
ITEM: BOX BOUNDS ss ss ss
1.6004800241483558e+01 2.4952954570806231e+01
1.6445709699857129e+01 2.4389922810020998e+01
1.7154230048188115e+01 2.3745550849316096e+01
ITEM: ATOMS x y z vx vy vz
18.6165 17.5124 22.156 -0.686737 -1.46153 0.0208538
16.9391 19.5567 21.64 -0.0701064 -0.193752 -1.13116
19.4962 19.378 20.6082 0.673874 -2.61635 1.68575
16.8539 19.7162 19.1193 -0.317311 -0.822866 1.93568
19.0538 20.0004 23.2876 1.22425 1.0769 -1.40711
18.1472 17.4755 19.5675 -0.0675747 1.58181 -1.21723
20.5937 16.6305 20.3374 1.11667 -0.544714 0.875672
20.6442 18.2483 18.2195 -0.0693791 -1.02065 -0.772809
23.8619 18.5061 22.6537 -1.58007 1.89427 -0.219021
24.7864 18.4807 20.2008 -0.259959 -2.14044 1.74909
22.7462 16.5942 18.7667 0.735706 -0.55099 -0.334123
23.0118 16.5394 21.246 -1.34878 2.18603 -0.506827
22.2573 18.9718 20.2209 0.250552 -1.63935 -1.63086
21.2465 17.878 22.6063 0.867151 -0.719612 0.303317
23.4754 18.7061 17.5181 -0.0174789 1.46011 0.218629
19.0731 20.4412 17.7597 -0.99037 0.793322 0.780917
19.7374 22.743 18.2034 -1.16291 0.483914 0.507334
18.1675 24.3651 21.9135 -0.937278 -0.730495 -0.383743
18.3328 21.9117 20.512 0.782233 0.124294 0.565832
17.054 22.2667 18.2257 0.342472 2.24306 -0.254754
17.4473 21.9781 23.0216 -0.911807 -1.97247 1.00387
16.029 22.5595 20.8 -2.34206 0.915321 1.23049
20.2644 24.1666 20.4468 -0.66929 0.802783 -1.04218
19.9731 22.5852 22.7498 0.0596483 0.736047 -0.527994
17.7394 24.4112 19.2207 0.846168 0.106108 -0.974277
21.5955 20.3774 22.7352 -0.0371675 0.168009 -0.557507
22.3995 23.2104 21.8151 -0.0466273 0.0159969 0.363608
23.8752 20.8495 18.9561 3.14722 -0.738677 -1.29619
23.8015 21.133 21.488 0.44597 0.0288517 0.42299
21.21 21.4766 20.1245 0.215175 1.53312 -0.144801
21.6371 20.72 17.7146 -0.907093 -0.882826 1.89544
22.573 23.2506 18.8052 1.7149 -0.115214 -1.15887
ITEM: TIMESTEP
7000
ITEM: NUMBER OF ATOMS
32
ITEM: BOX BOUNDS ss ss ss
1.6026698842196165e+01 2.4752020632553560e+01
1.6530285168056988e+01 2.4426127442099141e+01
1.7695698585604134e+01 2.3110747741828391e+01
ITEM: ATOMS x y z vx vy vz
18.6122 17.5148 22.0169 0.0421718 -2.01524 -1.5699
17.0959 19.4898 21.5087 0.60536 0.426995 -1.40412
19.5038 19.3273 20.1374 -0.769036 1.21073 1.50545
16.5219 19.9394 18.8748 0.424857 0.183694 1.77134
19.4571 20.1173 22.787 0.686407 0.334161 0.704511
18.0255 17.6193 19.5473 -1.47902 -1.76643 -1.14119
18.7824 20.2172 17.6805 0.566441 -0.911239 -1.60967
20.4137 16.4543 20.6767 0.273299 -0.102357 -0.378935
20.5038 17.7146 18.2676 -0.980829 0.938417 1.20594
24.1689 19.0277 22.3917 -1.16458 -1.70657 -1.10571
24.6367 18.1559 19.6736 0.240053 -0.647883 -0.419126
22.7253 16.5271 18.8978 -0.871617 -0.673758 0.413313
23.4015 16.6395 21.442 1.2639 1.01966 -2.05497
22.3629 18.9531 20.1892 -2.52751 -0.391398 0.679119
21.5098 18.1441 22.5156 2.45714 0.561175 0.99141
22.9011 18.6247 17.4994 0.912732 0.354508 0.0728376
19.8296 22.9473 18.1228 0.665652 -1.17363 1.55998
17.7126 24.2009 21.9283 -1.21125 0.384926 1.34908
18.4909 21.7226 20.3057 -0.134078 -0.415063 -1.60727
17.185 22.4754 18.1187 -0.280261 -1.14291 0.748832
17.2375 21.8517 22.7448 -0.127975 0.235028 -1.48138
16.0009 22.5364 20.306 0.206701 -0.0540587 0.37564
20.3556 24.053 20.692 -0.565398 -0.240789 -0.177983
19.912 22.8583 22.983 0.168827 2.86895 -0.0916595
18.061 24.4496 19.5067 0.261936 0.46556 -0.806655
22.0903 20.6979 23.2776 -0.16939 1.08529 0.615391
22.3954 23.3315 22.2035 0.756427 1.23741 1.14195
23.9239 20.7261 18.7921 0.655999 -1.33698 -0.27816
23.8459 21.3497 21.2936 -0.590458 -0.336215 3.67196
21.15 21.3372 20.8845 2.65127 0.773322 -0.326252
21.4014 20.6384 18.1599 -1.68691 0.0474834 -2.11874
22.4253 22.9977 19.2145 -0.280868 0.787195 -0.235037
ITEM: TIMESTEP
8000
ITEM: NUMBER OF ATOMS
32
ITEM: BOX BOUNDS ss ss ss
1.6055475536623241e+01 2.4751879510947518e+01
1.6382346459215711e+01 2.4223680902508772e+01
1.7409905910798852e+01 2.3395152256538154e+01
ITEM: ATOMS x y z vx vy vz
18.6266 17.5688 22.0809 0.0187555 2.71112 -0.280774
16.8484 19.5331 21.7217 0.518965 -0.321641 1.34448
19.4708 19.2987 20.3428 1.97837 1.19585 -0.784815
16.7641 19.9643 19.1203 1.53542 0.130732 0.904065
19.2494 20.2111 22.9141 0.192419 0.105903 -0.672486
18.1932 17.5372 19.2776 -0.584803 0.530632 -1.87964
19.036 20.0274 17.9203 -0.530188 -0.751636 -2.12709
20.3993 16.5546 20.4173 0.452447 -1.36169 -0.210393
20.5355 17.9832 17.8866 -1.88289 -1.64925 0.944072
23.8148 19.4059 22.0094 -0.668695 -1.03955 1.05868
24.7057 17.9319 19.6845 1.49413 0.891435 -2.08426
22.4889 16.4588 18.7106 -0.0746765 2.00279 3.258
23.0206 16.6627 21.439 0.16668 -0.962557 0.710425
22.1209 18.796 19.9155 -0.00784298 -0.0215393 2.37327
21.11 18.4283 22.342 0.968294 0.480094 -0.529552
23.3619 18.4493 17.3424 -1.9477 -0.430505 -0.537987
20.0708 22.8504 18.2448 0.956768 0.982706 -0.0228582
17.9388 23.995 21.7491 -0.976537 -0.515758 0.185087
18.5914 21.746 20.6433 0.416225 0.912685 -0.665556
17.3278 22.3517 18.1836 0.659036 0.556125 -0.319378
17.1692 21.793 23.0386 -1.45378 -0.591546 -1.33285
16.026 22.1128 20.7253 -0.100461 -1.28758 1.14408
20.2991 24.2253 20.6626 -0.918309 0.752762 0.398913
19.9694 22.6889 23.1278 0.667304 -1.38451 -0.420113
17.8975 24.2508 19.3326 -0.598971 -0.544573 -0.217132
21.9626 21.002 23.4025 -0.868883 -0.625826 1.17976
22.2134 23.5586 22.1667 2.49009 -0.485348 -1.64816
23.9261 20.387 19.1261 -0.513762 -1.37991 -0.962648
23.9511 21.8343 21.238 -2.84285 0.185225 0.36401
21.2915 21.3841 20.7389 1.45626 -0.969106 0.700866
21.5215 20.6226 17.8029 -0.380758 1.97858 -0.522209
22.7372 23.0263 19.3323 0.379934 0.905901 0.652204
ITEM: TIMESTEP
9000
ITEM: NUMBER OF ATOMS
32
ITEM: BOX BOUNDS ss ss ss
1.6055475536623241e+01 2.4751879510947518e+01
1.6382346459215711e+01 2.4223680902508772e+01
1.7409905910798852e+01 2.3395152256538154e+01
ITEM: ATOMS x y z vx vy vz
18.6107 17.2189 21.9054 0.567996 -3.36671 -0.842592
16.944 19.5388 21.7684 -0.376035 0.0674099 0.736493
19.4625 19.2592 20.4862 1.09695 2.49455 1.5575
16.5536 20.0174 19.3497 0.888029 -0.598115 -0.76291
19.0319 20.0824 23.0595 0.629063 1.21289 1.00106
17.8704 17.6601 19.4092 0.0395862 0.26662 -0.253398
19.0699 20.2029 18.2236 -2.2335 -0.94565 1.73956
20.465 16.5696 20.2032 -2.08332 -1.30075 0.120606
20.7582 18.1796 18.0261 1.41825 0.681073 0.965697
23.8011 18.8709 22.5403 -1.44693 0.121899 0.387848
24.7728 18.3828 19.8667 1.29254 0.144145 1.51789
22.9235 16.4772 18.8265 0.555398 0.328583 0.616637
23.112 16.7666 21.3025 0.000917042 1.43211 -0.158832
22.3603 18.887 19.9809 -0.0084064 -1.34632 0.749009
21.0477 18.4874 22.5996 0.486018 0.313355 -0.910807
23.1983 18.671 17.3536 -1.957 1.2532 -1.23396
19.8531 22.7022 18.1766 -0.36133 -0.927646 -0.693194
17.891 24.0753 21.8818 -0.591094 -1.43765 -1.80558
18.3969 21.753 20.5259 -1.3932 -0.496666 -0.237579
17.1412 22.2777 17.9941 1.93955 2.08 -0.418381
17.1729 21.849 23.0105 -0.785704 -0.794238 -1.16236
15.8893 22.3974 20.5434 0.352349 1.61117 0.626862
20.3392 24.0452 20.4747 0.0204882 -0.609969 1.98695
19.827 22.692 22.7916 1.33859 0.507109 0.433594
17.8989 24.1649 19.3693 -2.0916 0.251331 1.22498
22.0032 21.0663 23.2177 -0.117428 0.686194 -0.834033
22.6537 23.2962 21.926 0.484429 1.00401 -0.79222
24.1712 20.7889 18.797 0.995731 -0.727211 -0.921971
23.9033 21.0342 21.1928 -0.260197 -1.66571 -0.958294
21.1256 21.4368 20.7771 -0.0132134 0.609434 -1.12976
21.6588 20.7668 17.9827 1.48903 -0.104205 -2.10382
22.7325 23.0224 19.0772 0.124056 -0.744245 1.55501
ITEM: TIMESTEP
10000
ITEM: NUMBER OF ATOMS
32
ITEM: BOX BOUNDS ss ss ss
1.5886002837998923e+01 2.4779509867655481e+01
1.6473825236749299e+01 2.4169506827546755e+01
1.7347107407013617e+01 2.3220082574686558e+01
ITEM: ATOMS x y z vx vy vz
18.6156 17.4483 22.2631 -0.872553 0.339907 -0.0481875
17.0628 19.6264 21.3938 -0.129957 1.10818 0.411293
19.7659 19.2779 20.7877 2.10903 0.316775 -0.973629
16.3729 20.2302 18.8768 0.363046 1.06939 1.46201
19.1601 19.7727 23.4479 0.96828 -1.24819 -1.35716
17.9552 17.9479 19.4547 0.172945 -0.919257 0.818308
18.9237 20.2185 18.2478 1.88637 -0.448148 -0.271188
20.6297 16.7506 20.7131 -2.72738 -0.045821 -0.39014
20.4855 17.8812 18.2077 -0.365024 -0.812763 -0.958119
23.8437 19.0889 22.1994 0.595772 -1.53119 1.40674
24.7496 18.0422 19.753 -1.48304 1.73885 -1.95844
22.7987 16.5402 18.7529 0.352489 -0.83828 -0.288751
23.2029 16.6084 21.4089 -3.04804 0.760083 0.419127
22.3733 18.86 20.0377 -1.28345 -0.886037 1.76892
21.3 17.9868 23.0083 1.26526 0.287883 1.00711
23.1079 18.7081 17.467 0.597492 1.73194 -0.566553
20.1619 22.774 18.2147 -0.0225085 2.99999 -0.158387
17.8477 24.0774 21.8663 0.747398 -0.129582 0.789377
18.4984 21.8386 20.4409 0.684195 -1.33912 0.259589
17.2989 22.37 17.8367 1.03933 -2.56468 -2.25041
17.3042 21.7397 22.8726 1.69292 -0.147985 0.172031
16.1281 22.4565 20.2772 -1.00571 -1.27848 -0.0947662
19.7945 22.2594 22.6814 -0.441232 1.31786 -0.706708
17.8019 24.3023 19.3605 0.692635 -1.95614 0.0857705
20.1868 24.0181 20.479 -0.348597 0.0760275 1.54704
22.0088 20.6344 22.8761 0.160906 0.0752858 -0.941491
22.1418 23.3463 22.3588 0.479288 -0.0207499 -0.288867
23.721 20.8004 18.8149 1.71838 -0.8099 0.760393
23.9603 21.6935 21.2426 -2.49613 1.7629 -0.235846
21.3018 21.3825 20.285 -0.44539 2.56291 -0.587068
21.403 20.6685 17.4781 -1.44893 -1.6421 0.168679
22.7334 23.29 19.5356 0.592198 0.470437 0.999327
ITEM: TIMESTEP
11000
ITEM: NUMBER OF ATOMS
32
ITEM: BOX BOUNDS ss ss ss
1.5886002837998923e+01 2.4779509867655481e+01
1.6473825236749299e+01 2.4169506827546755e+01
1.7347107407013617e+01 2.3220082574686558e+01
ITEM: ATOMS x y z vx vy vz
18.5144 17.3794 21.8693 -0.65099 -0.0142352 -1.6824
16.9316 19.4775 21.6528 -1.59363 -0.200779 0.0225864
19.464 19.3895 20.1668 1.50678 0.435185 -0.2759
16.5834 19.8738 19.1197 -0.223096 -1.07474 2.60537
19.2024 20.1836 22.8508 -2.6099 1.05322 0.543739
18.1904 17.6882 18.951 0.219678 1.1426 -0.36634
18.7044 20.1801 17.699 1.73837 -1.55553 -0.950931
20.408 16.8049 20.2722 -1.50491 1.80848 -0.0576072
20.7327 18.116 17.9533 0.428192 -0.786175 -2.3377
23.8772 18.847 22.7281 1.25778 1.70859 -2.36855
24.7276 18.4742 20.2072 -0.498145 -1.91454 0.00708136
22.9894 16.5141 19.0702 0.586095 -0.750824 -0.192067
23.3025 16.5025 21.543 -0.846328 0.508119 0.681792
22.2744 19.0473 20.238 -0.151297 0.173363 1.229
21.0123 18.1137 22.5106 0.321704 0.0690833 -1.75297
23.2106 18.6382 17.7809 -1.06457 -0.503308 0.93898
19.7395 22.6378 18.2734 0.561604 0.334157 0.281984
17.9102 24.1159 21.9648 0.125963 0.630035 0.00947616
18.4963 21.8216 20.553 0.999449 -0.273462 1.02747
16.9998 22.2204 18.2323 0.732694 -1.04938 -1.31137
17.2162 21.8478 23.0196 0.38988 -0.760065 -0.963904
16.0301 22.6375 20.9035 -2.61199 -0.228045 2.03397
20.1984 22.6963 22.8672 1.67672 -0.53003 -1.45191
17.776 24.3109 19.3448 -0.601014 0.262523 1.40169
20.3721 24.0988 20.4031 0.273292 1.02053 -1.41238
22.0574 20.6304 23.0398 -0.25225 -0.34798 1.39842
22.6279 23.228 21.5426 0.292915 1.33904 -0.742281
24.0219 20.8814 18.9243 0.625528 3.22145 1.45044
24.2435 21.0432 21.482 1.18872 -1.08425 -0.0344848
21.0874 21.4213 20.6902 0.769371 0.372385 -0.468963
21.4104 20.7455 17.9255 -0.995218 -2.75789 1.1171
22.3273 23.0731 18.8609 -0.091404 -0.247528 1.62066
ITEM: TIMESTEP
12000
ITEM: NUMBER OF ATOMS
32
ITEM: BOX BOUNDS ss ss ss
1.5974900486625772e+01 2.4727508553121282e+01
1.6578746625770602e+01 2.4259056956110843e+01
1.7595791939920421e+01 2.3323862724767103e+01
ITEM: ATOMS x y z vx vy vz
18.1944 17.7442 21.4421 -0.753729 0.88993 0.397616
16.6505 20.0653 22.2058 -0.0125801 -0.561546 -1.31628
19.538 19.3551 20.1341 -0.833049 1.99346 -1.12631
16.662 19.2478 19.729 1.94627 2.04118 -0.606167
19.1244 20.1878 22.8125 -0.901266 -0.718041 -1.69755
18.2828 17.4366 18.6948 1.15865 -1.13541 -2.44726
18.8362 19.9614 17.6175 -1.40103 -0.333842 0.784922
20.2974 16.7628 20.0779 -0.0688791 -1.20956 1.66984
20.884 18.0945 17.8164 -0.92017 -0.0961215 1.49397
23.5085 18.8235 22.8073 0.670398 -1.94007 0.0935633
24.8836 18.3715 19.9927 2.48505 -0.140902 0.431055
23.1586 16.7047 18.7519 -0.751163 0.801961 -0.650011
22.9854 16.6805 21.3316 -0.947187 -0.954288 0.894246
22.3949 19.0359 20.0909 1.30432 1.04654 -0.0811086
20.831 18.1847 22.3075 -0.661783 -0.21736 0.0572082
23.6559 18.8689 17.4831 -0.69831 0.739673 0.396618
19.8161 22.3868 18.379 0.128103 -1.00624 0.385268
18.2876 24.5983 21.852 1.72624 0.387298 0.324401
18.3881 21.755 20.638 1.67834 0.430382 0.678336
16.8531 21.5744 18.5566 -3.41203 -0.738313 -0.471422
17.3575 22.4762 23.1225 0.888071 0.541159 -0.841031
15.9445 22.6927 21.0459 0.87731 -1.83726 -0.309962
20.0938 22.848 22.8006 0.174135 -0.0065331 1.33581
17.5874 23.9123 19.3581 1.25139 -0.511111 1.70862
20.2503 24.0505 20.3032 -1.03317 -0.164175 0.217547
21.8462 20.7331 23.1278 0.614907 2.24707 -1.9535
22.6428 23.2706 21.7882 -1.6241 1.47081 0.137798
24.2073 20.9022 18.9424 -0.200849 -1.88712 1.0834
24.0687 20.9828 21.5431 -0.133169 2.98318 -0.63989
21.1278 21.4205 20.742 0.225162 -1.51876 1.43215
21.6607 20.5262 17.9996 -0.886137 1.90396 -1.20941
22.6205 22.9853 19.146 0.110253 -2.49994 -0.172452
ITEM: TIMESTEP
13000
ITEM: NUMBER OF ATOMS
32
ITEM: BOX BOUNDS ss ss ss
1.5967742677508408e+01 2.4752008141943126e+01
1.6460747548277038e+01 2.4332780721361193e+01
1.7319483036576720e+01 2.3506777913017984e+01
ITEM: ATOMS x y z vx vy vz
17.9895 18.0744 21.4388 0.705943 1.40845 -1.32167
16.6438 20.1271 22.2762 -1.0871 0.102042 -1.14867
19.6602 19.5392 20.0074 0.0775473 -0.0500155 2.28136
17.0861 19.6499 19.4228 1.0961 -0.545612 2.218
19.2658 20.112 23.07 0.0141538 1.14375 0.65144
18.3483 17.3357 18.8857 -1.74293 -1.1158 1.53766
18.96 19.7515 17.5855 -1.60541 0.0495246 -0.147091
20.4479 16.8215 20.3127 0.795975 0.567892 -0.742712
20.8526 17.5391 17.7141 2.72511 2.07054 -1.51002
24.0172 19.1168 22.0164 0.42333 0.892261 1.61441
24.7359 18.2017 19.7512 0.547294 -0.385328 -1.99355
22.8245 16.5802 18.9119 0.33048 -0.466914 1.21298
22.9478 16.8285 21.419 -1.41075 0.8507 -1.26339
22.2049 19.1064 19.8789 0.11014 1.93935 -0.511198
21.1237 18.5457 22.4072 -1.1315 -0.118192 0.766199
23.3195 18.4839 17.3372 -0.414212 1.18249 0.667261
19.8879 22.2862 18.6979 0.737876 -0.781249 -1.66433
17.8456 24.31 21.91 2.17566 -0.678946 -0.909107
18.281 21.8977 20.9657 -0.636152 0.316517 -1.3063
17.2455 21.9801 18.1957 -0.0293858 -1.16199 -0.946369
17.0498 22.3484 23.3379 1.17149 -0.66394 1.21205
15.8411 22.0944 20.3031 -0.832809 0.730822 0.747629
19.8325 22.6639 23.1812 0.457887 -0.600712 -0.764557
17.9559 24.1813 19.296 0.278236 -0.100683 0.510186
20.278 23.9525 20.7049 -0.110468 -1.29806 -0.837068
22.0838 20.9675 23.4338 -1.63659 -0.445634 -2.08318
22.4282 23.4473 22.2284 1.1908 -1.11084 0.450065
24.1409 20.6775 18.5707 -0.692228 -1.5376 0.882778
23.8778 21.4641 21.2874 -0.130645 0.754223 0.64556
21.2296 21.3639 21.048 -0.0433731 -1.37582 0.0647299
21.6197 20.539 17.7556 0.604861 0.0666849 0.23372
22.6153 22.6525 19.2886 -1.93933 0.362095 1.45318
ITEM: TIMESTEP
14000
ITEM: NUMBER OF ATOMS
32
ITEM: BOX BOUNDS ss ss ss
1.5967742677508408e+01 2.4752008141943126e+01
1.6460747548277038e+01 2.4332780721361193e+01
1.7319483036576720e+01 2.3506777913017984e+01
ITEM: ATOMS x y z vx vy vz
18.25 18.0108 21.4831 -1.122 0.656293 -0.750952
16.6229 20.1266 22.2532 -0.198094 1.37552 1.92244
19.4648 19.7317 19.7826 -0.664107 1.87761 -1.3875
16.7905 19.4232 19.6509 -1.39393 1.37518 -1.12121
19.1968 20.1547 22.9501 -1.04998 -2.39974 -0.216924
18.273 17.6122 18.6663 -0.0996703 -0.978036 0.126115
18.9811 20.0414 17.3911 0.804385 0.204807 0.36926
20.3875 16.8027 20.2318 -0.887616 0.40712 1.97032
20.8664 17.9927 17.9402 -0.945381 -0.165786 1.78962
23.5246 18.924 22.6428 0.639 0.112096 -2.29873
24.865 18.35 20.0313 -0.336469 -0.751355 -1.80996
23.002 16.5201 19.0152 1.24642 0.291422 0.247503
22.978 16.676 21.5377 -0.275195 -0.46679 1.89878
22.2589 18.9015 20.03 -0.610259 -0.759103 -1.11564
21.0299 18.254 22.3759 2.71196 -0.785204 1.34269
23.6558 18.5919 17.6973 0.420088 1.5165 0.633925
19.7093 22.5655 18.3007 1.31532 1.9409 0.584209
18.06 24.2335 21.8962 0.330189 -0.583561 0.813533
18.4779 21.8234 20.7769 -1.20664 -1.23079 0.248015
17.1186 21.4534 18.2465 1.30266 -0.303739 -0.233589
17.4836 22.2252 23.2918 -0.962771 0.00303256 -0.935209
15.9857 22.3483 20.9193 0.77979 -0.792562 -0.841606
20.1276 23.0642 23.0104 1.85162 -1.32596 0.940717
17.4235 23.8587 19.4611 -1.68018 -1.3415 -0.853041
20.2816 24.102 20.4964 0.295366 0.582984 0.265456
21.8848 20.7324 23.2722 -0.752182 1.30054 1.44911
22.8064 23.1712 21.7743 0.130983 0.610585 -0.345035
24.0687 20.9218 18.7255 -1.34119 0.374846 -0.164693
23.8351 21.0273 21.0172 -0.185015 -1.27675 -0.205688
21.1268 21.4445 20.7872 0.215775 0.151701 -1.6094
21.7286 20.5362 17.7614 2.07353 0.386265 0.0530136
22.3747 23.0191 19.2236 -0.406397 -0.00653134 -0.765524
ITEM: TIMESTEP
15000
ITEM: NUMBER OF ATOMS
32
ITEM: BOX BOUNDS ss ss ss
1.5967742677508408e+01 2.4752008141943126e+01
1.6460747548277038e+01 2.4332780721361193e+01
1.7319483036576720e+01 2.3506777913017984e+01
ITEM: ATOMS x y z vx vy vz
18.2627 17.8043 21.6212 -0.497606 -1.33086 0.0397037
16.476 19.9976 21.9287 -2.75776 2.41917 0.467394
19.6418 19.4315 20.0859 0.738773 0.601466 0.166531
17.0154 19.5472 19.5283 0.823231 -0.644918 1.37513
18.9181 20.2101 23.0059 0.0157201 -0.296573 -0.347863
18.4346 17.3092 18.8845 -0.00809359 -0.206761 -0.668134
18.9742 19.9012 17.5119 0.222737 -0.631496 -1.10499
20.6845 16.8875 20.4537 -1.75056 0.359404 -2.03457
20.8622 17.9105 17.8627 -0.607409 -0.116339 0.685117
23.4731 19.143 22.447 0.350595 -0.406013 0.152984
24.7612 18.2558 19.7124 1.57598 2.21829 -0.0765538
23.0434 16.6008 18.7426 -0.50912 1.66645 -0.18794
23.1818 16.7906 21.3413 0.680328 -0.295596 -0.307287
22.4006 19.0731 19.9996 -0.888391 0.0851078 1.16268
20.8257 18.5087 22.5181 -1.53742 -0.420992 1.69494
23.3074 18.5264 17.2267 -0.154562 -0.943618 0.668767
19.7332 22.5574 18.1267 1.68601 0.58203 -2.11969
18.1622 24.3677 21.893 -0.0164921 0.852288 0.995213
18.5632 21.8391 20.8175 0.894702 -1.13651 -0.346039
16.9793 21.8686 18.3745 0.880611 -2.02764 -0.197554
17.1719 22.3428 23.2284 -3.34129 -2.34286 0.549436
16.025 22.4923 20.8859 1.49941 0.161087 -0.876754
19.9721 22.7657 22.9926 0.323791 1.60058 0.824051
17.9013 23.9871 19.3604 -1.20951 1.47356 1.87774
20.2908 23.928 20.5057 -0.764002 1.40534 -0.095003
21.8589 21.0464 23.4984 2.01344 -0.941397 0.268366
22.5134 23.367 22.1759 0.914434 -0.30103 -1.2404
24.2068 20.5132 18.5782 0.822548 -1.00162 -0.967834
23.9407 21.1956 21.2019 1.4385 1.946 0.165706
21.1748 21.3361 21.1206 -0.173787 0.524593 -0.320069
21.6079 20.5356 17.7815 -1.82144 -1.77617 -1.25358
22.2757 22.5999 19.2284 1.15662 -1.07496 1.0505
ITEM: TIMESTEP
16000
ITEM: NUMBER OF ATOMS
32
ITEM: BOX BOUNDS ss ss ss
1.5967742677508408e+01 2.4752008141943126e+01
1.6460747548277038e+01 2.4332780721361193e+01