ITEM: TIMESTEP
0
ITEM: NUMBER OF ATOMS
32
ITEM: BOX BOUNDS ss ss ss
1.6245931983535137e+01 2.4373790386640163e+01
1.5769240587605154e+01 2.5099432029778587e+01
1.6478248562832551e+01 2.4080196786675902e+01
ITEM: ATOMS x y z vx vy vz
17.3519 18.6303 19.0403 1.21845 0.639935 0.908442
20.2337 18.2724 19.7063 1.02369 -0.82979 0.884954
18.9274 16.5911 17.882 -0.11008 -0.267872 -0.0428881
19.415 19.2076 16.9546 1.19467 -0.0318368 0.168816
22.6442 19.934 16.976 0.780362 0.395222 0.447422
21.5573 17.3584 17.3066 1.03619 0.95185 0.699431
21.1813 15.7733 19.85 0.0440471 0.303976 0.567758
23.2066 18.3396 19.2757 -2.48573 -0.406243 -0.884533
20.2634 21.7991 16.4823 2.26165 0.137718 0.770774
18.083 21.3254 18.3357 -0.718816 0.236705 -0.0187394
19.8309 23.6104 18.5297 -1.62624 -0.552987 -1.94977
20.958 20.8223 18.9659 -1.50179 1.45735 1.03236
22.1873 24.529 19.9034 0.557308 -0.0499705 0.123664
22.8004 22.6048 17.9466 -0.539682 -1.14502 0.154087
18.9366 20.3206 21.026 1.10692 0.0324772 -0.0537939
17.2881 18.4619 22.2261 -1.78557 1.13517 0.243033
18.2734 16.4001 20.5913 -0.014911 0.537215 -0.388812
19.9422 17.4189 22.5439 -1.97927 -0.0240482 -0.775285
22.6066 17.2988 21.774 1.69029 0.21056 -0.0645187
21.6448 19.8919 21.4994 -1.50632 -0.705786 0.386349
21.6686 18.9653 24.0761 -0.982204 0.414773 -1.40583
24.3697 19.712 21.3997 1.08521 0.238708 -1.36407
17.7344 23.057 20.5796 2.17766 -0.964077 0.109781
20.2685 21.3559 23.9119 1.42046 0.499569 0.503234
18.8591 23.5936 23.1471 0.302755 -0.755564 1.84084
16.25 20.7162 20.4926 1.24508 -0.284281 1.0778
17.4985 21.1307 23.2286 -0.710905 1.82418 -2.53352
19.6555 25.0954 20.9292 -1.84049 -1.52867 2.06914
21.8179 24.114 22.9228 -0.00695851 1.31867 -1.25983
23.5786 22.2807 20.6888 0.599605 0.362507 -1.05745
22.9652 21.5476 23.2913 1.11919 -0.867987 -0.11199
20.6419 22.4819 21.1564 -3.05454 -2.28244 -0.0768555
ITEM: TIMESTEP
1000
ITEM: NUMBER OF ATOMS
32
ITEM: BOX BOUNDS ss ss ss
1.6521900234925436e+01 2.4226517772394281e+01
1.5823137707664111e+01 2.5134732154279359e+01
1.6782117672440812e+01 2.3939574382675762e+01
ITEM: ATOMS x y z vx vy vz
17.1805 18.5925 18.4633 0.368356 -0.674625 0.249148
20.3638 18.5121 19.8215 0.630058 -3.0748 -1.23006
18.6798 16.5576 18.2818 -2.2138 2.82795 0.756215
19.4952 18.9992 16.968 1.29699 -0.568017 -0.771953
22.1425 20.0902 16.9145 0.436652 1.14973 2.13488
21.5046 17.3885 17.7565 -1.50522 1.0782 -0.0309816
21.2507 15.7398 19.7146 0.951183 -0.212619 -0.410561
23.0459 19.1298 19.3302 -0.0795402 0.873534 0.984831
20.032 21.8255 16.6299 -1.02401 1.3354 -2.65419
18.756 21.1266 18.9812 -0.251811 1.57975 -1.81551
19.5231 23.7172 18.7176 3.70001 0.64124 -1.43951
21.7355 21.4124 18.806 -0.333471 0.751795 -1.14915
22.1591 23.8969 19.5616 -3.16708 0.441539 -2.80486
21.8075 23.5083 16.9883 -1.2002 -1.36281 -1.32636
18.4787 19.8067 22.3228 1.18006 -0.336203 3.30207
17.3103 18.0482 20.9832 3.1569 -2.97605 -0.36657
18.809 15.901 20.768 -1.30593 -0.178321 0.338713
20.0146 17.2377 22.4116 1.21098 -0.318361 -0.925013
22.6819 17.3066 21.4104 0.499874 -0.385845 -0.190513
21.7944 19.9735 21.7873 -0.48397 -0.41085 1.67749
21.7466 18.8944 23.9771 -1.41637 -1.26173 0.336588
24.123 19.2772 22.1093 -1.79541 -0.92738 1.28197
17.762 23.6037 20.4845 2.07428 2.86549 1.90092
20.2922 21.3602 23.7358 -0.131652 1.41619 1.85242
19.2656 23.9946 23.0972 -0.949806 1.71413 -2.30924
16.5033 20.3555 20.5827 0.444544 -1.98999 0.977598
17.3022 22.2299 22.5437 -0.497777 0.583569 -0.959947
20.1476 25.0642 20.8101 -0.242089 -1.82074 0.45789
21.7856 23.8158 22.5099 -1.26891 -1.63439 0.254204
23.559 21.9748 21.0696 1.19022 0.680133 2.33393
23.2512 21.0006 23.9125 1.37217 -1.41038 -1.57241
20.1367 22.2988 21.1891 -0.645217 1.60445 1.11798
ITEM: TIMESTEP
2000
ITEM: NUMBER OF ATOMS
32
ITEM: BOX BOUNDS ss ss ss
1.7096960384145085e+01 2.4116799289902890e+01
1.5754117504154086e+01 2.4990150722690295e+01
1.6310502011761855e+01 2.4187682635022018e+01
ITEM: ATOMS x y z vx vy vz
16.8774 18.0447 19.0137 -0.754485 -2.33347 0.83955
19.6388 18.642 20.0137 -0.284958 -1.78582 -2.72282
19.1158 16.9108 18.0145 1.26688 -1.13668 -1.21627
19.1374 19.4119 17.476 -2.48871 -2.61114 -0.407666
21.5542 17.8494 17.4649 1.63213 1.81138 1.55037
21.4304 16.6394 19.7263 -3.26749 4.99428 0.572615
22.9162 19.1076 19.7551 1.89256 4.47331 2.08848
21.9439 20.0694 16.3571 1.33114 -2.33197 0.518003
20.3371 21.967 16.5249 -2.94512 -1.6972 0.225247
17.8791 21.7428 18.3086 0.958993 2.8336 -0.640689
20.0472 23.7333 18.4146 -0.784077 -2.74456 3.19898
20.8648 20.7963 18.6413 0.584733 -0.341336 -1.62968
22.1383 24.0707 19.9563 -3.13989 1.99004 3.60239
22.4304 22.6108 17.5738 3.52671 0.373208 -0.327758
18.8793 19.7305 22.6546 -2.92016 2.5648 -0.880856
17.5786 17.6436 21.4731 1.61746 1.4404 2.0538
19.0298 15.8435 20.2113 -0.0835605 1.70161 -0.173757
20.0567 17.221 22.4874 -0.138012 2.39874 2.97118
22.813 17.4399 22.0613 -0.313321 -4.40411 -0.830278
21.5494 19.9619 21.9707 1.78377 -1.23375 -1.72823
21.522 18.9112 24.1535 0.694072 -1.74789 0.285724
23.9898 19.6495 21.8776 -0.0471273 1.65058 -1.72457
18.0714 23.4333 20.4835 -1.22287 -0.0771868 -1.3414
20.3108 21.672 23.9799 0.887271 -0.921643 -1.00222
19.3453 24.146 22.8746 -0.00770312 -1.74474 1.08218
17.5481 20.2551 20.1807 0.223182 0.826098 -2.1964
17.4295 21.8877 22.2749 -0.791122 0.420476 1.11149
20.1773 25.2027 20.9064 1.68343 1.53883 -0.662276
22.0945 23.1002 22.3959 -0.658695 1.63846 -0.900963
23.1733 21.9029 20.2471 1.07487 -1.78388 -1.78459
22.9041 21.0638 23.9271 -1.03529 -2.07531 -0.832459
19.8561 21.9788 21.2396 1.72539 -1.68515 0.90288
ITEM: TIMESTEP
3000
ITEM: NUMBER OF ATOMS
32
ITEM: BOX BOUNDS ss ss ss
1.6741195270188797e+01 2.4804222768542285e+01
1.6440709592987030e+01 2.4466089420015908e+01
1.6656933583338478e+01 2.4183355860826406e+01
ITEM: ATOMS x y z vx vy vz
16.9055 17.922 19.3619 -1.51412 -0.974689 -0.630413
19.2837 16.762 17.9125 -2.50896 0.52539 0.102521
18.4023 18.9241 17.4262 -3.07127 -4.89825 0.37701
20.8177 18.8417 17.4747 1.72402 -1.38322 0.870778
21.0964 16.7829 20.0673 2.55762 0.919894 -0.131788
23.1557 18.4969 19.6232 0.63628 -0.0838695 -0.673512
23.2309 20.3777 17.5241 0.892795 -0.0880667 3.01551
20.8721 21.6052 16.4158 0.693083 -0.76492 -0.536058
18.7174 21.3346 18.0184 -0.413165 1.55954 1.65369
19.9224 23.6966 18.7702 -2.05681 4.19257 -3.12076
21.2419 21.0513 18.9996 0.640581 -0.278982 -0.425775
22.0704 24.1928 20.1773 1.83403 -0.0719105 1.73967
22.4098 23.1574 17.6985 -1.03154 4.44469 -2.2362
19.4184 19.2245 20.0185 0.388112 0.728988 1.98486
19.1631 19.9629 22.8668 3.77584 1.76014 1.00466
17.0872 18.9631 21.7447 3.31033 3.00333 -1.15998
18.5298 16.63 20.7626 -3.04662 0.611169 -0.566422
20.184 17.6079 22.3756 1.43794 -0.363394 -1.70954
23.1685 17.6069 22.0091 1.7066 -0.153662 0.059365
21.733 19.634 21.5832 -1.43947 -1.16308 -0.176847
21.7111 19.0157 24.1769 1.32365 -0.678608 -0.17897
24.7746 19.6606 21.2617 -2.17267 -2.5126 2.99465
17.3772 23.1164 20.1742 -2.27435 -0.619503 2.88052
20.3645 21.3613 24.2808 0.726362 0.214437 1.20502
19.0251 22.981 23.0195 -0.827558 -2.16167 -3.35545
16.7494 20.5891 19.5398 1.27366 2.79471 -2.65456
17.0121 21.6411 22.3229 -0.236637 0.0517588 1.91062
19.7707 24.6116 21.0329 -1.04438 -4.21931 -0.954182
21.7725 22.3404 21.9381 -1.09114 -1.35145 -1.25073
23.6114 22.125 19.8628 2.97194 0.864265 -0.666244
23.6261 20.5906 23.3582 -1.91395 0.474736 1.22741
19.435 21.8327 20.842 -1.25018 -0.378437 -0.598844
ITEM: TIMESTEP
4000
ITEM: NUMBER OF ATOMS
32
ITEM: BOX BOUNDS ss ss ss
1.6179132575011636e+01 2.4283711263260223e+01
1.6811861643362256e+01 2.4076960367554570e+01
1.6681249268672364e+01 2.3850585292596666e+01
ITEM: ATOMS x y z vx vy vz
16.5866 17.7153 19.363 2.98371 0.0141702 -1.76057
19.2565 17.0423 17.6239 -1.43374 -2.42537 -1.86745
17.8258 19.1336 17.9039 3.10069 -0.571527 -1.44336
19.7165 19.2213 20.074 -1.53382 -0.202768 -2.43315
20.7138 19.1344 17.3163 1.01103 2.34626 -1.00025
21.5574 16.9546 18.9371 -2.97318 -2.52289 0.347523
22.9417 18.7434 19.5987 1.31084 1.79616 -0.386037
23.1678 20.2069 17.5952 -0.275349 0.231659 -4.62665
18.5165 21.6822 18.6721 -0.554659 0.645598 0.537567
20.6705 23.8236 17.6302 2.17242 -0.89667 -0.270626
16.9086 22.7261 20.4613 -0.93849 0.00894585 0.155034
16.6449 20.4234 20.1328 -2.24833 -0.00711011 2.2141
20.741 21.4122 16.5932 -2.77344 2.76073 -0.659458
21.292 21.7972 19.236 -2.35865 -0.749284 0.300088
22.4844 24.4712 19.5397 0.185145 1.6957 -0.75359
23.0391 22.9071 17.7445 4.2186 0.662934 0.450499
23.5359 21.408 20.4215 -1.99241 2.33591 -0.18743
19.1335 19.6488 23.7274 1.50786 -0.638685 1.77282
17.5698 18.3776 21.8686 0.165625 0.942035 1.60631
18.8304 16.5979 20.0006 0.201589 -3.42235 1.20236
20.062 17.5687 22.2831 -1.39716 -3.89463 0.988276
22.583 17.2211 21.9785 -1.13465 -1.23337 3.00701
21.7021 20.0128 21.7164 0.109701 1.37056 3.2504
21.8918 18.8476 24.1163 -1.81305 1.82101 -1.34392
24.0023 19.3432 22.2259 0.500887 0.102481 -0.719043
20.9714 21.5656 23.8566 -1.08786 0.943716 0.821054
19.5476 23.4411 22.9048 2.06562 2.29165 0.573891
16.9041 21.1869 22.5596 0.0872919 -0.877322 -0.811963
19.5669 23.75 20.2894 3.13721 0.247818 0.603775
19.1366 21.3834 21.4519 1.07287 -2.00951 1.52862
21.7059 23.146 21.6724 0.89206 -3.17964 -0.352555
23.4334 21.7466 23.1454 -2.20834 2.41379 -0.743286
ITEM: TIMESTEP
5000
ITEM: NUMBER OF ATOMS
32
ITEM: BOX BOUNDS ss ss ss
1.6486897635136838e+01 2.4572253584157128e+01
1.6690492683756215e+01 2.4057806283768326e+01
1.6597358031599629e+01 2.4061374998724830e+01
ITEM: ATOMS x y z vx vy vz
16.4632 17.91 19.354 2.15895 1.57671 -1.8018
19.2784 16.909 18.0258 0.661861 -0.69636 -1.15142
17.9407 18.9892 17.6445 -2.38412 0.864913 -1.82208
19.4288 19.1382 19.5804 -0.479281 -0.121197 1.5307
16.6301 20.637 19.5905 0.892071 0.793259 2.1046
19.2328 19.3712 23.2101 1.28529 2.88194 -0.359764
17.2651 18.9976 21.448 -1.50049 -0.50101 -1.29591
18.2377 16.6287 20.2327 -1.94571 -2.86618 0.543403
20.0987 17.5769 21.5773 0.897619 1.37923 -0.309098
21.368 18.4997 17.5465 0.30707 0.369105 -1.18636
21.497 16.8726 19.621 -4.05331 0.350561 1.41172
23.356 19.5418 19.4632 0.0841456 2.92401 0.859869
22.7666 17.6504 21.2545 2.28522 0.568782 -1.19573
21.5848 19.9198 21.7143 0.31911 -1.15098 3.24105
21.9297 18.7805 24.0571 1.43337 0.524979 -0.0882392
24.414 19.9446 21.7325 -1.23488 0.259089 2.68715
18.6028 21.758 18.7997 -1.00084 0.0101714 -0.563028
17.112 23.0972 21.4549 0.563924 -3.84121 4.36038
19.016 23.4982 23.0844 0.565904 -0.334722 -0.818276
17.4435 21.3548 23.1272 0.207279 -0.163719 1.95885
19.7168 23.8627 20.3597 -1.09503 2.20494 -2.14574
19.0914 21.4523 21.1785 2.10509 -1.33529 -1.43839
22.6646 20.7209 16.7093 1.8962 1.25882 -2.47424
21.16 23.0743 17.36 -0.0938799 -0.939927 -0.667077
20.1252 20.6176 16.7453 -0.219189 -3.25801 -0.873603
21.1651 21.4431 19.5113 -1.36981 1.69797 -2.67743
22.271 24.1593 19.5909 3.23492 0.267795 -0.495408
23.5427 22.2315 18.1331 -0.768777 -1.54519 1.42689
23.6906 22.1336 20.8689 2.17736 -0.208554 0.531029
20.8016 21.3112 23.9998 -1.52447 0.789669 1.37422
21.5128 22.9573 22.0004 -1.2589 -0.632877 1.13783
23.232 21.6007 23.6641 -2.14671 -1.12672 -1.80408
ITEM: TIMESTEP
6000
ITEM: NUMBER OF ATOMS
32
ITEM: BOX BOUNDS ss ss ss
1.6413526275510467e+01 2.4123719825281885e+01
1.6323117479658308e+01 2.4114650460322306e+01
1.7023105214757418e+01 2.3726916162130149e+01
ITEM: ATOMS x y z vx vy vz
16.5096 18.1465 19.2157 -0.491971 0.00550992 2.72219
19.2885 16.8967 17.8248 -1.43511 -3.71579 -1.73093
17.9519 19.1908 17.9183 1.90859 -1.22097 1.65002
19.6134 18.8918 19.7752 1.10612 -0.342488 2.59564
16.5246 20.7579 20.4693 4.1745 -0.714941 -0.701142
18.2811 16.3957 20.3766 -1.82605 1.38971 -0.635266
18.6207 21.9022 18.7838 -2.22565 2.97632 2.57456
19.7284 23.886 20.233 1.05505 0.341557 1.83733
20.1619 19.9943 17.006 2.03013 -0.313004 -0.821426
21.9763 18.2888 18.2086 -3.60548 -1.83518 -0.551499
20.7483 16.2549 19.3221 2.01093 -3.02375 -2.72898
23.6848 20.1599 19.1842 2.96091 0.0450717 0.0808488
22.5966 20.7927 17.0756 0.263948 2.52988 0.835499
21.0303 22.8132 17.109 -2.22301 0.658023 -0.535725
21.2477 21.7089 19.1984 -0.940866 2.29621 0.266874
22.3494 24.1981 19.8518 0.754352 3.63781 -0.899544
23.6016 22.7696 18.3445 -1.77049 -2.66892 -0.523163
19.3267 19.2811 23.2412 -1.69485 -2.39557 -1.12672
17.2876 18.5435 21.6786 -0.928891 0.426156 0.116251
20.2442 17.3882 21.7987 -2.25892 -0.767943 0.150654
17.2942 23.2369 21.0338 3.23317 -1.32491 -2.70602
19.0246 23.7148 22.9498 -0.59287 -0.537957 0.190291
17.224 21.3309 22.9165 -3.95241 1.83059 -0.398457
19.3608 21.3875 21.2995 -0.650043 -2.11136 -1.52464
20.4599 21.5959 23.722 -1.30288 0.189674 0.857086
22.4537 17.8046 20.7414 -0.665107 1.28241 1.55455
21.6675 20.1302 21.2906 2.97214 2.6802 -1.04079
22.1013 18.7756 23.5286 0.952407 -0.569357 -0.895099
24.1114 19.7154 22.2388 0.0198741 1.07228 0.768388
23.6867 22.2787 20.9302 1.08798 0.38718 -1.27849
21.5102 22.9612 21.9583 0.833155 -0.66264 0.0655901
22.972 21.4476 23.4151 1.20133 0.456209 1.83212
ITEM: TIMESTEP
7000
ITEM: NUMBER OF ATOMS
32
ITEM: BOX BOUNDS ss ss ss
1.5997735010290612e+01 2.4338434777187171e+01
1.6120663737554779e+01 2.4257037281030069e+01
1.6716634761826082e+01 2.3980367241439811e+01
ITEM: ATOMS x y z vx vy vz
15.8901 18.1494 20.1815 -2.01973 -0.716938 3.41756
19.6178 17.427 17.5382 -0.905599 0.153546 -0.863702
17.5596 19.4254 18.746 3.05453 -1.40117 1.97259
19.9323 18.9837 19.786 0.25627 1.83277 -2.09122
18.305 16.8618 19.695 -0.307099 -0.485107 -2.07359
20.043 19.4743 22.9243 -0.244508 1.07957 -1.02949
17.8567 18.6264 21.8297 -0.965243 0.975009 1.63281
19.9887 16.9236 21.7408 2.14978 3.14974 1.38143
22.1528 18.7521 18.3596 -0.997712 1.27602 0.177073
20.912 16.426 19.1914 0.796847 0.60499 -2.71475
24.3866 19.6066 19.5657 -0.0344699 0.850376 1.52147
22.5707 17.631 20.9362 -1.16359 2.62922 0.147855
22.5097 18.6834 23.4225 3.99653 -3.24206 -1.10324
24.5494 19.6405 22.4221 -0.907364 2.49719 1.94809
16.3597 20.6314 20.8513 1.81165 1.20054 1.66147
18.6904 21.9029 18.3187 -0.676097 3.17626 -0.290294
19.4123 24.2105 19.7565 1.4703 0.798031 2.37171
19.896 19.8787 17.4216 0.00445334 -1.68963 -1.06949
16.9712 23.1092 20.4284 -2.58498 0.636206 0.0733213
18.7775 23.5678 22.2472 -1.14993 -1.55819 -4.12287
17.2545 21.5413 22.9209 0.0139764 0.778619 -3.49595
19.2506 21.24 20.9585 -0.0836422 0.518216 1.83978
22.0309 21.5247 16.5499 0.712961 0.114815 -0.655771
20.775 23.654 17.7844 -2.58888 -2.00941 -0.000261826
21.2245 21.4248 19.0976 0.85906 -0.488784 1.11856
22.5283 23.6644 19.6353 -0.0505668 -0.000985937 -1.57903
23.6579 21.704 18.4654 0.816633 -4.55008 0.171582
19.6138 21.7667 23.8672 -0.707859 -1.97697 -1.41374
22.0354 20.2165 21.2817 0.680282 -1.95535 0.238806
24.1942 21.8579 21.419 -0.566959 -1.04746 2.11046
21.3659 22.7721 21.7073 -0.463275 1.52174 0.583125
22.3277 21.3616 23.5898 -0.205766 -2.67072 0.135702
ITEM: TIMESTEP
8000
ITEM: NUMBER OF ATOMS
32
ITEM: BOX BOUNDS ss ss ss
1.6109566660219709e+01 2.4889421201642488e+01
1.6403021618169173e+01 2.4118099112280273e+01
1.6749302419540228e+01 2.3956353642379678e+01
ITEM: ATOMS x y z vx vy vz
15.9667 18.2433 20.2459 -1.02046 -0.665444 1.48085
19.5786 17.8565 17.45 -0.988108 0.659648 0.376433
17.5817 19.2515 18.5926 0.92515 1.41363 0.934399
19.9442 18.8389 20.0224 1.24561 2.25106 1.20823
18.2556 16.7909 19.7415 -0.747669 -0.00721647 1.6299
20.3232 18.8841 23.0837 -1.01593 2.72937 2.59452
17.9737 18.7817 21.5799 -0.132235 -2.25478 -0.0661786
20.5515 16.943 21.6326 -0.59683 -0.13471 -2.01744
19.3766 20.2372 16.5725 -2.22433 0.386897 -2.0915
21.9217 18.9741 17.901 0.0705399 0.448496 0.529599
21.1069 16.4788 19.2323 2.45584 -0.133842 -1.64797
24.8061 19.4038 21.6808 -2.07094 -1.10256 0.20731
23.1479 17.7237 20.3939 -0.149082 0.332732 -0.0431914
22.7437 17.8503 22.886 0.226142 -1.8568 1.06018
23.814 20.2717 23.6685 -2.45348 0.101045 -1.21404
22.247 20.2511 20.9507 0.452312 0.443387 0.290316
16.6471 20.8149 20.4933 1.66898 0.552621 -2.02461
18.0681 22.0621 18.7855 -1.11802 -3.07196 -1.61197
19.6336 23.9408 19.9112 -2.94514 -2.70223 0.0442927
17.3581 23.4609 20.6296 1.91493 0.449969 0.663947
19.9292 23.2414 22.8246 2.15605 0.956672 -1.03061
17.2426 21.8611 22.8091 2.95931 -0.258333 -0.593165
19.4902 21.4793 21.3059 1.53603 1.66894 0.0841899
19.0917 21.2847 24.059 -1.30566 -1.32574 1.28801
21.7948 21.4345 16.6694 -1.70643 -0.618808 -1.43518
20.0075 22.9797 16.985 0.700395 -0.236186 0.334841
20.6419 21.2145 19.0204 1.84122 -0.977952 -0.692179
21.992 23.6822 18.4519 -0.78063 2.94001 -0.279439
23.3243 21.492 19.1335 2.11469 1.24758 -0.890601
24.1627 21.8887 21.7883 -0.180849 0.484773 1.6634
22.2266 23.2717 20.8971 0.994482 -2.60818 2.95277
21.6907 21.7512 23.242 -1.82587 0.887933 -1.7051
ITEM: TIMESTEP
9000
ITEM: NUMBER OF ATOMS
32
ITEM: BOX BOUNDS ss ss ss
1.6893362657461925e+01 2.4444383823349852e+01
1.6484752200254722e+01 2.4034078628127471e+01
1.6577761817364976e+01 2.3931009738751239e+01
ITEM: ATOMS x y z vx vy vz
19.4855 17.7798 16.9534 0.0842825 -0.631952 -1.20653
17.1374 18.7425 18.2364 -1.66705 -1.7396 -0.0888809
19.3628 19.1491 19.5078 -1.10759 6.39924 -2.04548
18.4168 16.4608 19.0492 0.423643 -3.05536 0.450966
19.5889 20.4454 17.0187 -3.95647 -1.34196 -1.00163
17.9589 21.9827 18.7062 -1.42754 1.09441 3.41192
19.6004 24.0261 19.7096 0.599412 -0.44887 0.772472
19.992 23.1513 17.2592 0.767361 -1.29223 1.4091
21.8421 19.1086 17.8587 3.07879 -0.166974 -2.37054
20.8227 16.9147 19.1004 0.422632 2.37259 -0.355686
22.8286 18.0013 20.296 -0.774137 2.79105 -0.26079
22.1284 21.3396 16.5857 2.19869 1.43006 0.552728
20.9549 21.5196 19.2172 -0.781953 1.16288 -2.38376
22.7234 23.1987 18.5868 2.37908 -2.38675 -0.850265
23.4863 20.7543 19.0013 2.07468 -3.04894 0.435865
16.8892 17.6682 20.6539 -0.819455 -0.614586 0.29759
18.6389 19.3046 22.006 1.8463 0.701726 -0.524394
16.9444 20.3126 20.3127 0.609038 -0.747156 -0.147323
17.26 23.2115 20.7598 0.45898 -0.759397 0.405681
19.7045 23.6327 22.9788 -0.895519 -0.810759 2.50465
17.3428 21.9277 22.7375 0.26023 -1.01033 -1.48187
19.3652 21.701 21.2729 -0.0715509 -1.99497 0.85114
19.873 21.0825 23.9099 1.62701 2.69677 -0.45422
20.7193 18.5405 23.95 -0.451604 0.585802 2.6143
20.421 17.3684 21.7513 -0.081358 0.211369 -1.07666
24.4171 19.4167 21.3266 -2.52358 -2.67368 1.20466
22.9427 17.6785 22.9025 -0.620772 0.575095 1.55398
23.1316 20.2529 23.4948 -0.882269 0.964775 -0.00353785
21.3306 19.9209 21.6592 3.22033 3.28135 -2.17552
23.6319 21.8399 21.4376 -0.631799 -1.48664 -4.16215
21.7786 23.6768 20.8955 -1.79287 -1.5486 3.47077
21.9202 22.5303 23.5043 -1.56494 1.49162 0.653429
ITEM: TIMESTEP
10000
ITEM: NUMBER OF ATOMS
32
ITEM: BOX BOUNDS ss ss ss
1.6333149519414118e+01 2.4101192904830992e+01
1.6721609026296917e+01 2.3840386812058075e+01
1.6585650466664351e+01 2.4179856210062454e+01
ITEM: ATOMS x y z vx vy vz
19.3827 18.0464 17.1726 -0.820689 -0.465619 -0.113171
17.346 19.209 18.5096 -0.03989 2.24262 0.875336
19.9527 19.1429 19.4152 -1.73352 -1.40927 3.72573
18.3708 16.6681 19.2206 1.18708 0.123587 1.49236
19.9974 20.6747 16.6159 -0.915575 1.55839 -3.33474
18.2233 21.4797 18.2778 2.09053 -0.07017 0.825282
19.0573 23.7257 19.7198 -0.83744 -0.0669045 1.53857
20.3381 23.1716 17.557 4.90315 -1.49459 -1.33331
21.7452 19.0285 17.4796 -1.19688 1.14406 -0.907029
20.8646 16.5045 18.9752 1.81439 -0.9931 2.21398
22.6059 18.0732 20.1321 -1.08386 -1.33575 -0.469571
22.7789 22.0089 16.7726 -1.89649 -1.26902 -1.13254
21.2241 21.4434 19.1015 1.65608 1.06356 1.51494
23.0016 23.6749 18.7144 0.000288487 2.19579 -0.561223
23.5589 20.4609 18.7954 -1.51021 1.70869 2.37971
17.2702 17.8631 21.1656 0.230836 -0.263694 -0.0956355
18.4371 19.4955 22.7225 -0.0292914 -0.0406532 -0.740858
16.3272 20.4833 21.4542 1.41317 1.61285 -2.71497
16.9172 22.579 20.0747 1.51789 -1.00771 0.188732
19.6188 23.2529 22.6862 0.188492 -0.203917 2.45739
17.5592 21.9069 23.498 -1.17918 -1.94974 -1.25157
18.8397 21.3305 21.0921 -0.052036 -2.05908 2.21432
20.0589 21.244 23.9574 -0.760261 -1.59078 1.55997
19.9271 17.4202 21.4347 -1.73061 -0.486479 -1.40695
20.5191 18.692 23.9972 0.592219 -0.860826 -1.05618
24.2114 19.8315 21.598 -1.5127 0.687227 0.531551
22.7995 17.6098 22.383 -1.10978 0.8833 -0.010106
22.9214 19.8394 23.9986 1.57095 2.5518 0.711216
21.3399 19.8936 21.736 -0.896692 -0.800152 -2.49449
23.6645 22.0509 20.6289 -0.621228 -1.25085 -1.71931
21.4458 23.6727 20.7015 -0.0913185 1.28052 -0.868086
22.3356 22.162 23.0522 0.852572 0.5659 -2.01936
ITEM: TIMESTEP
11000
ITEM: NUMBER OF ATOMS
32
ITEM: BOX BOUNDS ss ss ss
1.6884133120050283e+01 2.4331589976635126e+01
1.6535725368408364e+01 2.3903671853938331e+01
1.6801890305311119e+01 2.4069425129436208e+01
ITEM: ATOMS x y z vx vy vz
18.7215 18.4126 16.9083 -1.68609 1.06388 -0.493903
17.1319 19.0042 18.6928 2.38721 2.45946 -5.64639
19.5405 19.5801 19.2273 0.932986 -0.817169 0.456967
18.047 16.4269 18.4802 0.437394 -1.26003 0.623131
19.8851 20.9007 17.116 2.04056 -0.14806 2.02699
17.5733 21.5798 18.5376 -2.40132 0.808244 -0.575102
18.47 24.0733 19.4134 -0.132022 1.70131 0.329186
20.7602 23.2359 18.1477 -0.571666 -1.06541 -0.976344
21.7433 18.83 17.3079 -0.874102 -1.90036 -2.44942
20.3719 16.8836 18.9688 1.63384 0.17543 1.58436
22.6006 18.2622 20.0141 0.0693694 0.467813 0.932087
22.5171 21.2387 16.7861 -1.43857 -1.25958 0.894434
22.111 21.1374 19.681 -0.388855 0.403739 -0.821259
23.4132 22.8879 18.5502 0.152677 0.925959 0.782282
24.1211 19.8098 18.6121 -4.43418 -0.347637 0.280779
18.4914 17.5324 20.8236 2.49626 -0.796552 0.59032
18.33 19.1059 22.8116 0.620784 0.713302 1.10866
16.9318 20.4424 20.9172 0.142358 -1.41618 -0.563843
16.9029 23.0796 20.907 -0.417948 3.12727 -0.516911
19.4943 23.4985 22.5207 0.667673 -0.103086 2.34098
17.5133 21.8548 23.376 -0.000824437 -1.21027 1.84343
19.3551 21.7589 20.8539 0.235562 0.542747 -1.61128
19.9509 21.0978 23.8897 1.46207 0.241217 -1.14564
20.6407 16.8925 21.8106 0.394563 -1.32228 1.88258
20.567 18.3259 23.9546 -0.0591824 2.86884 -1.08296
23.8088 20.0691 21.6425 -2.27339 0.159644 -1.45755
22.9966 17.8092 22.7898 0.140128 0.961364 2.29926
22.5639 20.2096 23.842 0.463593 -1.13589 -1.98428
20.9077 19.7458 21.8592 3.74436 0.509121 -0.961288
23.9466 22.6745 20.9644 -1.05843 -0.118478 1.06002
21.232 23.8856 20.4888 1.81067 -0.688277 0.691265
21.9992 22.3945 22.7447 -4.09548 -3.54008 0.559469
ITEM: TIMESTEP
12000
ITEM: NUMBER OF ATOMS
32
ITEM: BOX BOUNDS ss ss ss
1.6938873185433227e+01 2.4061064798680462e+01
1.6794559897326579e+01 2.4185178447756051e+01
1.6465015059440333e+01 2.4236431013072057e+01
ITEM: ATOMS x y z vx vy vz
19.1993 18.1249 17.0638 0.373911 -1.31848 -4.30563
17.217 19.7042 17.7164 -0.457001 0.261608 -0.460063
19.5554 19.1371 19.6213 0.317864 -0.814652 -0.909638
17.4953 17.1621 18.6553 1.79289 0.813801 0.544691
21.6909 18.7739 17.6104 -0.070967 1.02687 -0.169721
20.0796 16.8403 19.1745 1.09277 -0.752515 -0.675815
22.554 18.0991 19.7458 1.30969 -1.04447 -0.492637
24.4628 20.2705 18.6451 -1.01035 -0.945911 1.12194
18.0183 17.206 20.9387 0.46487 1.12959 0.0267315
18.6532 19.024 22.538 -0.186867 2.53784 1.72999
20.494 17.1089 21.9978 1.15102 -0.466064 -1.34732
20.4743 18.7836 24.3745 0.457132 0.420974 -0.920994
23.9369 20.1962 21.1682 -0.074931 -0.12685 1.08469
22.9252 17.9232 22.8024 0.170983 1.40617 -0.352885
22.6024 20.0868 24.4924 -0.391719 1.25157 -1.00623
21.3536 19.6093 21.9643 2.11753 0.0377808 2.83782
19.9559 20.6753 16.8459 -1.65462 0.604282 1.11831
18.1673 21.9584 18.5345 -0.0533795 0.793917 -0.143966
18.5789 24.1542 20.0325 -1.98751 1.55422 0.824038
20.3924 23.0855 18.1226 -0.113785 -0.597727 0.350395
22.7537 21.1555 17.1169 -4.17022 0.383909 4.33354
21.7307 21.1082 19.4809 -0.289804 0.452762 -0.846229
22.8189 23.4094 18.2513 0.929314 -0.79206 2.2181
16.9399 20.0827 20.2482 -0.692919 -1.33434 -0.473102
16.8699 22.6068 21.0751 1.09664 0.705578 -1.6809
19.0879 23.4204 22.8232 0.845494 1.88521 0.0311003
17.4852 21.6284 23.3328 0.981622 -0.1364 0.888796
19.3194 21.4491 21.0486 -1.7946 -1.05474 -1.73838
20.4239 21.3289 24.1099 -0.330377 0.372627 -0.851569
24.2461 22.5344 20.2088 -0.324865 -3.53071 -0.819185
21.0444 23.8689 20.3715 0.363942 -3.79633 1.3217
22.1134 22.1238 22.5285 0.138249 1.07254 -1.23759
ITEM: TIMESTEP
13000
ITEM: NUMBER OF ATOMS
32
ITEM: BOX BOUNDS ss ss ss
1.6722257424929172e+01 2.4000330911583521e+01
1.6775698975658770e+01 2.4186810077351456e+01
1.6812707234068913e+01 2.3983729050752579e+01
ITEM: ATOMS x y z vx vy vz
19.2546 17.8485 16.8941 1.36586 -2.04422 -3.16177
17.1441 19.2314 17.9122 -1.40215 -1.93775 -0.632262
19.3818 18.9875 19.6922 0.841479 -0.0654973 2.95017
17.7778 16.8345 18.5278 1.06036 2.58773 -0.381665
21.9531 18.9548 17.9319 -0.772501 1.83396 -2.58725
20.6043 16.7734 19.0068 -0.642982 -2.10762 -1.92897
22.5717 18.0853 20.2076 0.36573 -0.866886 2.11125
23.9891 20.6709 18.633 -2.29971 2.31899 -0.677903
17.4629 17.3198 20.8913 -1.71329 -0.683021 -0.00572306
18.2249 19.1458 22.761 0.0721922 -4.53079 2.27185
20.0884 17.1063 21.7958 -1.44396 1.37725 -0.521191
20.8382 18.1214 23.9848 0.942618 -1.0886 1.72157
23.8372 20.4182 21.381 -0.559191 -0.771994 0.988948
22.9977 17.9447 22.6404 0.739599 -1.00625 0.939998
23.0848 20.2833 23.7463 1.98414 1.07833 1.23395
21.2078 19.7233 21.8413 -0.885097 0.353348 -0.721643
19.6509 20.5425 17.4335 -0.775869 0.101617 -1.61305
17.7117 21.7933 18.4654 -0.208836 -0.164505 -1.654
19.0113 23.8731 20.2611 0.281797 0.822951 -0.552586
20.4691 22.8466 18.2472 1.28707 -0.289482 0.930142
22.3605 21.2481 16.8119 0.104162 -0.909365 -1.63278
21.8996 21.2208 19.6191 -0.0453943 -0.838006 2.60495
23.1006 23.3388 18.1739 1.03215 0.905472 -2.42213
17.0059 20.2804 20.5061 -0.446185 2.83609 -0.819962
16.7281 22.9464 20.8384 0.608171 1.73182 0.596488
19.781 23.6878 22.8461 -1.90902 0.455354 -0.535956
17.5824 21.9482 22.9175 0.0079676 -0.413332 0.380814
19.2435 21.405 21.2488 -1.20337 -2.08712 2.4438
19.8926 20.8671 23.9245 -0.511003 -0.199342 1.82931
23.9969 22.7271 20.614 2.29981 0.572798 0.636163
21.5984 24.1852 20.3368 0.908609 0.749247 -1.14841
22.1893 22.2808 22.5482 0.916837 2.27883 -0.642184
ITEM: TIMESTEP
14000
ITEM: NUMBER OF ATOMS
32
ITEM: BOX BOUNDS ss ss ss
1.6839200087215964e+01 2.3824671593336390e+01
1.6372237675148252e+01 2.4217422619762885e+01
1.6604918011344385e+01 2.4274528422322838e+01
ITEM: ATOMS x y z vx vy vz
19.4213 17.6813 17.011 0.274352 1.3395 2.75369
17.4369 19.0202 18.1814 -1.64277 -3.56234 -0.56827
19.6666 19.0706 19.582 -1.29901 0.620109 -0.123745
18.5289 16.4203 18.9566 -1.84069 -0.245124 2.00032
21.8912 19.0203 17.5988 0.150971 3.49279 -1.02656
21.1138 16.4119 18.5796 -2.61239 -0.628912 1.75174
22.4868 18.0599 20.0078 3.09001 -2.28915 -2.14791
23.9536 20.4022 18.7976 1.17625 2.30058 -1.01239
19.7758 20.6434 17.1093 -0.106202 -3.13198 -2.19322
17.7372 21.9825 18.7145 -2.76113 0.394602 -1.46948
19.0016 24.3339 20.1173 -0.433775 -0.124588 0.586036
20.0782 23.0109 18.2561 1.51768 0.0643624 -0.288473
22.1545 21.3164 16.8287 -1.30704 1.95678 1.90088
21.4886 21.101 19.5057 2.20329 -0.601441 -1.53472
22.866 23.3505 18.4459 1.18268 1.74926 -1.27185
23.9328 22.6552 20.6386 1.22058 1.11952 1.14665
17.6237 18.0454 21.2272 -2.08357 -0.803889 0.613345
18.4122 19.6225 22.8572 -1.25953 -1.91694 1.26714
20.2559 16.8871 21.3517 1.5269 0.649677 -0.589738
20.4102 17.992 23.6337 -0.528759 -0.93352 -2.0961
23.5543 20.142 21.3934 1.85402 1.42967 2.11798
22.93 17.6987 22.4788 0.205495 0.367572 -1.12065
22.7537 19.8667 24.0404 -0.72314 -0.415511 0.0275145
21.0491 19.6406 21.8312 -1.93307 -1.06096 2.08014
16.8909 20.306 20.4647 -0.514706 1.49349 -0.191878
16.9544 22.8409 20.9052 2.69883 -2.26202 -0.922196
19.4539 23.854 22.6524 0.955026 1.57088 0.183687
17.8419 22.0978 23.4004 0.656856 1.2213 -1.83895
19.4886 21.7489 21.0158 0.615125 0.015477 -0.838666
20.1491 21.4477 24.2259 -1.37427 0.298559 2.71226
21.4393 23.8602 20.5625 0.884114 -1.21024 1.51785
21.8993 22.1091 22.2686 0.207874 -0.897499 -1.42443
ITEM: TIMESTEP
15000
ITEM: NUMBER OF ATOMS
32
ITEM: BOX BOUNDS ss ss ss
1.6950492305844428e+01 2.3790218786841471e+01
1.6487101918210694e+01 2.4231690161797136e+01
1.6574195675874218e+01 2.4249514422432586e+01
ITEM: ATOMS x y z vx vy vz
19.7755 17.9768 16.8998 0.522124 -0.862252 -1.40803
17.591 19.189 17.9498 2.25409 0.986893 -1.14124
19.689 19.0851 19.777 -0.777958 -2.38636 0.421022
18.3894 16.539 18.7127 -3.15885 0.449857 -0.273527
21.9216 18.7196 17.6974 0.664672 3.21704 1.39978
20.5125 16.5119 19.0578 -2.63139 0.240233 -0.456267
22.7779 18.0582 20.1096 -1.50008 -0.533717 0.319701
17.4128 17.7654 20.6092 0.659798 -0.907741 0.769109
18.483 19.2953 22.4546 -1.26368 -2.28887 -2.58599
20.2823 17.3138 21.4005 -0.147788 -0.566964 1.44318
20.7217 18.5408 23.9272 -1.00104 -0.542965 -0.973002
23.7749 20.0559 21.7616 0.990587 1.7534 -1.17397
22.8696 17.9055 22.947 -0.163691 -0.477601 -0.547442
22.7377 20.2893 24.2027 0.511851 1.75605 -0.853602
21.3474 19.7825 21.5615 3.7719 0.769469 3.05215
17.0142 20.4455 20.5413 0.770389 0.753162 1.16334
23.7186 20.2786 18.7607 -1.3759 0.0206822 2.85032
19.7125 20.655 17.0805 0.406967 -1.72355 -3.33078
18.0096 22.1211 18.7323 -1.11154 1.75255 -1.57086
18.6484 24.2312 20.2127 0.701951 -0.0148127 0.384017
20.1881 23.3208 17.981 0.887842 -2.15404 -1.53889
22.1566 21.2929 16.4723 -0.468836 -0.393281 -1.73986
21.3385 21.4184 19.1915 1.06529 0.000989024 1.98107
22.9407 23.0635 18.049 -1.19426 -0.340907 -0.285524
23.6257 22.2746 20.544 -1.06745 0.462361 1.60737
17.0844 22.9992 21.7244 2.02077 -0.563153 1.50204
19.5471 23.5545 22.7938 -1.4534 0.135962 0.597083
17.551 21.4799 23.4044 -0.466095 -2.84151 -0.539644
19.2982 21.5869 21.0717 2.02735 3.19496 2.25337
20.2368 21.1077 23.9716 0.353313 0.664462 0.792394
21.2159 23.6383 20.5474 -2.16063 0.114846 -1.43259
22.0676 22.1438 22.493 2.3337 0.324806 -0.684737
ITEM: TIMESTEP
16000
ITEM: NUMBER OF ATOMS
32
ITEM: BOX BOUNDS ss ss ss
1.6682232456771750e+01 2.4343480016817640e+01
1.6508314135688227e+01 2.3895876488285783e+01
1.6792111300249598e+01 2.4041138905472067e+01
ITEM: ATOMS x y z vx vy vz
18.808 18.5163 17.2871 1.27547 -0.700834 2.97933