ITEM: TIMESTEP
0
ITEM: NUMBER OF ATOMS
33
ITEM: BOX BOUNDS ss ss ss
1.5962488236871664e+01 2.4235245931841291e+01
1.6853155952775861e+01 2.3973377570745317e+01
1.6265730917314702e+01 2.4698468239284040e+01
ITEM: ATOMS x y z vx vy vz
17.9561 19.1291 17.1946 0.959393 -0.229253 0.129548
20.0134 19.3253 18.9701 -0.167753 1.56145 -1.6609
17.0264 21.3328 18.5434 -1.88183 1.14777 0.482348
19.7213 23.834 20.2579 1.24094 1.01191 0.0297697
19.609 22.0952 18.0519 0.0546044 -0.573944 1.11575
17.0855 23.323 20.4237 2.37958 -0.522505 0.40685
18.5215 16.8572 18.6857 1.03197 0.238945 -0.660379
17.2592 18.9305 19.8586 -0.607136 -0.209818 0.0270894
22.6659 18.8419 20.3449 2.16855 -0.936133 -0.396248
20.166 17.5219 16.7268 0.447541 0.0733661 -0.938364
21.1937 16.8582 19.1951 1.66483 0.332265 0.792974
21.6288 23.9693 18.4549 -0.0834989 0.358873 -0.265418
22.35 21.6572 17.2269 -1.66246 -0.799988 0.274473
21.6404 21.4703 19.868 0.525953 -0.15171 -0.63409
22.3601 18.8726 17.5662 -1.18875 0.741582 -1.08134
23.9792 23.0216 19.1315 -0.0248749 -0.759337 0.0442792
24.2312 20.4055 18.7502 0.0685622 0.102458 1.1037
20.2906 20.1641 16.2698 -1.44446 -0.127616 0.522098
17.7361 19.4858 22.5559 -1.26987 1.38767 1.18104
19.4123 20.7269 24.349 1.21102 -0.0175757 -0.184955
15.9666 20.9999 21.0557 -0.758112 2.21509 -2.58066
19.5321 18.0004 23.9039 -1.31802 -0.525071 -2.19129
17.5222 22.2098 22.9051 -0.312897 -1.28957 -0.140935
18.8014 21.2164 20.6567 -3.02427 -2.133 -0.405803
19.4013 17.6497 21.167 -1.77574 -1.37879 1.57554
21.7672 17.354 22.5289 1.45826 0.600919 1.25698
20.1787 22.7127 22.6546 1.0377 0.0846387 0.377004
20.8019 19.899 22.1342 1.35409 -0.144851 0.858243
24.0172 21.3708 21.2833 1.13187 -0.808001 0.906033
21.7161 19.2869 24.6944 1.44788 0.888542 1.23569
22.4752 21.6363 23.4855 -2.20613 -0.23358 -0.678418
22.3635 23.6356 21.2658 -1.96455 0.406286 -0.74416
23.6448 19.2411 22.8749 1.50761 -0.311005 0.243539
ITEM: TIMESTEP
1000
ITEM: NUMBER OF ATOMS
33
ITEM: BOX BOUNDS ss ss ss
1.5962488236871664e+01 2.4235245931841291e+01
1.6853155952775861e+01 2.3973377570745317e+01
1.6265730917314702e+01 2.4698468239284040e+01
ITEM: ATOMS x y z vx vy vz
17.9945 19.1786 17.2973 0.294632 0.421716 -1.00715
20.1192 19.1475 19.0944 0.56325 -0.393567 -0.170547
17.1745 21.2965 18.6088 0.668794 0.904363 0.0817011
19.703 23.8187 20.0454 0.178738 -0.703928 -0.593227
19.7328 22.015 18.0162 -0.427501 1.50579 0.0302274
17.2367 23.301 20.5527 -2.4268 -0.2269 1.27082
18.5799 16.9364 18.7792 1.62576 1.03159 0.12807
17.3189 19.0331 19.9238 0.411201 0.0368225 -1.47628
22.7406 18.7082 20.3265 0.185522 -1.57383 0.0926875
20.3452 17.498 16.9963 -0.519245 -0.424775 1.05847
21.1526 16.6928 19.4212 -1.27867 -0.393611 -0.787442
21.6418 24.0293 18.5146 0.0543548 0.665178 0.250682
22.3892 21.6784 17.2183 -1.02704 -0.593741 0.70846
21.8447 21.5026 20.0265 1.55499 0.0660827 -0.957343
22.3843 19.0379 17.7149 -0.163347 -0.796892 0.144595
23.9535 23.0594 19.0575 1.22395 -0.792124 -1.0099
24.1781 20.4909 18.798 0.312449 0.825769 0.333115
20.2187 20.1506 16.2652 -0.0184195 -0.64652 -0.685181
17.6983 19.4914 22.4163 1.86828 -0.446509 0.398127
19.5929 20.8376 24.2534 1.67929 -0.366954 -0.285396
16.0076 21.1783 21.1398 -0.700599 -1.38274 0.616743
19.6102 18.086 23.9844 0.201495 0.0957367 -0.742478
17.4252 22.151 23.0034 0.148958 -1.15833 -1.47888
18.7896 21.3886 20.7292 -1.54448 2.64006 -0.106645
19.1916 17.4245 21.2067 -0.275794 0.662704 1.2088
21.646 17.1952 22.2514 -0.603636 1.21338 0.478222
19.8257 22.974 22.5722 0.0100227 0.196603 0.327163
20.6106 19.5902 21.949 -1.63614 0.672982 1.29733
24.1383 21.5096 21.2993 0.916436 0.522934 -0.748427
21.8009 19.097 24.4261 -0.110658 -0.28646 -0.179467
22.0756 21.6377 23.1805 -0.502766 0.298956 -0.503069
22.347 23.6658 21.333 -0.826323 -1.03146 0.988235
23.5675 19.2331 22.6334 0.163293 -0.542331 1.31797
ITEM: TIMESTEP
2000
ITEM: NUMBER OF ATOMS
33
ITEM: BOX BOUNDS ss ss ss
1.5962488236871664e+01 2.4235245931841291e+01
1.6853155952775861e+01 2.3973377570745317e+01
1.6265730917314702e+01 2.4698468239284040e+01
ITEM: ATOMS x y z vx vy vz
17.8854 19.4369 17.3599 -0.0277833 -0.535189 -1.84952
20.2394 19.1832 18.9276 -0.181427 -1.41591 1.27244
17.117 21.5948 18.7495 0.0386511 0.867167 -1.50536
19.7627 23.6683 19.9953 -0.953209 0.253657 0.845886
19.6699 22.031 17.8572 1.5149 1.90192 0.35206
17.412 23.33 21.0039 -1.16131 1.65306 0.201135
18.5744 17.0044 18.5299 -1.324 -0.341684 -1.05471
17.1734 18.9861 19.9 -0.619721 -1.24313 -0.359421
22.8097 18.8828 20.2907 -0.995149 0.167486 -0.539559
20.3617 17.312 16.9994 0.794705 -1.38232 0.975208
21.2624 16.825 19.6425 -0.367728 -0.731606 0.394654
21.727 23.7929 18.4212 0.516094 1.23263 -0.497481
22.2631 21.5495 16.9519 0.468021 -1.08714 -0.0956825
21.7121 21.5111 19.7396 -1.49038 0.0889468 -0.195487
22.5208 18.8612 17.3595 -0.616574 -0.448746 0.0471387
23.926 23.1183 19.3391 0.737119 -0.0306024 0.563944
24.1483 20.6617 18.6251 -0.00598474 1.32321 -0.701384
20.2451 19.7641 16.3874 -0.270269 0.767318 -2.07321
17.7256 19.5343 22.5817 -0.267874 -0.375869 -0.612788
19.5961 20.8269 24.2407 -0.290641 -0.475648 1.18399
16.1761 21.0194 21.0774 -0.845261 0.050636 0.560656
19.4657 18.0107 23.7476 -0.424643 0.900266 -0.205979
17.4103 22.1506 23.2098 0.0885094 0.957865 0.455344
18.8682 21.0393 20.608 2.62243 -0.798925 0.979323
19.1975 17.7238 21.0916 0.788455 -1.08622 1.31217
21.5963 17.2506 22.2774 1.49691 1.79302 0.740334
19.8958 22.8477 22.4189 -0.411749 -0.243333 0.622237
21.0206 19.8227 22.0689 -0.321504 0.292208 0.458133
23.7702 21.4304 21.4413 0.821068 -0.0662165 0.129759
21.7159 19.1693 24.6396 0.849963 -0.827985 0.0145667
22.0266 21.7179 23.4881 -0.110952 -0.151726 -0.540886
22.2288 23.7567 21.3373 -0.396076 -0.387934 -0.184577
23.5307 19.2212 22.7268 0.345408 -0.619203 -0.692943
ITEM: TIMESTEP
3000
ITEM: NUMBER OF ATOMS
33
ITEM: BOX BOUNDS ss ss ss
1.5962488236871664e+01 2.4235245931841291e+01
1.6853155952775861e+01 2.3973377570745317e+01
1.6265730917314702e+01 2.4698468239284040e+01
ITEM: ATOMS x y z vx vy vz
18.0348 19.3615 17.2988 -0.1973 -0.360268 -1.448
20.0305 19.3371 19.0613 0.0106317 -0.194846 0.0362202
17.1831 21.623 18.9309 0.414626 1.84042 -1.83113
19.7002 23.7229 19.8262 1.58613 -1.30594 0.968445
19.5723 21.8379 18.0165 -0.661372 -0.411059 -0.383955
17.385 23.4866 21.0236 -0.117368 1.66233 0.860282
18.5458 17.0518 18.5185 -0.999854 -0.805185 0.556786
17.4473 19.1599 20.0199 0.0795519 -1.44758 0.189637
22.9761 18.7625 20.4167 -0.560709 0.409075 -0.829598
20.5085 17.3516 16.857 -0.501031 -1.20236 -0.68814
21.1336 16.8305 19.4658 -0.000144856 -0.0212115 1.02922
21.7508 23.816 18.3719 -0.639445 0.524896 0.787346
22.378 21.7472 17.0857 -0.905365 0.469134 0.136145
21.7867 21.4203 19.7569 -0.562763 0.0481523 0.490194
22.4335 18.9408 17.7961 0.210664 -0.300735 -0.770256
24.1017 22.9442 19.1625 -1.12662 0.0229855 -1.15796
24.2101 20.4425 18.7647 -0.098596 0.760993 -0.159692
20.4377 19.9485 16.4496 2.06653 -1.24844 -0.139605
17.571 19.3572 22.625 2.0492 0.264195 -0.0791005
19.589 20.7168 23.8581 0.925981 -0.259521 -0.161246
15.9327 21.1269 21.2089 -1.61906 1.44039 -0.290053
19.6023 17.8204 23.7558 -0.342068 -0.528202 1.51792
17.2287 21.9776 23.2994 -0.24245 0.857186 0.419788
18.9224 21.2391 20.9183 1.03646 0.94786 -0.100478
19.0847 17.4437 21.2126 1.58664 -0.268865 -0.401397
21.672 17.1787 22.4558 -1.28012 0.397742 -0.908416
19.6842 23.2594 22.604 -2.71197 0.0898556 1.332
20.8017 19.596 21.7315 1.12316 -1.04967 -0.961424
24.0782 21.4204 21.2724 0.0928134 -0.0400095 1.22294
21.7159 19.3568 24.3396 1.3104 0.269428 -0.326889
21.905 21.8071 23.0285 -1.65872 -0.302844 -1.31145
22.0366 23.6536 21.2115 1.03304 0.135185 1.00389
23.5952 19.2967 22.691 0.69915 -0.393101 1.39797
ITEM: TIMESTEP
4000
ITEM: NUMBER OF ATOMS
33
ITEM: BOX BOUNDS ss ss ss
1.6138799131162820e+01 2.4253268452610829e+01
1.6918808395634784e+01 2.3935107897630424e+01
1.6048477615427821e+01 2.4486085083841203e+01
ITEM: ATOMS x y z vx vy vz
18.0247 19.5399 17.1894 0.657808 -0.180778 -0.862763
19.796 19.4048 19.0344 -0.431441 -0.604025 -0.197196
17.297 21.5614 18.8822 0.224886 -0.487262 1.24417
19.6916 23.4855 19.9081 -1.30423 0.757868 1.56518
19.6341 21.834 17.7582 -0.237438 -1.71924 -0.54791
18.4341 17.0795 18.6632 -1.52927 -0.618875 0.281636
17.1492 19.0932 19.8364 1.75463 0.583766 -0.388761
20.4259 17.5605 16.979 0.118069 -0.463624 0.182918
21.246 16.8142 19.4753 0.317045 0.756039 0.451038
21.5625 23.718 18.2642 0.853621 1.75916 -1.60477
22.5517 21.5771 17.112 -0.021693 -0.0607923 -0.411074
21.6099 21.2758 19.785 0.218565 0.305881 0.177856
22.3909 19.1026 17.8577 -0.823966 0.0330765 0.822766
23.809 22.9799 19.1165 -1.71865 -0.02858 1.00406
24.4064 20.4969 18.8811 0.669636 -0.48074 -1.19013
20.592 20.0404 16.2181 -0.749833 -0.0343981 0.527974
17.1291 23.3002 21.0372 -0.688149 -1.71959 -1.38264
17.5761 19.5794 22.6113 -1.45887 -1.18369 -0.376851
19.6289 20.7876 24.2868 -0.191107 -0.0514968 -0.331034
16.0298 21.1084 21.1677 -1.11986 0.183227 -0.0770672
19.6687 18.1711 23.7342 0.615871 -1.23544 -0.708369
17.4745 22.1426 23.3855 -0.0952688 1.22317 -1.32871
18.9365 21.0414 20.9877 2.29335 0.68982 -0.448025
19.089 17.5805 21.0612 -0.516487 1.36342 0.73989
19.7725 23.1579 22.5163 0.388137 0.943965 1.24234
23.1603 18.7332 20.2578 0.464623 0.793405 0.154631
21.8044 17.1405 22.1292 -0.357947 0.0801482 -0.664776
21.0031 19.522 21.9048 0.694716 0.2799 -0.702081
23.9832 21.3961 21.3354 1.37381 -0.577297 -0.42763
21.6884 19.3855 24.5779 0.490811 0.555552 0.868118
21.939 21.6676 23.0734 1.48645 0.383017 2.27957
22.0531 23.5752 21.1964 0.248412 0.160901 0.965743
23.4775 19.1819 22.8113 -1.62622 -1.40649 -0.858103
ITEM: TIMESTEP
5000
ITEM: NUMBER OF ATOMS
33
ITEM: BOX BOUNDS ss ss ss
1.6138799131162820e+01 2.4253268452610829e+01
1.6918808395634784e+01 2.3935107897630424e+01
1.6048477615427821e+01 2.4486085083841203e+01
ITEM: ATOMS x y z vx vy vz
18.1687 19.4551 17.1869 1.06487 0.583156 0.142123
20.0181 19.38 19.0634 -1.14985 -1.56719 0.0810434
17.5257 21.6259 18.8947 -0.893079 -0.826208 0.935928
19.5848 23.5959 20.0151 0.923559 0.2562 0.00954486
19.8336 21.7585 17.6705 -1.39332 0.18217 -2.96276
18.2912 17.1723 18.6318 -0.811379 1.90989 -1.17554
17.1819 19.0183 19.8646 0.885333 0.811803 0.381729
20.3304 17.5567 16.807 -0.140859 -0.488169 1.45021
21.0253 16.9881 19.4015 0.00626361 -1.9322 0.479694
21.5269 23.7478 18.1708 0.114036 -2.06323 0.43225
22.5006 21.4558 17.0668 0.703756 0.996868 1.56758
21.6791 21.5049 19.7703 0.601862 -0.738385 0.780788
22.5075 18.7894 17.7207 0.960008 -0.00192185 0.189747
23.8304 23.0647 19.0288 -1.72551 2.45019 -0.886526
24.3053 20.4929 18.7866 -0.001916 0.791005 -1.12042
20.6328 19.8824 16.0692 0.768419 -1.24151 -1.17021
17.2364 23.3301 21.1433 -0.631803 -0.373511 1.38826
17.5789 19.3838 22.6942 0.517772 0.315491 0.132842
19.511 20.6697 24.0011 -0.875761 0.475429 0.837462
15.9962 21.0266 21.2073 0.0382522 0.207973 0.133259
19.7015 17.9206 23.8133 -0.98805 -0.519046 -0.960229
17.3799 21.9303 23.3479 0.703673 0.776582 -0.795847
18.7766 21.0187 21.0913 -2.15786 -1.06658 -0.911786
19.1091 17.7265 21.1877 0.492857 1.79604 0.0302755
19.9865 23.0315 22.5075 1.47493 0.0652346 0.525996
22.9371 18.8301 20.3434 0.523459 -0.624199 -1.1269
21.579 17.2912 22.1502 0.243605 -2.26818 -0.218888
20.9897 19.9003 21.9882 0.40553 0.0151638 -0.280316
23.9145 21.6404 21.3812 0.893906 -0.271862 0.810323
21.5277 19.338 24.6439 1.35563 1.48589 0.282458
22.2659 21.6732 23.3223 -1.61692 -0.0231912 -0.559069
22.1359 23.6443 21.19 0.597359 0.686625 1.5543
23.4667 19.1911 22.8736 -0.888779 0.199696 0.0226879
ITEM: TIMESTEP
6000
ITEM: NUMBER OF ATOMS
33
ITEM: BOX BOUNDS ss ss ss
1.6138799131162820e+01 2.4253268452610829e+01
1.6918808395634784e+01 2.3935107897630424e+01
1.6048477615427821e+01 2.4486085083841203e+01
ITEM: ATOMS x y z vx vy vz
17.954 19.3474 17.2632 1.24131 -0.235041 1.80223
19.7624 19.4155 19.0081 -1.24707 0.387645 -1.03854
17.5874 21.511 18.8879 -1.7093 -0.636306 0.703637
19.7254 23.2031 19.9889 0.255176 -0.153973 -0.312551
19.7867 22.2382 17.6564 1.58386 1.49795 -0.629277
18.3109 16.9169 18.685 -0.608129 1.84664 -2.58227
17.0471 18.9203 19.8226 0.680771 -0.153268 0.360198
20.0597 17.6912 17.0203 -0.0269695 -1.1537 0.0790276
21.3729 17.2679 19.5486 1.43042 -0.214238 1.1235
21.6242 24.1143 18.267 -0.272192 -0.1081 -0.285104
22.5409 21.7499 17.0334 0.687593 0.730533 -0.0991903
21.7532 21.2699 19.5651 -0.00420448 -0.329225 1.16832
22.3488 19.0313 17.8743 -0.721779 -0.609748 -0.187123
23.8255 22.9549 19.1323 -0.661367 0.472868 0.681068
24.3426 20.4727 18.7658 0.727643 0.659806 -0.757372
20.5066 20.1429 16.3187 0.417368 -2.1166 -0.589546
17.4004 23.3133 20.801 1.57857 -1.46216 -0.287389
17.4787 19.2654 22.5815 -0.292723 -0.451025 1.01988
19.5329 20.7553 24.0196 0.601726 0.449423 -0.0567601
16.009 20.9819 21.1942 0.924381 0.698218 0.383541
19.557 18.1162 23.6879 0.683376 -0.69155 -0.980426
17.3019 22.141 23.1945 -0.886311 0.464177 -0.183409
18.8528 21.043 21.2901 -0.187738 -1.55117 -0.272138
19.094 17.5898 21.2491 -1.03744 1.38168 -0.313209
19.6154 23.1754 22.6157 -0.140108 0.154874 1.28789
23.3038 18.6861 20.4208 -1.29004 0.305948 -0.955868
21.9035 17.2166 22.4644 -0.606584 -1.32383 0.451391
21.0239 19.4583 21.6795 -2.9018 0.30239 0.499264
23.8981 21.2974 21.2338 -1.02844 0.65881 0.51519
21.5952 19.3904 24.5799 2.01723 0.104896 0.0808848
22.0446 21.6076 22.9675 -0.379196 0.275733 -1.16579
22.2238 23.3991 21.2011 0.835624 0.185065 -0.375789
23.6515 19.3506 23.0168 0.336358 0.613273 0.915727
ITEM: TIMESTEP
7000
ITEM: NUMBER OF ATOMS
33
ITEM: BOX BOUNDS ss ss ss
1.6138799131162820e+01 2.4253268452610829e+01
1.6918808395634784e+01 2.3935107897630424e+01
1.6048477615427821e+01 2.4486085083841203e+01
ITEM: ATOMS x y z vx vy vz
18.1287 19.5185 17.1201 1.39604 0.454498 0.201783
19.7872 19.4074 19.0524 -1.64829 1.72183 0.250216
17.3814 21.4675 18.791 0.565416 -1.47045 -0.817047
19.743 23.7792 20.0357 -0.787874 2.14036 0.193508
19.707 21.9516 17.7781 0.277589 -0.412371 -1.41159
18.3889 17.2145 18.5016 0.705814 -1.12906 -0.0943199
17.1786 18.9214 20.0009 0.0674522 0.0729391 1.86572
20.2918 17.5473 16.9786 1.45299 -1.31798 0.302676
21.0883 17.1973 19.5755 0.207291 0.619279 -0.378217
21.5569 23.785 18.1812 0.55853 0.256855 0.761267
22.5969 21.5577 17.0534 -0.375326 -0.79211 -0.249943
21.6347 21.366 19.5511 1.37625 0.158974 0.427089
22.2913 19.0061 17.9575 -1.70162 1.67349 -0.6917
23.7558 23.0177 19.0533 2.34542 -1.00392 1.23368
24.3625 20.5695 18.7685 -1.1114 0.736257 -1.98165
20.5231 19.973 16.2852 -1.69434 0.464645 0.109698
17.4513 23.3712 20.9099 -0.235115 -0.350919 0.631844
17.5629 19.2844 22.6531 0.463333 -1.50509 -0.0729182
19.4114 20.5861 24.0344 -0.300239 0.487479 0.256323
15.8744 21.1478 21.2476 -0.756251 -0.974608 1.58007
19.589 17.947 23.8438 0.586429 0.466135 -0.116507
17.3839 21.9221 23.2272 -0.25953 1.58121 -1.30186
18.8316 21.1929 21.0469 1.23341 -0.0410539 -1.57121
19.1293 17.5586 21.2305 0.844431 -0.440833 -0.792447
19.7402 23.1639 22.6606 0.277695 0.496687 -0.744522
23.3028 18.6598 20.4567 -0.919668 -1.42297 -0.931303
22.0196 17.1849 22.2622 -0.183628 0.182395 -0.211231
21.0699 19.6735 21.7499 -1.43749 0.306639 0.0796143
23.8387 21.2444 21.2605 -0.52816 0.501613 -0.00356677
21.6721 19.2721 24.5629 0.941341 0.834536 -0.0620903
22.0277 21.7017 23.1643 -1.20422 -0.566158 1.66202
22.1649 23.48 21.1355 1.04544 -0.87913 0.231205
23.5492 19.3652 22.9048 -1.20171 -0.849161 1.64541
ITEM: TIMESTEP
8000
ITEM: NUMBER OF ATOMS
33
ITEM: BOX BOUNDS ss ss ss
1.6138799131162820e+01 2.4253268452610829e+01
1.6918808395634784e+01 2.3935107897630424e+01
1.6048477615427821e+01 2.4486085083841203e+01
ITEM: ATOMS x y z vx vy vz
18.1053 19.5601 17.3908 0.518348 1.84908 -0.634818
20.1668 19.316 19.0254 0.259412 -0.194203 -1.52049
16.7941 21.7328 18.8118 -2.18062 0.261317 1.71044
19.7203 23.7465 20.1135 -1.00676 -1.23284 -1.35103
19.4716 21.9751 18.1367 -0.62423 -0.587336 0.022972
18.4763 17.092 18.6339 0.748702 -0.753287 0.345128
17.2046 19.0539 19.6944 -0.608336 0.538854 1.45384
20.3201 17.5346 17.0375 -0.146523 -1.37989 -0.916263
21.0785 16.8465 19.6546 0.693335 0.346174 1.17271
21.5918 23.8739 18.3599 -0.818849 0.0699006 1.3983
22.4072 21.5476 17.4079 -0.238048 -1.16866 0.583884
21.6825 21.4182 20.08 0.101817 -0.18018 0.346585
22.5179 18.5318 17.6678 -0.707594 -0.0706579 1.28455
23.8699 23.0834 18.9581 0.890345 0.782752 0.363671
24.3053 20.4034 18.9099 1.06067 0.637638 -0.998481
20.5989 20.1421 16.3891 0.428679 0.695067 -0.822959
17.3505 23.3917 20.7821 0.771267 -0.702472 -0.69711
17.7375 19.3292 22.4383 -1.03432 0.842665 -0.564265
19.4346 20.5677 24.0517 0.976562 -0.409052 1.47137
16.076 21.0716 21.2351 1.60198 -0.37111 -0.0130005
19.6428 17.7496 23.7218 -0.48774 -1.12345 -0.749375
17.5087 22.0318 23.0539 0.158905 -0.584001 -0.0380741
18.8507 21.113 20.6785 1.19234 0.431977 -1.57272
19.0544 17.5008 21.0439 -0.71113 0.272239 -1.09325
19.9399 22.9949 22.5161 0.97779 0.892648 1.07078
22.6611 18.7148 20.2539 -0.797116 -1.15999 0.452969
21.848 17.3048 22.4157 -0.519398 1.6666 0.500496
20.8067 19.6039 21.9131 -0.255207 0.986355 -0.277529
23.9732 21.7119 21.2147 1.12733 0.918782 0.44597
21.7287 19.2205 24.5914 0.908595 -0.683625 -0.787731
22.0856 21.6648 23.1398 -0.332158 -1.26689 0.222696
22.3104 23.7925 21.0043 0.222665 -1.3727 -1.39038
23.7152 19.4134 22.7093 -2.17071 2.0483 0.581115
ITEM: TIMESTEP
9000
ITEM: NUMBER OF ATOMS
33
ITEM: BOX BOUNDS ss ss ss
1.6138799131162820e+01 2.4253268452610829e+01
1.6918808395634784e+01 2.3935107897630424e+01
1.6048477615427821e+01 2.4486085083841203e+01
ITEM: ATOMS x y z vx vy vz
18.1338 19.7709 17.2228 -1.7319 -1.39839 1.93502
19.9816 19.365 19.1241 -0.621088 1.1833 0.989055
17.2343 21.6501 18.7838 0.668685 -1.11733 0.623777
19.5969 23.628 19.9909 -0.759106 -0.739091 0.853249
19.6621 22.0969 17.6835 0.661349 0.537131 -0.20402
18.4102 17.1564 18.8126 -0.0204322 1.23883 -1.29237
17.258 19.2338 19.7606 -1.08273 1.17401 -0.52429
20.2362 17.6259 17.0052 -1.62016 -1.25886 -0.181964
21.1521 17.043 19.4394 0.850316 0.767188 0.218203
21.5935 23.8397 18.328 -0.365239 -0.518148 -0.811993
22.428 21.8247 16.9792 -0.0747129 -0.203563 -0.0184704
21.6501 21.4679 19.5715 0.679859 -0.720899 -1.24332
22.318 18.8301 17.8884 1.03121 0.890862 1.14643
23.9558 22.8728 19.1552 2.07874 -0.456062 -1.04148
24.0855 20.3785 18.6695 0.638225 0.258205 1.01574
20.5027 20.0884 16.1723 -0.522351 0.42933 -1.10614
17.297 23.2054 20.9065 0.57722 -0.595083 2.0675
17.6391 19.3061 22.596 1.00935 -0.651119 0.119426
19.4617 20.7568 23.8464 0.0264291 0.813828 -0.261201
16.0321 21.0415 21.21 -1.8441 -1.36204 -1.08884
19.8246 17.9953 23.8965 -1.25703 -0.417564 -0.690987
17.2137 21.8261 23.1989 -1.3685 0.303225 -0.719915
18.9017 21.0218 20.9182 0.442863 0.700436 0.0549229
19.1987 17.4278 21.3367 0.142234 0.953879 -0.309151
19.824 22.97 22.567 -0.54772 1.91587 -0.0619554
23.193 18.636 20.4525 0.354293 0.923798 1.57454
21.6327 17.291 22.3045 -0.251653 1.74303 -1.22131
21.1936 19.7732 21.715 1.7377 -1.68253 0.723961
23.7834 21.152 21.2617 1.14075 0.584545 1.03784
21.7062 19.4115 24.5333 -0.465196 -0.300181 0.0767392
22.1424 21.7363 23.3714 1.03375 -1.54887 -0.746607
22.1221 23.4358 21.2062 -0.819593 -1.61476 -0.573895
23.6702 19.1763 23.1272 0.278527 0.167029 -0.338484
ITEM: TIMESTEP
10000
ITEM: NUMBER OF ATOMS
33
ITEM: BOX BOUNDS ss ss ss
1.6138799131162820e+01 2.4253268452610829e+01
1.6918808395634784e+01 2.3935107897630424e+01
1.6048477615427821e+01 2.4486085083841203e+01
ITEM: ATOMS x y z vx vy vz
18.1061 19.6788 16.9733 -1.60975 -0.853102 1.52376
19.814 19.418 19.1042 0.734341 -3.23596 0.0129529
17.5113 21.6553 18.8146 -0.640949 0.44476 0.161806
19.5763 23.4564 19.8163 -1.18883 0.35565 1.09884
19.8305 21.9339 17.5712 0.652341 -0.327122 0.458688
18.3244 17.2666 18.7809 -0.0785699 0.193724 0.49097
17.0497 19.2258 19.8043 0.0934578 0.689678 -0.708464
20.1484 17.7291 17.0797 -0.643185 0.783438 -1.09952
21.007 17.2627 19.7691 1.73216 1.64755 -1.00034
21.508 23.7924 18.1449 0.674422 -0.259096 0.119332
22.6141 21.7488 17.0471 0.387131 -0.959423 -0.989101
21.6279 21.3859 19.6177 0.0756106 0.180103 0.982873
22.3715 19.0739 17.8739 -0.343156 -1.17037 -0.697658
23.7401 23.1766 19.068 0.961498 -1.70917 0.545447
24.386 20.554 18.6923 1.78363 0.0362648 1.67477
20.7539 20.0494 16.1029 -1.35519 1.79469 -0.960928
17.2618 23.262 21.0269 -1.77147 0.273456 -0.559573
17.3881 19.1678 22.882 -0.578365 0.185514 -0.959641
19.5979 20.5991 23.9384 0.7856 0.456314 1.08902
16.0525 20.9951 21.1954 -0.398536 -1.67693 -0.240354
19.6339 18.1121 23.8311 0.27067 2.12883 0.394869
17.4031 21.836 23.21 1.75607 0.681257 1.17617
18.7758 20.8111 21.1063 0.385918 -0.589144 -3.14905
18.9604 17.8793 21.4217 -0.597063 -0.346691 -0.430889
19.8916 22.8273 22.4241 1.42615 -0.798083 0.243218
23.313 18.5864 20.3336 0.887317 0.429381 1.23838
21.7011 17.3095 22.3787 -0.891594 0.493912 -0.0416692
21.2343 19.6378 21.7129 -0.970731 0.340801 -1.47646
23.911 21.0903 21.2265 -0.959524 -0.682452 -0.282761
21.6921 19.1309 24.6701 0.498256 0.333986 -0.730503
22.1709 21.6049 23.2995 0.544515 0.738021 0.547623
22.1519 23.4625 21.0991 -1.7261 -0.701033 1.77353
23.5263 19.3154 23.0183 0.10392 1.12124 -0.205328
ITEM: TIMESTEP
11000
ITEM: NUMBER OF ATOMS
33
ITEM: BOX BOUNDS ss ss ss
1.6138799131162820e+01 2.4253268452610829e+01
1.6918808395634784e+01 2.3935107897630424e+01
1.6048477615427821e+01 2.4486085083841203e+01
ITEM: ATOMS x y z vx vy vz
18.2308 19.4867 17.1741 0.949936 -0.105285 -0.91983
20.0485 19.4237 19.1178 -1.45861 -2.3255 1.69292
17.0264 21.6833 18.6773 -2.08053 -0.517357 -0.51794
19.7432 23.5916 19.9256 -1.19556 0.978836 -1.02508
19.5791 21.878 17.8404 -2.25259 -0.39366 -0.0330446
18.5489 16.9858 18.7466 0.979001 1.62289 0.252483
17.3328 19.0471 19.7674 1.3542 0.725575 0.313515
20.106 17.5968 16.9554 0.257514 0.155398 0.415412
21.12 16.9585 19.477 -0.605765 1.68625 -0.426266
21.3848 23.8771 17.9703 1.28576 0.322444 -0.131911
22.3229 21.7818 17.026 -0.725659 -1.20004 0.128683
21.5792 21.5448 19.8256 -0.685772 -1.25423 0.99925
22.4084 18.8422 17.743 1.13357 0.487747 1.34663
23.5633 23.1777 19.2385 0.455878 0.4253 -0.689376
23.9918 20.5592 18.8832 1.7118 0.547746 0.85145
20.538 19.9856 16.2466 0.24361 0.178307 1.09988
17.421 23.4389 20.9267 -1.34653 1.24055 1.05089
17.8269 19.4954 22.5484 0.100504 1.44965 0.625804
19.6345 20.8123 24.2021 0.858915 0.0355101 -1.02389
16.0917 20.9928 20.93 0.235042 -0.325627 -1.36964
19.5672 18.0921 23.8195 -0.63281 -0.502317 1.17269
17.5785 22.0878 23.0933 1.15103 0.854528 0.234797
18.8939 21.1749 20.7571 -1.68148 -0.289891 0.177232
19.2758 17.5708 21.2582 1.3801 -0.0777073 -1.11268
20.0397 22.7994 22.4848 0.0645698 -0.634484 -1.34237
22.9201 18.8146 20.4277 -0.72189 -0.696841 2.68348
21.7112 17.0213 22.0724 -0.911727 0.243837 -2.11527
20.8812 19.7988 21.9956 -0.413861 -0.0851004 -0.469666
23.8258 21.1295 21.5169 1.47302 1.15927 -0.773027
21.7775 19.273 24.6182 0.634334 -0.887576 -0.348891
22.1871 21.6573 23.498 -0.316093 -0.751243 1.12929
22.4762 23.5361 21.3868 -0.0644783 -1.36942 -0.376144
23.4024 18.9203 22.8844 0.824575 -0.69757 -1.49939
ITEM: TIMESTEP
12000
ITEM: NUMBER OF ATOMS
33
ITEM: BOX BOUNDS ss ss ss
1.6138799131162820e+01 2.4253268452610829e+01
1.6918808395634784e+01 2.3935107897630424e+01
1.6048477615427821e+01 2.4486085083841203e+01
ITEM: ATOMS x y z vx vy vz
17.9649 19.2616 17.102 1.48011 -0.436238 -2.28658
20.0775 19.4229 18.9072 -1.65593 0.369484 -0.244805
17.0776 21.4127 18.6047 0.723759 -1.5423 0.168543
19.6359 23.8356 20.3188 -0.366807 -1.14256 1.30284
19.6107 21.924 18.2204 1.57583 -0.351333 1.26786
18.5254 16.9937 18.6287 -0.437812 0.168538 -0.544324
17.1458 19.0178 19.7856 0.756915 -1.27381 1.14738
20.1019 17.5757 16.7574 -0.136164 -0.453614 -0.084856
21.1203 16.9763 19.3634 -0.522331 1.57787 0.480189
21.5785 23.8983 18.6464 0.624502 -0.806273 -1.07181
22.1736 21.5341 17.4166 0.68652 0.697131 -1.01497
21.6469 21.509 20.1257 -0.527841 -0.206786 -0.929312
22.251 18.7863 17.6 0.54625 0.681805 -0.00889975
23.8861 23.0394 19.1906 0.164492 -3.10653 0.913936
24.2433 20.5544 18.6674 -1.02925 0.0666926 -0.662696
20.4817 20.0159 16.3012 -2.08905 1.4453 2.11772
17.1766 23.2325 20.46 -0.724749 -0.957043 0.824853
17.6133 19.3163 22.4504 -0.547537 1.63173 0.53038
19.4012 20.8034 24.1811 -0.201646 1.40318 0.876928
15.9742 21.1221 21.0006 1.33105 0.234923 -1.44826
19.6992 18.2858 23.8015 0.0216814 -1.29797 -0.381192
17.4984 22.0408 23.0092 2.21291 1.00672 0.551739
18.821 21.1547 20.6509 0.198333 1.80089 -0.190184
19.2984 17.6697 21.144 0.770229 -0.636581 -1.45931
20.1163 22.6622 22.6079 -0.0108615 0.145991 -0.234475
22.7287 18.8328 20.2466 -0.316015 1.34344 0.389904
21.7757 17.2617 22.4343 1.20241 0.406952 0.962787
20.9179 19.7364 21.9764 1.21163 0.41816 -0.724565
24.1303 21.0977 21.2211 -0.386303 -0.734964 0.485728
21.7537 19.5799 24.6441 0.399347 0.0548991 -1.10745
22.4056 21.7116 23.1809 -0.979584 1.01198 0.0123834
22.625 23.6204 21.3848 -2.98173 -0.219929 -0.0072597
23.5784 19.1493 23.0049 -0.99237 -1.29976 0.367774
ITEM: TIMESTEP
13000
ITEM: NUMBER OF ATOMS
33
ITEM: BOX BOUNDS ss ss ss
1.6263652608421136e+01 2.4298728425961809e+01
1.6752124559954492e+01 2.4031418441631573e+01
1.6540677250777801e+01 2.4504018117633123e+01
ITEM: ATOMS x y z vx vy vz
18.0036 18.5128 17.2901 0.673994 0.528984 0.728656
19.7783 19.1183 19.3845 0.744057 0.504247 -1.5398
17.6127 21.0448 18.2599 -0.0236968 0.104134 0.187439
19.7737 24.021 20.7998 0.00419543 -1.27068 -1.20856
19.4018 22.9683 18.2447 1.53467 0.120485 0.187342
18.5316 16.4822 18.7963 1.95112 -0.410861 -0.807034
17.1084 18.6858 19.6808 -1.17396 -0.129986 0.266884
20.2555 17.2579 17.153 -0.00128726 -0.468743 -0.030344
19.9236 20.3102 16.8242 2.16459 -0.108386 1.16449
17.4232 23.5314 19.8409 -0.866456 -1.58727 1.6012
21.0844 16.8165 19.6817 -1.50977 -0.227237 -0.14759
21.6876 24.287 19.0191 -0.214336 -0.393851 4.05214
21.8883 21.9627 17.2948 0.499492 -1.15659 1.87977
21.5757 21.6113 19.995 1.47232 -0.229251 0.404965
21.9986 18.9958 17.8283 -1.5972 0.433676 0.64123
23.849 23.1273 19.2575 -0.426975 0.925107 -1.2713
23.9038 20.6486 18.356 -1.66789 0.316323 -0.0193141
22.9144 18.8421 20.259 -1.00218 0.27691 -1.43417
17.8984 19.6504 22.0641 -0.827304 0.725707 -2.19642
19.1935 20.6872 24.0826 -0.393354 -0.294676 -0.084827
16.2151 21.176 20.7237 -0.248853 -0.660148 1.80132
19.5555 17.9532 23.8141 0.49154 0.390451 -0.278686
17.7382 22.7159 22.3126 0.187028 2.00494 0.108214
18.9042 21.3724 20.4989 -0.330734 -0.782026 -2.42944
19.041 17.3179 21.4287 0.411462 0.440824 1.06782
20.4184 22.3883 22.6516 -0.0879406 -1.23766 -1.05433
21.823 17.2341 22.3471 -1.67503 0.0671974 1.36178
20.8499 19.702 21.969 -0.800335 -0.125737 -0.47171
24.1579 21.0854 21.0757 1.11327 0.585249 -0.00322208
21.5285 19.3494 24.4148 0.224743 0.986987 -0.118718
22.8617 21.5313 23.3743 0.730976 2.56306 -1.36663
22.4828 23.5707 21.5468 0.668354 -1.81239 0.00894166
23.6527 19.0766 22.7655 -0.0245137 -0.0787905 -1.00009
ITEM: TIMESTEP
14000
ITEM: NUMBER OF ATOMS
33
ITEM: BOX BOUNDS ss ss ss
1.6263652608421136e+01 2.4298728425961809e+01
1.6752124559954492e+01 2.4031418441631573e+01
1.6540677250777801e+01 2.4504018117633123e+01
ITEM: ATOMS x y z vx vy vz
17.9898 18.5958 17.1763 -1.17735 -0.7535 0.298672
19.867 19.1839 19.2331 -1.0625 1.30064 -1.17171
17.366 20.9075 18.2267 1.42577 -0.796094 -0.940016
19.6039 24.1388 20.5753 0.378128 -0.299049 0.107538
19.5902 22.817 18.0456 -1.11675 -0.0108057 0.348956
18.5201 16.7758 18.9554 -1.94417 0.625765 0.410941
17.2316 18.8496 19.9869 1.57217 1.26627 0.624916
20.056 17.2789 17.0116 0.125502 0.321588 -0.222823
19.9228 20.5125 16.8956 0.79419 1.75388 0.0369714
17.3795 23.3827 19.5635 1.6036 0.227543 -2.42962
21.3269 16.8875 19.3577 -0.395995 0.468812 0.472834
21.5787 24.0808 18.6331 -0.214641 -0.745794 -2.04407
22.2738 22.019 17.1043 0.475403 -0.611616 1.30846
21.4715 21.3927 19.5159 0.811089 -0.288635 0.78668
22.1406 19.061 17.7288 -1.25554 0.0154277 0.718607
23.956 23.052 19.3332 -1.02996 -0.921997 0.367392
23.8622 20.567 18.7693 -0.330053 0.883996 -0.0927034
22.9923 18.7284 20.2152 -1.07783 0.458304 0.492731
18.1003 19.6718 22.4854 1.19104 1.07292 -0.29172
19.7978 20.6804 24.2972 0.412445 -1.5975 0.911855
16.3832 21.2411 20.841 0.319054 -1.43552 -0.990779
19.6958 17.99 23.8431 -1.00636 0.0209461 0.99396
17.442 22.6997 22.4575 -0.0653988 0.377561 0.793674
18.8946 21.4898 20.6292 2.17497 -0.978627 1.02088
19.3544 17.5353 21.1912 1.34557 -1.82581 0.107867
20.1673 22.6493 22.7153 -0.769722 -0.808758 1.13908
21.7798 17.0322 22.2046 -0.0670934 1.47037 -1.28107
21.0383 19.7822 21.9616 -0.259326 0.281824 0.235338
23.5661 21.1908 21.4277 -2.33617 1.66951 0.924891
21.81 18.9372 24.7269 0.298327 -1.94257 -0.936043
22.3494 21.4922 23.7508 0.85354 -0.669716 -0.920181
22.1628 23.5106 21.2807 -0.357658 0.234766 -1.73313
23.3644 18.9014 22.8955 0.685724 1.23589 0.951623
ITEM: TIMESTEP
15000
ITEM: NUMBER OF ATOMS
33
ITEM: BOX BOUNDS ss ss ss
1.6123473510749925e+01 2.3989321630828531e+01
1.6629022722419613e+01 2.4182934974032317e+01
1.6968673043386207e+01 2.4633464143220980e+01
ITEM: ATOMS x y z vx vy vz
17.9904 18.6213 17.2179 -1.4382 0.964594 0.244281
18.5705 16.4501 18.8571 -0.856618 -1.8631 -0.532209
17.4178 18.6793 19.987 0.24594 -0.337567 0.129082
19.8226 19.0632 19.3088 -1.14005 -1.80858 0.0470789
20.5026 17.3555 17.3032 -1.86617 -0.716401 1.69259
20.8323 16.5653 19.8107 -0.271464 0.229055 1.08877
22.1548 19.1928 17.3662 1.17243 1.76497 -1.27566
22.5981 18.6972 20.0238 -1.87922 0.463737 1.53505
17.6134 20.9899 18.0726 1.15096 1.10367 -1.08383
19.4426 24.0826 20.5885 -1.1284 -0.262563 0.486055
19.4587 23.1026 18.0649 1.68949 -0.25625 0.253845
19.9812 20.3645 16.9551 1.41663 0.109077 0.147574
16.9955 23.3092 19.5437 0.328119 0.244912 -1.19112
16.2478 21.0036 20.4646 0.90972 -0.211826 1.32716
18.9956 21.3931 20.3232 0.678094 0.1818 -1.57959
21.768 24.2203 19.0804 1.46489 0.178709 -0.187423
22.1339 22.3015 17.3464 -0.698607 0.753304 1.51116
21.6418 21.5453 19.8445 0.416307 -1.10482 -0.363503