ITEM: TIMESTEP
0
ITEM: NUMBER OF ATOMS
33
ITEM: BOX BOUNDS ss ss ss
1.5974770802397721e+01 2.4207734704458449e+01
1.6850553583347018e+01 2.3978166857818486e+01
1.6249273863796518e+01 2.4679344608001589e+01
ITEM: ATOMS x y z vx vy vz
17.9268 19.1955 17.2219 0.887259 -0.209663 0.177771
20.0069 19.3344 18.9659 -0.208707 1.56767 -1.65755
16.9865 21.37 18.6112 -1.91179 1.19001 0.548784
19.7086 23.8362 20.2656 1.28007 1.02344 0.0355048
19.5731 22.0934 18.0621 0.0264488 -0.572792 1.13443
18.4899 16.8882 18.673 0.963245 0.254169 -0.617282
17.2553 18.9481 19.8897 -0.633658 -0.175696 0.0924426
22.6498 18.8266 20.3021 2.15663 -0.968268 -0.43693
20.1136 17.5558 16.6998 0.343143 0.0641571 -0.929915
21.1688 16.8546 19.1415 1.60599 0.316776 0.791013
21.6006 23.9741 18.445 -0.0856695 0.341339 -0.298688
22.3223 21.6676 17.2131 -1.72034 -0.83319 0.234032
21.626 21.4792 19.8598 0.528235 -0.167652 -0.664181
22.332 18.8825 17.5272 -1.26924 0.712708 -1.12029
23.9623 23.028 19.1011 -0.0247048 -0.806498 -0.0336214
24.2037 20.4108 18.7314 0.0345293 0.0561919 1.03233
20.2586 20.1924 16.2534 -1.53676 -0.139007 0.526308
17.7799 19.4738 22.5871 -1.23884 1.42987 1.23951
19.4997 20.7038 24.3631 1.29985 0.00417871 -0.170675
17.0802 23.3302 20.5193 2.42735 -0.479979 0.467329
15.9788 20.997 21.1393 -0.735471 2.28069 -2.50391
19.5751 17.9667 23.896 -1.27856 -0.509938 -2.1763
18.8052 21.2171 20.6797 -0.400957 -1.47618 -0.0811613
17.5745 22.1889 22.9705 -2.85941 -1.89681 -0.386515
19.4155 17.6415 21.1528 -1.79731 -1.37316 1.6084
21.7933 17.3263 22.4933 1.47221 0.590607 1.24285
20.2224 22.6982 22.6483 1.11136 0.0923618 0.375375
20.8273 19.8783 22.1235 1.38841 -0.14641 0.854935
23.9942 21.3876 21.2675 1.1634 -0.84894 0.834311
21.7792 19.2167 24.6753 1.52703 0.887004 1.21925
22.4911 21.5897 23.5086 -2.13783 -0.246499 -0.722553
22.3626 23.6607 21.2307 -1.92298 0.385736 -0.797207
23.6711 19.2207 22.8163 1.54706 -0.346227 0.182198
ITEM: TIMESTEP
1000
ITEM: NUMBER OF ATOMS
33
ITEM: BOX BOUNDS ss ss ss
1.5974770802397721e+01 2.4207734704458449e+01
1.6850553583347018e+01 2.3978166857818486e+01
1.6249273863796518e+01 2.4679344608001589e+01
ITEM: ATOMS x y z vx vy vz
17.8988 19.207 17.2801 0.482629 -0.0525975 -0.503288
19.995 19.2166 19.0936 0.523546 -0.52997 0.0869052
17.265 21.2844 18.6226 0.839912 0.711919 0.361307
19.6582 23.8182 20.0125 -0.293074 -0.752437 -0.35028
19.7356 22.0322 18.0684 -0.465531 1.27738 -0.681492
18.5508 17.005 18.7986 2.10409 1.24969 0.230499
17.3461 19.0258 20.0448 0.374736 0.545572 -1.6908
22.8041 18.7584 20.3409 0.290781 -1.48222 0.291416
20.3141 17.5354 17.008 -1.04788 -0.0199542 1.11211
21.1866 16.7528 19.3709 -1.21899 -0.60889 -1.03818
21.6269 24.0573 18.5436 0.036989 0.755137 0.240653
22.358 21.7402 17.178 -0.667464 -0.285003 0.924518
21.8564 21.4782 20.0001 1.54376 0.384072 -1.35712
22.299 19.1543 17.75 -0.314028 -0.500481 -0.353898
23.9694 23.0695 18.9944 0.948101 -1.30416 -0.675041
24.2095 20.5419 18.7465 0.365273 0.720842 0.034174
20.1623 20.1691 16.3085 -0.163378 -0.730179 -0.38353
17.7074 19.494 22.5176 1.79179 0.125966 -0.222479
19.6153 20.7452 24.147 0.621457 -0.865908 0.106874
17.2095 23.3275 20.6958 -2.09312 -0.382898 1.0709
16.091 21.1021 21.183 0.0632666 -1.38882 0.680829
19.5391 18.0415 23.9883 0.235157 0.589384 0.0553067
18.846 21.402 20.851 -1.80664 2.32042 -0.429493
17.5177 22.1787 23.1103 -0.164257 -1.5702 -1.33675
19.1953 17.3017 21.2342 -0.836223 0.105735 1.01787
21.6628 17.1634 22.2447 -0.320039 1.12693 0.731582
19.8081 23.1087 22.5603 0.489106 0.868238 0.805737
20.5354 19.4143 21.8303 -1.27488 0.758196 1.17672
24.1694 21.4859 21.2717 0.899745 0.328849 -1.01634
21.8124 19.0012 24.3014 -0.108664 -0.373396 -1.04366
22.0359 21.5145 22.9648 -0.410979 -0.0571603 -0.809034
22.4054 23.6559 21.3076 -0.646648 -0.809825 1.18919
23.6485 19.252 22.6654 0.221459 -0.154236 1.77479
ITEM: TIMESTEP
2000
ITEM: NUMBER OF ATOMS
33
ITEM: BOX BOUNDS ss ss ss
1.5974770802397721e+01 2.4207734704458449e+01
1.6850553583347018e+01 2.3978166857818486e+01
1.6249273863796518e+01 2.4679344608001589e+01
ITEM: ATOMS x y z vx vy vz
17.9352 19.4794 17.3871 0.240747 -0.817356 -1.00989
20.1721 19.2129 19.0557 -0.00498024 -0.360211 0.316093
17.1534 21.6234 18.8902 0.818427 0.933079 -1.85966
19.5979 23.5443 19.9354 -1.8543 0.710808 0.734319
19.647 21.9339 17.9259 0.943843 1.87774 0.00539363
18.5577 17.0171 18.5399 -1.27358 -0.378591 -1.64955
17.2399 19.02 19.9344 0.0567583 -1.13605 -0.378185
22.8443 18.819 20.2277 -0.716947 0.829709 -1.01738
20.24 17.4127 16.9118 0.0382026 -1.35551 1.02221
21.2273 16.855 19.5063 -0.256103 -0.534703 0.812969
21.6717 23.8581 18.4663 -0.427344 1.21335 0.180624
22.3188 21.5557 17.0311 1.50193 -1.47331 0.0616266
21.6843 21.5483 19.7303 -1.42731 0.859474 -0.0431933
22.4959 18.7716 17.3521 -0.427847 -0.851966 -0.303368
23.9353 23.081 19.3094 0.859287 -0.407396 0.642079
24.2391 20.676 18.6363 1.2721 0.346966 -0.906081
20.2655 19.8398 16.495 -0.0307748 0.519542 -1.62075
17.6208 19.4697 22.6279 0.00243982 0.220258 -0.252881
19.6479 20.8054 24.1555 -1.08392 -0.645552 1.23323
17.3745 23.4046 21.1016 -1.87814 0.635973 0.286202
16.085 20.9898 21.1208 -0.712337 0.413238 -0.200655
19.5616 17.9088 23.6801 -0.717331 1.10692 0.723075
18.8228 21.1326 20.8337 1.84754 -1.18083 0.673381
17.4512 22.0803 23.2361 0.320139 -0.101913 1.34366
19.1819 17.7301 21.1093 0.293982 -0.580968 1.35812
21.6113 17.3105 22.2619 1.51294 1.57764 0.375316
19.9064 22.8707 22.4353 0.361202 0.27352 0.495366
21.054 19.8517 21.93 -0.688156 0.562664 0.658988
23.8537 21.418 21.3672 -0.721975 0.288288 -0.978234
21.7239 19.1327 24.5533 0.554193 -1.17729 0.641561
22.1314 21.697 23.4457 0.877872 -0.976582 -0.106276
22.2096 23.7285 21.19 0.301824 0.0200548 -0.329863
23.5734 19.2568 22.6516 0.41763 -0.411002 -0.90824
ITEM: TIMESTEP
3000
ITEM: NUMBER OF ATOMS
33
ITEM: BOX BOUNDS ss ss ss
1.5974770802397721e+01 2.4207734704458449e+01
1.6850553583347018e+01 2.3978166857818486e+01
1.6249273863796518e+01 2.4679344608001589e+01
ITEM: ATOMS x y z vx vy vz
18.0303 19.4102 17.4958 0.964904 0.222032 -0.849392
20.0633 19.371 19.1066 -0.67706 0.889951 1.19419
17.0468 21.4688 18.8994 -1.372 1.3913 -2.97776
19.714 23.8465 19.9213 2.00041 -1.55454 0.829538
19.5507 21.9804 18.0044 0.15236 0.0378807 0.563853
18.5147 16.9913 18.7046 -0.236354 -1.06038 1.09718
17.244 19.0561 20.0902 0.363125 -1.48328 0.682898
22.8093 18.8541 20.1572 -0.534458 0.508639 -0.338325
20.3865 17.5282 16.937 0.280838 -1.52097 0.324721
21.2512 16.841 19.3155 1.3364 -0.110831 -0.704558
21.711 23.929 18.4436 -0.664698 1.54911 0.665927
22.3801 21.6531 17.2026 -0.529631 0.624867 -0.0458276
21.717 21.5131 19.7403 -1.22002 1.34304 -0.102664
22.5444 18.8753 17.5187 0.0211276 -0.312718 -0.303399
24.074 22.9003 19.1093 -1.16692 -0.110183 -2.09098
24.2436 20.3527 18.7928 -0.428138 -0.0830012 -0.799154
20.3561 19.9826 16.4183 0.808111 -0.160786 0.668192
17.6474 19.2676 22.592 0.804584 -1.10161 0.115623
19.586 20.793 24.0663 -0.343036 -0.284405 0.188059
17.338 23.3486 20.9593 -0.866774 1.61912 0.248844
15.8812 21.181 21.1483 -0.289611 0.958112 -0.947259
19.6808 18.01 23.7363 1.02864 -1.49935 1.18314
18.8358 21.1434 20.8739 -0.500608 1.83346 0.612869
17.3855 21.9124 23.2784 -0.498788 1.76148 0.0573143
19.1802 17.3609 21.0844 0.650152 0.34385 0.210376
21.6286 17.2167 22.1823 -2.04068 -0.363461 -0.680101
19.9035 23.0366 22.4209 -1.2622 0.451035 0.0184533
20.8691 19.8345 21.8856 2.08224 -0.890419 -0.789203
23.8951 21.3879 21.3439 0.270297 -0.39556 2.30668
21.8653 19.3076 24.4279 0.442364 -0.0588807 -0.749501
22.0523 21.7892 23.3368 -0.132287 0.450218 -0.886851
22.1526 23.6888 21.2591 0.190667 -1.60063 -0.00194974
23.4966 19.2032 22.5821 1.36703 -1.39308 1.29906
ITEM: TIMESTEP
4000
ITEM: NUMBER OF ATOMS
33
ITEM: BOX BOUNDS ss ss ss
1.5990056785345027e+01 2.4596956697076461e+01
1.7020284937901707e+01 2.3918821998186012e+01
1.6326460097373477e+01 2.4384671123846818e+01
ITEM: ATOMS x y z vx vy vz
17.9037 19.3769 17.4778 1.17472 0.746363 -0.294234
19.7826 19.4113 19.1317 1.72061 -0.465498 0.202365
17.3497 21.5784 18.9806 0.545402 0.389429 0.723189
19.651 23.5421 19.8383 -0.712219 0.310805 1.11749
19.7223 22.0159 17.7587 0.927046 -0.733611 -2.00664
18.502 16.9144 18.6927 -1.76276 -0.757762 0.100148
17.22 19.0799 19.9891 0.34006 -0.181523 0.511107
20.3208 17.6689 16.9858 0.25044 0.354341 0.340066
21.1888 16.9027 19.5578 0.495849 0.250076 0.271427
21.7353 23.9479 18.3429 0.827918 -0.174225 -1.44459
22.4753 21.683 17.0599 0.331517 -0.0552851 -0.641701
21.5941 21.4173 19.7528 0.777758 0.852046 -0.557785
22.4443 19.1237 17.8652 -1.11218 -0.778183 0.242343
23.9983 23.0972 19.1423 -1.52427 -0.413256 0.717933
24.356 20.4611 18.7753 -2.32284 0.683262 -0.264065
20.4783 20.1079 16.3485 -0.576001 -0.537659 0.351438
17.6549 19.4946 22.6963 -2.05252 0.140673 0.562203
19.5363 20.7639 24.1565 -0.46638 -1.65742 -1.1144
17.285 23.342 21.01 0.0414164 -1.21743 -0.532665
16.0671 21.086 21.3133 1.33187 1.51702 0.220857
19.6472 17.8426 23.6754 0.453005 -0.988982 -0.82839
19.0284 21.1831 21.1268 1.97262 1.415 -0.140465
17.3149 22.0849 23.3826 -0.128679 -0.856644 0.0867856
18.9879 17.3696 21.147 -0.385257 0.298067 0.374719
19.801 23.2468 22.5527 -0.602525 0.983725 1.67273
23.2226 18.8149 20.3539 1.51254 -0.528086 -0.0418752
21.9449 17.0382 22.0951 0.563939 0.474566 -0.0116491
20.7844 19.207 21.7081 -0.546034 -1.87439 -1.06553
23.9631 21.3186 21.0837 -0.255221 -0.0520123 -0.369022
21.6471 19.2392 24.4057 0.610648 1.29285 0.293523
21.7391 21.5875 22.7374 1.14906 1.3186 -0.402985
22.224 23.6678 21.0645 -0.369026 -0.602293 2.02449
23.4645 19.4195 22.8268 -2.21051 0.847416 -0.0968179
ITEM: TIMESTEP
5000
ITEM: NUMBER OF ATOMS
33
ITEM: BOX BOUNDS ss ss ss
1.5990056785345027e+01 2.4596956697076461e+01
1.7020284937901707e+01 2.3918821998186012e+01
1.6326460097373477e+01 2.4384671123846818e+01
ITEM: ATOMS x y z vx vy vz
18.0347 19.561 17.3364 -0.452605 -0.564725 0.724143
20.0515 19.2391 19.2409 -0.741886 -0.196527 0.700561
16.958 21.4984 18.9316 -0.103297 0.133686 -0.809151
19.5956 23.8752 20.0981 0.854127 -0.126072 0.928981
19.61 21.9093 18.2474 -2.42361 1.71109 0.955556
18.3748 17.121 18.5206 0.395657 0.972024 0.307294
17.1918 19.0161 19.8257 0.201062 0.517531 -0.405807
20.2405 17.5772 16.9084 -1.39035 0.0709298 0.163112
21.1107 16.7819 19.3642 1.37144 -2.21879 -0.667809
21.5038 23.7924 18.4398 1.09185 -2.41217 1.71118
22.5212 21.6299 17.1938 -0.908898 1.00714 1.61035
21.8181 21.3985 19.7915 0.050248 0.810251 1.55037
22.5404 18.8126 17.6096 1.23466 -0.0547931 -1.13927
23.9586 23.1606 19.0757 0.237428 1.63436 -0.426201
24.3496 20.4786 18.6101 0.351362 -1.31639 -0.752426
20.4846 20.1237 16.4843 -0.136824 -0.409352 -0.664778
17.7385 19.3918 22.6476 0.254396 0.959097 -1.4733
19.5994 20.6174 24.1178 -1.81883 0.39113 0.372899
17.0867 23.2432 20.8584 0.787123 -1.66667 -1.38076
15.947 20.9153 21.2228 -0.795861 -1.26895 0.604148
19.4355 17.9024 23.9308 -0.768447 -1.17357 0.26539
18.7289 21.0929 20.805 0.353273 -0.579327 -0.302567
17.5443 22.0518 23.0808 0.00100297 1.36814 -1.50719
19.1661 17.6918 21.2081 1.25869 0.422758 0.747343
20.0268 22.7866 22.4154 0.439149 0.899053 -0.237589
22.9203 18.7103 20.2307 -0.068208 -0.265368 -1.39019
21.5616 17.337 22.3188 -0.115042 -0.0296757 0.222478
21.0428 19.888 21.9716 -0.500027 -0.0803683 0.562845
24.0601 21.3582 21.1101 -1.77914 0.983327 -2.2512
21.5821 19.0748 24.5119 1.1222 1.3764 -0.284073
22.388 21.9029 23.1089 -0.101718 -0.559431 0.31701
22.3615 23.6269 21.0082 1.76109 0.509065 0.722087
23.5014 19.4681 22.81 0.339998 -0.843802 1.22655
ITEM: TIMESTEP
6000
ITEM: NUMBER OF ATOMS
33
ITEM: BOX BOUNDS ss ss ss
1.6217827166780438e+01 2.4078117716598047e+01
1.6637876552117881e+01 2.4133081064552261e+01
1.6578413365737006e+01 2.4512048976341564e+01
ITEM: ATOMS x y z vx vy vz
17.8127 18.5168 17.1328 0.425562 -2.03258 1.20623
17.6841 20.8797 18.2266 1.06044 -0.702145 0.154027
19.596 23.905 20.7261 -0.0554208 0.696781 0.314691
19.671 22.5305 18.3514 0.111916 0.819097 -2.66791
18.5542 16.6016 18.8939 0.395104 0.83628 -0.363496
17.1439 18.807 19.8257 -0.418358 -0.657884 1.25836
17.1596 23.1189 19.6703 0.344432 1.37959 -0.353876
19.9441 19.2078 19.0607 -0.380622 -0.938743 2.63948
20.2302 17.3936 17.0497 0.296124 -1.08505 0.0613632
21.1231 16.881 19.6733 0.334984 -0.0355456 -0.2097
21.5174 24.2431 18.9096 1.31204 1.71768 1.00498
22.0094 21.9424 17.096 0.853753 2.21613 -0.427392
21.6447 21.4077 19.7291 -0.659373 -0.126022 1.3534
22.2164 19.2699 17.5161 -0.446731 1.53599 -0.626471
23.6286 23.0301 19.04 -0.839476 -1.72466 -1.22049
24.1373 20.6527 18.6685 1.1461 -0.0179113 -0.151678
19.7789 20.3347 16.533 -0.314522 0.824665 -0.239953
22.8976 18.7641 20.0981 -0.792756 0.846218 -1.56224
17.8419 20.0325 22.797 -0.906829 -0.520872 0.174004
19.8296 20.5502 24.4353 -0.653172 0.665684 0.951097
16.241 21.1525 20.8638 -0.198142 -0.333361 -1.12275
19.5452 18.0583 23.8347 -0.387105 -0.459618 0.707352
18.8799 21.1939 20.6363 0.68206 -0.0407687 -0.262103
17.6694 22.7808 22.4676 0.0500222 -0.237131 -1.52203
19.0537 17.7974 21.3107 -2.9156 -0.376566 0.452013
20.2528 22.7485 23.0941 -0.26452 -1.29542 0.434615
21.6194 17.2977 22.2134 -0.00178583 -0.173876 -0.446326
20.9201 19.9623 22.001 1.06094 2.2704 0.0205615
23.9112 21.3698 21.2793 -1.88897 -2.56901 0.0363705
21.9088 18.8807 24.4378 2.16525 -0.140565 -0.441419
22.5751 21.2902 23.4759 0.115778 0.185799 1.13871
22.3562 23.4376 21.4175 -0.671291 -1.17587 0.082855
23.6815 18.9958 22.57 1.44018 0.649282 -0.372266
ITEM: TIMESTEP
7000
ITEM: NUMBER OF ATOMS
33
ITEM: BOX BOUNDS ss ss ss
1.6217827166780438e+01 2.4078117716598047e+01
1.6637876552117881e+01 2.4133081064552261e+01
1.6578413365737006e+01 2.4512048976341564e+01
ITEM: ATOMS x y z vx vy vz
18.0035 18.5461 17.4042 -0.746891 -1.13211 0.102002
17.2133 20.9212 18.0506 0.082901 -0.659762 0.631712
19.482 24.0898 20.8204 1.76714 2.46169 0.14139
19.2093 22.9654 17.8679 0.0350336 -0.126233 -0.304647
18.6981 16.4719 19.0249 -0.0405499 0.117511 0.282071
17.2089 18.8952 19.9636 -0.33732 -0.856738 -1.62353
17.163 23.5588 19.6836 0.516828 -2.39095 0.526758
19.8487 19.0515 19.4859 -1.1577 -0.997613 -0.835155
20.224 17.4536 17.1838 -0.373607 0.0894624 -1.16816
21.2388 16.7148 19.4156 -0.570352 0.869486 -1.06635
21.3516 24.0757 19.0705 -0.496324 0.304629 -0.786134
22.0143 22.1328 17.3335 -0.280754 -1.0436 1.11025
21.6215 21.4701 19.8142 -0.533175 0.820721 0.0185248
22.1333 19.2159 17.8155 0.114775 -1.18206 -0.350303
23.7251 23.1115 18.8906 1.30287 1.40303 0.011344
24.0638 20.5319 18.6741 1.44053 0.349237 1.81162
19.8748 20.5276 17.2261 -2.02865 0.400793 -0.616688
22.8109 18.7404 20.329 -0.0826044 1.71505 0.282788
18.1792 20.0061 22.2905 0.531633 0.352895 -1.7717
20.0175 20.6389 24.5478 -0.434015 -0.221964 0.74573
16.095 21.365 20.6537 -0.274738 1.34542 -1.00109
19.4719 18.1813 23.9422 0.791148 0.474324 0.528743
18.8507 21.503 20.0288 0.327342 -0.132769 1.64618
17.5678 22.8384 22.2265 -0.249157 -1.91392 1.29826
19.2005 17.4006 21.4768 0.0180588 0.902596 0.164841
20.1495 22.2777 22.4795 0.502083 -0.527818 0.851638
21.7803 17.1064 22.0594 0.507538 -1.55423 -0.731947
20.9065 19.6286 22.0635 0.280849 0.0709794 -0.518442
24.0084 21.2573 21.2095 0.916471 -0.814435 -1.67075
21.916 18.668 24.3854 -0.453358 -0.00123094 2.52738
22.5544 21.2822 23.4651 -0.465446 -0.163538 -0.0886164
22.5394 23.4246 21.4643 1.63189 -0.143021 -0.869632
23.9129 18.9825 22.688 -2.24245 2.18416 0.7219
ITEM: TIMESTEP
8000
ITEM: NUMBER OF ATOMS
33
ITEM: BOX BOUNDS ss ss ss
1.6217827166780438e+01 2.4078117716598047e+01
1.6637876552117881e+01 2.4133081064552261e+01
1.6578413365737006e+01 2.4512048976341564e+01
ITEM: ATOMS x y z vx vy vz
17.7595 18.7184 17.2306 -0.923759 0.635869 0.713398
17.2679 20.9393 18.3743 -0.972414 1.12303 -1.22751
19.8145 24.0423 20.4932 0.0351922 -0.0140195 0.647587
19.4407 22.4384 18.3413 0.866288 0.719669 -0.937515
18.4798 16.7114 18.6109 2.09307 -0.289351 -1.18324
17.2319 18.882 19.979 0.594532 0.36909 -2.20073
17.4665 23.1226 20.1067 -0.473497 -0.990764 0.587761
20.0612 19.2258 19.0643 0.288789 1.33657 0.904276
20.1574 17.7216 16.864 -1.31749 0.740092 0.225199
21.1494 16.8698 19.2756 -1.09486 0.911271 2.4376
21.4632 24.1653 18.4962 -0.0711772 0.98612 0.0309465
22.0848 21.8851 17.2017 -1.04309 0.372916 -0.559799
21.5521 21.4624 19.671 -0.530532 1.25425 0.266514
22.2199 19.1056 17.6352 -0.305844 -1.51377 -0.0171269
23.5976 22.8864 19.0834 0.377914 0.116238 -1.03039
24.2069 20.3917 18.6006 0.0297781 -2.0672 0.111922
19.9191 20.3819 16.6472 0.148744 -0.283017 -0.902774
22.8724 18.7379 20.2556 0.751902 -0.584572 -1.14414
17.7836 19.5527 22.6198 0.0423365 -0.805444 0.219835
19.6447 20.7889 24.2552 0.317052 -0.549539 1.64479
16.196 21.1348 20.7062 0.328351 -1.19312 0.37956
19.4472 18.1426 23.8347 -1.75388 0.705602 0.372379
19.0551 21.1247 20.801 1.39769 0.279582 -0.121707
17.8204 22.189 23.0096 -0.06222 0.0249124 0.0779072
19.2275 17.6341 21.1355 -0.279592 -1.87422 -0.131082
20.3178 22.7988 22.793 -0.295097 -1.63528 -0.523393
21.5116 17.3085 22.4276 -0.144391 -1.14531 0.386109
21.1332 19.8645 22.0016 0.0553987 -0.748408 -0.962539
23.9839 21.3216 21.2729 0.024636 -0.570658 0.952677
21.6681 19.1894 24.625 0.403799 1.17205 -0.898673
22.4595 21.6406 23.501 0.845238 1.55549 1.11845
22.4145 23.4485 21.3673 -0.115877 0.989672 -0.230094
23.6269 19.2085 22.7538 0.783007 0.972248 0.993811
ITEM: TIMESTEP
9000
ITEM: NUMBER OF ATOMS
33
ITEM: BOX BOUNDS ss ss ss
1.6217827166780438e+01 2.4078117716598047e+01
1.6637876552117881e+01 2.4133081064552261e+01
1.6578413365737006e+01 2.4512048976341564e+01
ITEM: ATOMS x y z vx vy vz
17.9459 18.4163 17.4122 0.620699 -0.726718 -0.930157
17.6367 20.8176 18.4103 0.0551625 0.123317 -0.471525
19.6349 24.1405 20.6441 -0.884883 -0.0586405 -0.608737
19.6644 22.5906 18.288 -0.31542 1.238 1.66043
18.6459 16.4766 18.7984 -0.476128 0.319786 0.455101
17.0892 18.6778 19.9676 -2.82616 0.0840188 -0.969964
17.3928 23.257 19.8709 -0.685735 0.00413625 0.286809
19.713 19.1238 19.2962 0.612645 0.27332 -1.71008
20.3297 17.4944 16.9736 -0.00441917 0.342176 -0.00520284
21.1175 16.8798 19.4562 -0.0787768 1.02981 -0.44614
21.5688 24.2259 18.9114 0.89093 -1.35363 0.00627721
22.2962 21.9706 17.2636 -1.19323 1.01801 -1.3391
21.698 21.5145 19.8926 -1.86615 -1.94709 -1.47919
21.8501 19.3755 17.7682 -0.569976 0.500957 -0.592793
23.8298 23.1727 19.1214 0.586457 -0.506508 -0.841328
24.0362 20.5605 18.456 -0.354593 -0.0208848 0.696105
19.6501 20.3333 16.7085 2.12831 -0.0912822 0.122797
22.7829 18.7952 20.0814 -2.53553 0.749369 -1.70095
17.8382 19.6018 22.3703 -1.97379 -0.835574 0.454439
19.5911 20.6711 24.1871 -0.591187 -0.802557 -0.522619
16.3605 21.1737 20.6754 1.24539 -0.375486 0.397856
19.5493 18.0778 23.926 1.02342 0.279113 -0.0335963
19.248 21.3934 20.8793 0.363232 1.42515 -0.609794
17.8108 22.6539 22.5794 0.721832 1.64463 -0.741365
19.0299 17.3252 21.4766 1.37721 -1.15498 0.654643
20.29 23.1121 22.9627 0.402709 1.63877 0.595779
21.6516 17.168 22.2579 1.46329 -2.04034 1.94322
20.815 19.5228 21.9182 0.823633 -1.35032 0.647696
24.0779 21.3812 21.0943 0.306058 1.62092 0.261841
21.8118 19.1272 24.4405 1.56936 0.17837 1.50849
22.3219 21.35 23.175 -1.20487 0.650284 1.03932
22.2508 23.6238 21.3467 1.18486 -1.3811 0.675869
23.506 19.0302 22.4249 0.18565 -0.47504 1.59587
ITEM: TIMESTEP
10000
ITEM: NUMBER OF ATOMS
33
ITEM: BOX BOUNDS ss ss ss
1.6217827166780438e+01 2.4078117716598047e+01
1.6637876552117881e+01 2.4133081064552261e+01
1.6578413365737006e+01 2.4512048976341564e+01
ITEM: ATOMS x y z vx vy vz
17.6557 18.6282 17.2881 2.09159 2.94275 -0.62731
17.6768 20.7907 18.7756 0.580274 -0.463809 -0.309126
19.8018 24.4356 20.6191 -0.659337 -1.36778 -1.00747
19.367 22.81 18.3595 -0.312598 0.191594 -0.92314
18.394 16.5406 18.7459 0.337663 -0.396039 1.4347
17.146 18.3726 19.9354 -0.806991 0.710014 1.05853
17.3441 23.2501 20.1612 1.30259 -1.2614 0.59799
19.7383 19.0539 19.3742 -0.912966 0.84885 0.590911
20.1214 17.7595 17.0202 -0.597038 -0.136595 -0.730021
21.0881 16.7971 19.4153 0.47913 -0.655666 0.260852
21.4772 24.0363 18.5842 -0.694194 2.28636 0.508591
22.4426 21.7865 17.0492 0.237576 -1.63788 -0.0559425
21.7972 21.1474 19.5284 1.22614 0.508023 0.125665
22.1778 19.2643 17.5746 -1.89427 2.50168 -0.464703
23.7654 22.9416 19.0686 0.426469 0.0947064 0.952091
24.3865 20.533 18.5387 2.57508 -0.289041 -2.76215
19.7687 20.5113 17.0673 -0.612927 -0.481339 -0.619441
22.8977 18.6468 20.0298 -0.739598 -1.42293 -1.06223
18.1502 19.6063 21.939 0.524778 -0.257662 1.20999
19.443 20.8693 23.9674 -0.236085 1.00475 1.66132
16.332 20.9882 20.9419 -0.769861 -0.418403 -0.722588
19.7621 18.184 23.6654 -1.72477 -1.07896 1.20152
19.5666 21.7311 20.9858 1.24381 0.711628 0.201047
17.7386 22.364 22.7009 -1.16813 -0.701872 -0.379842
19.2291 17.1456 21.2746 1.44426 -1.37193 -0.414218
20.0125 23.5762 23.0361 -0.667669 -0.560852 -0.517004
21.7541 17.0902 22.2079 0.553713 -0.200128 1.68665
21.058 19.5831 21.8259 -0.702613 0.707384 -0.340092
23.7653 21.13 21.3706 0.182603 -1.35697 0.291559
21.7426 19.376 24.5735 -0.661271 0.642146 -0.505353
21.8994 21.6558 23.3295 -0.440927 3.01921 0.157024
22.0946 23.312 21.2468 0.46712 -1.87226 1.19589
23.4407 19.118 22.8343 -0.071546 -0.237571 -1.69369
ITEM: TIMESTEP
11000
ITEM: NUMBER OF ATOMS
33
ITEM: BOX BOUNDS ss ss ss
1.6217827166780438e+01 2.4078117716598047e+01
1.6637876552117881e+01 2.4133081064552261e+01
1.6578413365737006e+01 2.4512048976341564e+01
ITEM: ATOMS x y z vx vy vz
17.6752 18.5508 17.2497 -0.869705 -0.433864 0.410324
17.5479 21.0531 18.5465 0.139886 1.48966 0.707201
19.6988 24.4411 20.893 -1.58143 -1.29398 -0.363518
19.5607 22.7713 18.4385 0.124708 0.564963 -0.6943
18.4379 16.5922 18.9458 0.530168 -0.0482602 -0.0805327
16.876 18.5315 19.7945 -0.0923879 -1.37319 -0.266636
17.5563 23.3986 20.046 -0.5484 -0.65964 -1.86488
19.4079 19.216 19.3306 -0.419577 0.121791 0.631883
20.2466 17.5151 17.1814 -0.021852 1.30652 -1.20775
21.1598 17.2634 19.3811 -0.0689633 0.0713471 0.428546
21.654 24.2378 18.5315 0.51655 -1.88203 -0.570547
22.0293 21.9526 17.0589 0.49473 0.211944 -0.323481
21.6696 21.001 19.4495 -1.52705 -1.08746 0.707548
22.259 19.0976 17.6164 0.850331 1.04598 -0.711427
23.7988 22.9888 19.0427 0.485037 -1.52174 -0.579542
24.3464 20.6828 18.6331 1.78571 -0.29394 -0.383205
19.9565 20.335 17.0298 -1.16013 0.99075 0.875787
23.1228 18.7474 20.1159 0.599884 0.497614 -1.38116
18.1952 19.546 21.9295 -0.528868 1.59845 -1.11082
19.5501 20.5732 23.9725 -1.26661 -1.25309 -0.47315
16.3339 21.1296 20.8069 0.276011 -0.615502 2.30297
19.5873 17.95 23.832 -0.563703 1.24487 0.603095
19.3867 21.6981 20.9465 -0.0365878 -0.278104 0.723391
17.5658 22.272 22.6753 0.817378 0.44307 -0.963272
19.2241 17.1573 21.362 1.30425 -0.267246 -0.465493
20.1479 23.0373 23.1883 1.45842 1.55569 -0.300295
21.6803 17.2722 22.4617 0.220594 -1.53858 0.472845
21.0097 19.6973 21.728 -0.587058 -0.362449 0.0717576
23.7213 21.1043 21.1622 -0.768149 2.61285 0.261367
21.7558 19.3184 24.5518 0.846604 -0.976478 2.50383
22.2888 21.5852 23.2645 -0.920466 0.0344232 -1.08844
21.9526 23.1694 20.9614 0.977763 1.6176 1.65068
23.632 19.1483 22.9074 -0.467077 -1.522 0.477215
ITEM: TIMESTEP
12000
ITEM: NUMBER OF ATOMS
33
ITEM: BOX BOUNDS ss ss ss
1.6217827166780438e+01 2.4078117716598047e+01
1.6637876552117881e+01 2.4133081064552261e+01
1.6578413365737006e+01 2.4512048976341564e+01
ITEM: ATOMS x y z vx vy vz
17.7348 18.6571 17.1748 1.02283 -1.62079 0.022181
17.7045 20.8495 18.4725 1.17474 -0.35016 -0.925456
19.8486 24.0646 20.8083 1.35444 -1.90363 1.35383
19.6177 22.5553 18.3932 -1.25105 0.466347 0.857943
18.4686 16.6526 18.8578 0.18213 -1.60242 -0.192532
17.0104 18.7374 19.6945 1.2834 -1.07913 -0.364489
17.427 23.1383 19.8234 1.29984 0.110774 1.01308
19.8459 19.1494 19.2427 -1.22202 1.00302 0.230285
20.1587 17.5822 17.0855 -1.68745 0.164364 -0.0818748
21.1302 16.8818 19.5571 -0.832223 0.319836 -0.794438
21.501 24.2946 18.6662 0.849915 -0.0491314 1.31449
22.0151 21.8661 17.1927 -0.926802 0.407523 -0.471754
21.7421 21.4285 19.7045 0.540461 2.82068 -1.06215
22.055 19.2662 17.609 0.0436595 0.0359911 1.01784
23.8144 23.0198 18.9169 1.42491 0.592395 0.429645
24.1918 20.4672 18.5736 -0.801684 -0.652199 -0.34078
19.7565 20.3156 16.6803 0.0188115 2.04575 -0.448283
22.8805 18.8708 20.1501 1.94922 -0.851706 0.0432466
17.8822 19.289 22.2154 0.497541 0.638958 0.531665
19.4931 20.7754 23.8924 0.552948 1.97775 -1.07873
16.3093 21.102 20.9982 -0.119469 0.187967 0.66378
19.6806 18.0366 23.9859 0.0874558 0.857033 2.03445
19.1677 21.5244 20.9975 -1.94449 -0.178522 -0.432613
17.6995 22.6852 22.668 -1.2545 -1.49948 -0.899369
19.2939 17.1732 21.3707 -0.502116 0.0811656 1.5977
20.2359 23.292 23.1096 -0.344612 0.0687439 -1.36649
21.8443 17.0009 22.0349 1.12342 2.16481 0.372856
20.8358 19.5505 21.8834 -0.746807 -0.787319 -1.51326
23.9195 21.2953 21.2751 -0.496298 0.0393185 0.770679
21.7306 19.389 24.6733 -0.72286 -0.893413 -1.32746
22.1362 21.5551 23.3231 0.459214 0.225665 -0.981644
22.3536 23.4212 21.3042 0.0214254 -2.16817 -0.315797
23.55 19.1484 22.7002 -1.03398 -0.572028 0.343461
ITEM: TIMESTEP
13000
ITEM: NUMBER OF ATOMS
33
ITEM: BOX BOUNDS ss ss ss
1.6217827166780438e+01 2.4078117716598047e+01
1.6637876552117881e+01 2.4133081064552261e+01
1.6578413365737006e+01 2.4512048976341564e+01
ITEM: ATOMS x y z vx vy vz
17.6649 18.8056 17.222 0.155796 -0.12754 0.883261
17.3097 21.0744 18.24 -0.163252 1.03962 -0.896054
19.846 24.1356 20.6027 -0.728906 -0.759845 0.373805
19.5641 22.3218 18.2295 -1.66768 -0.72482 0.554825
18.4798 16.8117 18.7442 0.247122 -1.6931 -2.33933
16.7637 18.7357 19.7535 -0.964998 -1.17379 0.136322
17.5443 23.045 20.1629 1.53743 0.506272 -1.5349
19.443 19.3821 19.2456 1.40869 0.772272 0.486432
20.2172 17.4732 17.1132 -1.43528 1.29621 -0.95057
21.1091 17.0769 19.6154 -0.291805 -0.851726 1.87519
21.7064 24.0372 18.5527 1.84758 -1.484 1.57136
22.1135 21.9469 17.2293 -0.503335 -1.01818 -0.824272
21.6485 21.3049 19.846 0.902068 1.24352 -1.19137
21.972 19.1883 17.8868 0.382347 -0.582585 0.00602255
23.8813 22.9953 19.1438 0.485137 -2.28049 0.588018
24.0711 20.5113 18.6053 -1.52512 1.8027 -1.30007
19.9065 20.1574 16.7631 1.67405 -0.336295 0.176951
23.0894 18.7343 20.358 0.492875 0.129066 -1.2692
17.977 19.2768 22.1512 0.413854 0.031432 0.375159
19.5023 20.6219 23.935 -0.850929 0.265686 0.758211
16.5838 21.0631 20.9111 0.881295 0.506585 1.37505
19.6804 17.8799 23.6709 -0.415727 1.57961 -1.51772
19.3619 21.5724 21.2685 -0.446721 0.0213568 1.02547
17.7354 22.414 22.9522 -0.640827 -0.469114 0.578108
19.1438 17.128 21.1647 0.0285205 0.22694 -0.597807
20.1776 23.5356 23.0949 0.0621188 1.39834 1.00591
21.9872 17.1914 22.5134 0.995938 1.73578 1.40106
20.8288 19.323 21.7977 1.68153 -0.442193 0.36729
24.1078 21.346 21.1279 0.374792 -1.55079 -1.73695
21.7138 19.238 24.4782 -0.229438 -0.802676 -0.237595
21.9679 21.5593 22.7969 -1.20591 -1.08457 -0.308221
22.2567 23.6724 21.2117 -1.65699 1.50851 0.919336
23.6801 19.4756 22.6467 -0.844234 1.31781 0.246278
ITEM: TIMESTEP
14000
ITEM: NUMBER OF ATOMS
33
ITEM: BOX BOUNDS ss ss ss
1.6217827166780438e+01 2.4078117716598047e+01
1.6637876552117881e+01 2.4133081064552261e+01
1.6578413365737006e+01 2.4512048976341564e+01
ITEM: ATOMS x y z vx vy vz
17.8867 18.69 17.1794 0.822418 0.710548 0.891112
17.6235 20.8605 18.4452 0.583602 -0.486778 -1.20042
19.7711 24.2722 20.585 1.96202 -0.494316 -1.08389
19.3882 22.8799 18.1116 -0.392731 0.348926 -0.428697
18.4929 16.7168 18.6109 0.936666 0.202774 -0.461523
17.3091 18.7842 19.9131 -0.0871608 2.63881 0.510459
17.4403 23.2194 20.0132 -1.18133 0.82937 0.762827
19.8036 19.041 19.3964 -0.107409 0.81208 0.387951
20.2363 17.4444 16.9257 -0.692718 -1.98736 -0.579483
21.1632 16.6781 19.5872 0.36124 -0.03195 0.158806
21.5953 24.1557 18.8519 0.342094 -0.493579 -0.467062
22.318 22.0044 17.1442 0.171974 0.377247 -0.0845383
21.4164 21.4682 19.464 -1.62571 -1.25968 -0.746426
22.1162 19.0786 17.6409 2.27505 -0.921307 -1.15954
23.9449 23.1336 19.0927 -0.834139 0.526399 1.2051
23.8296 20.5541 18.4862 -0.979289 0.258041 -0.36288
19.8696 20.5219 16.9117 -1.55371 0.00672649 0.661951
22.7967 18.6616 20.265 -1.23967 1.56508 -0.676874
18.0637 19.6821 22.5553 -0.967084 0.217307 -0.0263283
19.7348 20.8378 24.231 -0.914697 -0.926041 1.15785
16.2073 21.0286 20.8933 0.772256 -0.757874 0.0585563
19.6431 18.027 23.8016 1.66033 -0.898736 -0.727294
19.0141 21.4396 20.7745 0.899843 -0.274049 0.119568
17.7536 22.2922 22.8278 -1.50138 -0.577619 -1.99653
19.2888 17.141 21.269 -1.21182 0.65228 1.3027
20.1956 22.8256 22.7391 1.60619 -0.652151 0.424766
21.7254 17.2665 22.3361 -0.247165 -0.0883912 -1.97362
20.8722 19.8174 21.8763 1.37371 -0.341792 1.89599
23.5492 21.1763 21.0418 -0.346688 0.905708 -1.90586
21.6424 19.2077 24.5238 0.225782 1.59081 -0.147478
22.4884 21.6085 23.4873 0.593492 -0.149921 1.50462
22.3631 23.3423 21.251 -0.0232692 -1.88817 0.865949
23.4916 19.1777 22.8029 -0.680696 0.587618 2.12023
ITEM: TIMESTEP
15000
ITEM: NUMBER OF ATOMS
33
ITEM: BOX BOUNDS ss ss ss
1.6217827166780438e+01 2.4078117716598047e+01
1.6637876552117881e+01 2.4133081064552261e+01
1.6578413365737006e+01 2.4512048976341564e+01
ITEM: ATOMS x y z vx vy vz
17.8808 18.643 17.3156 0.384301 0.0401135 -1.59418
17.4101 20.8219 18.4947 0.387468 -0.206227 1.37946
19.7681 24.1147 20.8334 1.01668 0.987048 0.690873
19.4887 22.7504 18.3188 -0.712677 0.579449 -1.20062
18.4615 16.5895 18.7313 1.39167 2.16889 0.362332
17.14 18.4742 19.9054 -1.14967 0.66297 0.562128
17.1497 23.2189 19.9738 1.13669 -0.394569 1.75494
19.8532 19.2925 19.2089 -2.13193 0.360309 -0.0357058
20.1229 17.4745 16.7601 0.246789 -2.12772 0.631159
21.1181 16.931 19.2383 1.11525 2.37823 1.70906
21.5192 24.1356 19.0574 0.439648 0.297778 -0.190605
21.9266 21.8263 17.4466 -1.1114 -0.150964 1.04906
21.7254 21.5962 20.0394 -0.209862 0.350357 -1.00081
22.0148 19.202 17.6263 0.892923 -1.42506 -0.899697
23.8064 23.0801 19.0157 1.38482 0.554088 -0.175879
23.9518 20.485 18.5907 -0.149723 -0.251878 -0.085872
19.8267 20.4571 16.6669 0.347039 -0.213094 -0.19968
22.5659 18.8632 20.2639 -2.04949 -1.53246 0.212836