ITEM: TIMESTEP
0
ITEM: NUMBER OF ATOMS
33
ITEM: BOX BOUNDS ss ss ss
1.6172550259291917e+01 2.4262564324994994e+01
1.6111145317255229e+01 2.3871188846372377e+01
1.5909150634744812e+01 2.3971472088389412e+01
ITEM: ATOMS x y z vx vy vz
18.8817 18.2915 18.1602 1.08384 -0.39042 1.00937
19.3912 19.9818 16.19 -1.78018 -1.01232 -2.36576
22.6736 18.5111 19.7591 1.23966 0.319908 0.965409
21.4777 18.3166 17.1094 -0.33928 1.53488 -1.74766
23.6117 19.9668 17.7014 0.91672 -1.08667 0.992042
20.8147 16.5602 19.1216 1.07838 0.396446 1.32534
19.9929 22.4976 16.8131 1.94013 -1.09949 -0.492096
18.1797 21.1077 18.4853 0.897173 -0.435565 -0.0938125
17.6925 23.5302 19.867 -0.585118 -0.107448 -0.236257
22.5733 22.5343 17.9976 0.472781 0.293919 -1.44388
20.2851 23.1302 19.3872 0.0297962 0.484532 0.0287358
20.8861 20.4717 18.6162 0.451328 -0.197758 -0.498092
21.892 20.8377 15.9132 -1.05191 1.97621 -2.8382
19.9897 18.6659 20.6739 0.938623 -0.111485 0.683432
18.2488 16.4724 20.1058 -1.12448 0.997541 -0.817407
19.9978 19.7163 23.3138 0.243102 -0.545417 0.528195
17.264 19.018 20.3101 -2.35306 -0.513895 -0.196255
18.2325 17.7219 22.5555 -1.73361 -1.30931 1.50136
20.2796 16.1152 21.7539 2.42383 -0.422207 0.706969
24.2585 19.4326 21.8494 -0.337003 -1.47255 -0.310902
22.0429 18.0023 22.4454 -2.90784 -2.0562 -0.404683
17.1752 20.2488 22.8235 1.24737 0.25225 0.0922822
19.6037 23.8671 21.9399 -1.62188 1.43187 0.299126
18.9846 21.3255 21.1407 1.729 0.484836 0.538133
18.8968 22.0842 23.9595 0.436224 -0.164757 1.25064
17.0002 23.0334 22.4056 0.310398 0.343095 1.38756
16.1766 21.4249 20.4576 1.37499 -0.526008 0.513864
22.4457 23.3848 20.9301 1.35132 1.02154 0.0673223
21.4794 22.5298 23.3905 -1.16518 1.3171 0.792636
24.0534 22.0158 22.6026 -1.31689 -0.468119 0.193426
24.0789 21.3663 19.941 1.05233 0.354905 -1.35776
22.6653 20.1479 23.9674 -1.73542 0.420526 -0.46169
21.8092 20.7247 21.3475 -1.16515 0.290063 0.3886
ITEM: TIMESTEP
1000
ITEM: NUMBER OF ATOMS
33
ITEM: BOX BOUNDS ss ss ss
1.6172550259291917e+01 2.4262564324994994e+01
1.6111145317255229e+01 2.3871188846372377e+01
1.5909150634744812e+01 2.3971472088389412e+01
ITEM: ATOMS x y z vx vy vz
18.7033 18.2492 18.0213 -0.00728864 0.0936183 0.503788
19.4219 19.983 16.1687 0.748657 0.939901 -0.285863
22.6237 18.421 19.7811 -0.0734797 -1.56686 -0.223669
21.5659 18.3225 17.2637 0.234513 0.585629 0.694818
23.5502 20.023 17.9439 1.5052 1.19427 0.670926
20.6775 16.4606 19.1643 0.00264046 1.08261 -0.172381
19.9604 22.5831 16.8489 -0.0556612 0.195501 -0.557366
18.0644 21.1813 18.3502 0.100807 0.74315 -0.528398
17.6794 23.3012 19.7795 -0.0279384 -0.276552 0.58196
22.4595 22.5747 18.1346 -0.989272 -1.33037 -1.35193
20.2644 23.4008 19.265 -1.14057 -0.081334 -0.534074
20.6308 20.4092 18.67 -0.155444 -0.792655 -0.638771
21.876 20.9055 16.2389 -1.29741 0.854747 -0.0293022
19.926 18.5622 20.5929 -1.47407 -2.26035 0.936911
18.2367 16.4674 20.1589 -0.609808 1.34628 -0.143144
20.1386 19.5434 23.3852 1.00158 -0.741331 -0.357977
17.2662 19.0994 20.2624 -0.885578 -0.831404 -0.370617
18.1954 17.8546 22.5671 1.00668 -0.995965 1.44574
20.2575 16.3564 21.9906 -0.744058 -1.96667 1.83841
24.2629 19.4062 21.7003 -0.139168 1.41319 -1.77458
22.1018 18.0489 22.3786 -0.727203 -0.128875 -0.474267
17.1462 20.2497 22.6991 0.885553 -0.624276 -1.00283
19.7229 23.7297 21.7821 1.33021 0.809812 -0.0124631
19.0389 21.2563 21.0389 -0.891593 1.01359 1.24232
19.0141 22.0031 23.8556 -1.26086 0.305679 -0.666841
17.1475 22.939 22.3253 0.799339 1.12929 -1.07537
16.0914 21.2945 20.4039 1.20103 -0.338918 -1.14857
22.4535 23.4236 21.0618 0.284156 0.165685 1.10019
21.5852 22.4087 23.4663 -0.598743 -1.59874 0.689187
24.1897 21.9174 22.5598 0.431458 0.142364 0.59441
24.1177 21.605 19.9875 -0.750165 -0.359482 -0.366553
22.8329 20.1745 23.9039 0.248677 1.12821 1.03949
21.8325 20.8797 21.2847 2.04782 0.750244 0.376825
ITEM: TIMESTEP
2000
ITEM: NUMBER OF ATOMS
33
ITEM: BOX BOUNDS ss ss ss
1.6331706319988829e+01 2.4390798755819073e+01
1.6360224312441261e+01 2.3888400165655284e+01
1.6176179183857833e+01 2.3906792014566111e+01
ITEM: ATOMS x y z vx vy vz
18.7211 18.393 18.0227 -0.559943 -0.155683 0.184259
19.6507 19.9537 16.126 1.24149 0.972467 0.187686
20.1182 22.5671 16.7375 0.0124282 0.310972 -1.03028
18.0035 21.1902 18.3304 -0.674651 0.81804 -1.81709
17.5835 23.4066 19.8932 0.727918 -1.61729 1.5341
20.0744 23.2786 19.373 -0.761485 2.3823 -1.92171
22.4349 17.5018 19.9698 -2.42234 -2.1866 -0.0883759
21.503 18.2315 17.3879 0.474325 0.638368 0.41075
23.1745 19.7855 18.9334 -1.39743 0.484711 -0.364426
20.3575 16.33 18.8022 0.672147 0.0707617 -0.489105
22.5536 22.4809 18.2306 -0.160564 -0.685018 1.1055
20.4717 20.5069 18.5889 -0.850703 0.101082 0.023131
22.0812 20.7121 16.4766 0.211507 -1.25277 0.940267
19.9722 18.5874 20.584 -0.516425 -0.518347 -0.726969
18.1973 16.6273 20.0837 -0.25317 -0.260538 -0.189994
20.2381 19.8138 23.2391 1.31576 -0.602933 1.68829
17.2346 19.0215 20.1223 -0.441076 0.634052 -0.518344
18.5076 17.869 22.4188 -0.279597 0.315688 1.36718
20.5751 16.0669 21.3881 2.52516 -1.52074 -0.777774
17.4204 20.2612 22.9172 -0.212584 0.0942702 -0.643686
19.5333 23.7021 21.911 -0.289048 -0.0120303 -0.190048
18.8863 21.2877 21.1099 -0.787459 -0.424359 -0.345201
18.9602 22.0588 23.9803 0.510129 -0.0113623 0.201271
17.0533 22.9353 22.5051 0.542509 -1.51817 -1.12491
16.1237 21.3429 20.6638 -0.723483 1.5996 -0.207514
24.1138 19.5519 21.4776 -0.697498 -0.198522 0.519529
22.1481 18.1357 22.4153 0.270847 -1.5098 1.37512
22.409 23.5232 20.7126 2.28403 0.32791 0.409657
21.5611 22.623 23.1818 -0.414465 -0.210371 0.94903
24.0554 22.1411 22.4892 0.0771216 1.51054 -1.67562
24.5542 21.8768 20.0798 -1.11715 0.305506 -0.498696
22.8766 20.2943 23.7643 1.27904 1.09929 0.238088
21.8871 20.9772 21.1187 0.414648 1.01898 1.47588
ITEM: TIMESTEP
3000
ITEM: NUMBER OF ATOMS
33
ITEM: BOX BOUNDS ss ss ss
1.6331706319988829e+01 2.4390798755819073e+01
1.6360224312441261e+01 2.3888400165655284e+01
1.6176179183857833e+01 2.3906792014566111e+01
ITEM: ATOMS x y z vx vy vz
18.6296 18.2637 18.1664 -1.1048 0.888893 -0.0750886
19.3027 19.9895 16.306 -0.529443 -1.17277 1.0312
19.7035 22.3891 16.8891 -1.1837 -0.267975 -1.10742
17.9295 20.9669 18.5141 0.0486771 -0.818458 -0.278412
17.7444 23.4565 19.6544 -2.02866 -0.431817 0.0389831
20.1657 23.2871 19.3405 -0.798046 0.843658 0.821051
22.6968 17.8326 19.9966 0.991523 -0.215792 0.681193
21.4008 18.355 17.2684 0.027684 1.99118 -0.676067
23.2939 19.8698 18.4773 -0.0334304 1.8792 -0.633263
20.4143 16.5097 18.7191 -0.850606 -0.319347 -0.604641
22.5645 22.5005 18.3691 0.955515 -1.39746 -1.27557
20.5664 20.5482 18.6769 1.03284 -1.03848 -1.90954
21.9595 20.8408 16.3511 0.620913 1.04271 -0.455001
20.1745 18.6303 20.5111 -0.711337 1.69416 -0.515768
18.3109 16.6162 20.1489 -0.635231 0.14975 0.137386
19.9231 19.8894 23.4002 1.40048 0.0722033 -1.35242
17.4462 19.1311 20.3877 -1.61238 -1.88293 -0.664978
18.7376 17.6229 22.5333 -0.491919 -0.55701 -1.06607
20.9547 16.0743 21.1829 -1.62911 -0.816631 2.17442
17.3367 20.2825 22.8801 -0.325302 0.571859 1.18276
19.6326 24.0528 21.8787 0.936355 -1.79066 1.47725
19.1257 21.4837 21.1875 -0.335905 -0.846534 0.869846
18.8072 22.1584 23.7358 -0.680118 -0.668477 -1.3544
17.0564 23.2051 22.1539 1.54535 -0.317241 -0.844909
16.303 21.428 20.6724 0.798198 0.300005 -0.439951
24.156 19.3234 21.5403 1.2394 0.872493 1.408
21.8449 18.0322 22.6129 -0.0201371 1.61978 0.630093
22.3422 23.4602 20.8368 1.12497 -0.675944 0.688514
21.4114 22.4245 23.0266 -0.900576 0.823219 1.19071
24.0492 22.0328 22.5859 1.01616 -0.343535 -0.165775
24.4715 21.5656 20.1986 1.14893 -0.726155 0.26221
22.5386 20.1187 23.7738 0.496634 0.231631 -0.113105
22.041 20.6938 21.0589 0.487074 1.30647 0.938759
ITEM: TIMESTEP
4000
ITEM: NUMBER OF ATOMS
33
ITEM: BOX BOUNDS ss ss ss
1.6331706319988829e+01 2.4390798755819073e+01
1.6360224312441261e+01 2.3888400165655284e+01
1.6176179183857833e+01 2.3906792014566111e+01
ITEM: ATOMS x y z vx vy vz
18.5251 18.1635 18.0402 0.450776 0.785044 -0.893494
19.3612 19.934 16.3894 -1.09572 1.35326 -0.64453
19.7942 22.5563 17.1561 -0.6133 0.629164 0.547135
17.6243 20.9501 18.349 0.329168 -0.32851 0.673909
17.9433 23.4154 19.3055 -1.35164 0.601093 -0.123775
20.3985 23.2815 19.6345 -1.19937 -0.682546 -1.66515
22.7513 17.5404 19.9447 0.454055 -1.29632 0.451317
21.3229 18.2417 17.6055 -1.8206 -0.21482 -1.47509
23.2596 19.8595 18.6712 0.180201 0.107002 -0.103112
20.5452 16.1529 18.9214 0.236464 0.284723 1.53343
22.5225 22.6039 18.3702 0.241816 -0.941473 0.0815735
20.3546 20.5875 18.6728 -0.286282 0.0810494 1.02465
21.8116 20.892 16.4049 -0.199045 -1.20396 1.27066
20.3645 18.5031 20.3486 0.398344 0.264357 -2.89001
18.1933 16.5277 20.2479 0.615979 -1.41839 -0.418959
20.1257 19.9294 22.9265 -0.207536 -0.424847 -0.256459
17.5491 18.9945 20.4717 0.829945 0.778434 -0.836142
18.5833 17.7386 22.5895 -0.145005 -0.00360503 0.932373
20.5377 16.12 21.4954 1.9582 1.49198 -1.39256
17.2733 20.2978 22.7934 0.798416 -0.293797 1.12821
19.6223 23.9797 22.2273 -0.74096 0.381012 0.364669
19.0134 21.4662 21.0483 -0.918435 -0.679629 1.16855
18.6601 22.1746 23.8377 -0.0116929 1.1674 -0.576181
17.2403 23.3318 21.9045 0.140679 0.112148 -1.55074
16.4959 21.4308 20.506 0.242813 0.848496 -0.704693
24.2303 19.4638 21.3057 0.765909 0.383854 -0.600483
22.1843 18.0175 22.3927 -0.0660537 0.0790202 1.89048
22.4863 23.6525 21.0574 1.86065 -0.183309 -0.273947
21.4298 22.2988 23.2571 0.18044 0.631895 0.373473
23.9613 22.0458 22.587 -0.23166 0.0244601 0.0752737
24.2498 21.8752 20.0188 0.00762007 -0.938349 1.53494
22.7069 20.0476 23.6445 0.415688 -1.03172 0.0736869
21.913 20.9608 20.9094 -1.21988 -0.363116 1.28098
ITEM: TIMESTEP
5000
ITEM: NUMBER OF ATOMS
33
ITEM: BOX BOUNDS ss ss ss
1.6107612753583567e+01 2.4434078199267983e+01
1.6110827220542184e+01 2.3649221544315829e+01
1.6228328986612762e+01 2.3856402628916332e+01
ITEM: ATOMS x y z vx vy vz
18.5243 18.1917 17.9341 -0.994239 1.19042 0.0306053
19.2069 20.1248 16.3155 0.366469 -0.152898 1.39576
19.3401 22.6517 17.0021 0.474289 0.918765 0.401298
17.4982 20.755 18.3467 -1.45057 0.304497 1.22777
18.1217 23.036 19.5714 2.68153 0.957986 0.402313
20.8278 23.6289 18.9254 0.420539 -0.786451 -0.941466
21.2348 18.532 17.4462 2.50721 -1.10253 -0.892222
22.9563 19.8368 18.9205 0.924076 0.299169 0.0027994
20.6544 16.1892 18.739 -0.625311 0.31043 0.414216
23.0662 22.4516 18.3168 -0.349182 0.563121 -1.78367
20.2833 20.9515 18.8344 -1.10477 1.6668 0.972821
21.6349 21.188 16.5596 0.106884 0.465692 1.13432
20.2049 18.6175 20.2159 0.10492 -1.83363 0.185544
18.5137 16.505 20.2483 -0.982634 -0.984479 1.12811
20.1317 20.0841 23.6974 1.21703 0.271835 1.10977
17.3111 18.8705 20.3397 -1.16905 -0.845081 -0.399965
18.846 17.9724 22.3755 -0.101173 -0.184035 0.704025
17.1635 20.2984 22.7199 -3.08734 -1.69353 -0.366111
19.8245 23.5042 21.552 -0.234945 -0.722982 0.562813
18.9841 20.9834 21.1787 -0.839174 -1.00459 -1.00355
18.8398 22.3119 23.654 -0.854568 -0.271613 -1.03865
17.139 23.031 22.0541 0.928002 0.856832 -1.00813
16.1215 21.2737 20.5652 0.36618 -0.519037 0.381011
22.6993 17.458 19.9612 -0.141596 0.145524 -1.71969
20.7254 16.238 21.4857 0.939274 0.871371 -0.188238
24.0466 19.3009 21.3367 2.00246 -0.836872 1.0492
21.7709 18.2903 22.407 -0.441689 0.959721 -0.503523
22.7082 23.4869 20.9104 0.352301 0.697201 0.369477
21.5526 22.4409 23.4836 0.331769 0.939975 0.152214
24.0759 22.0077 22.7692 -1.58438 0.0419422 -1.74607
24.437 21.7236 20.246 1.476 -0.129384 0.781009
22.7263 20.1788 23.777 0.115091 0.275533 -0.689778
21.8643 20.9202 21.1458 -1.35339 -0.669703 -0.123996
ITEM: TIMESTEP
6000
ITEM: NUMBER OF ATOMS
33
ITEM: BOX BOUNDS ss ss ss
1.6107612753583567e+01 2.4434078199267983e+01
1.6110827220542184e+01 2.3649221544315829e+01
1.6228328986612762e+01 2.3856402628916332e+01
ITEM: ATOMS x y z vx vy vz
18.7081 17.9137 18.0348 -1.15841 0.23349 -1.5438
19.4294 20.0024 16.3786 0.410893 -0.0957526 1.14054
19.4472 22.6272 17.0011 0.581867 -0.744054 0.168037
18.0144 20.4884 18.5209 0.217583 -0.539078 1.31685
18.1361 23.1096 19.5366 -0.844904 0.164709 0.290625
20.3845 23.8768 19.0419 -1.29269 -1.30681 -0.0716612
21.3074 18.4872 17.5747 0.085207 -0.74058 -0.531048
23.1739 20.0591 18.5026 0.793804 -0.161904 0.63598
20.7731 16.2535 18.8253 -1.13511 1.98676 -0.30697
22.8552 22.7286 18.1859 0.328426 1.2073 -0.70516
20.6465 21.0842 18.7498 0.610032 0.235897 -2.45405
21.793 21.0913 16.3014 0.53188 0.00888424 -1.06958
19.9362 18.8031 20.1624 -1.35041 0.97829 1.64811
18.2609 16.4386 20.1145 0.591777 -0.0104762 0.371624
20.0862 20.0405 23.6645 1.13778 -0.177038 0.668598
17.1702 18.7753 20.3269 0.922914 1.52458 -0.638114
18.745 18.0722 22.4498 0.621273 -1.21284 -1.67573
17.4282 20.3539 22.878 -1.59133 -0.670205 0.229127
19.6717 24.0707 21.7528 -0.721074 0.139915 2.14918
19.253 21.4146 21.2591 0.116421 -0.00568563 0.63006
18.7781 22.4605 23.8463 -1.75408 0.465445 0.324121
17.082 23.1352 22.1385 0.652215 1.88685 -0.516157
16.4505 21.0802 20.6138 -0.512153 0.0261925 -0.396815
22.5077 17.9015 20.0368 0.0657803 -0.835205 1.36302
20.407 16.1366 21.3347 0.80301 2.0211 0.0986669
24.1868 19.2275 21.5532 0.936064 -1.38211 -0.5535
21.5666 18.0372 22.632 1.59855 0.150142 0.370633
22.1569 23.0718 20.7332 0.477048 -0.701224 0.74083
21.4538 22.3587 23.1684 -1.13705 0.264337 -0.642183
24.0663 21.6811 22.6302 -2.2029 1.16601 -2.30898
24.3588 21.7307 20.0774 0.697258 -1.09135 0.190859
22.7357 20.081 23.8723 1.05717 0.340532 0.221172
22.0647 20.442 21.1367 0.463164 -3.12613 0.855735
ITEM: TIMESTEP
7000
ITEM: NUMBER OF ATOMS
33
ITEM: BOX BOUNDS ss ss ss
1.6107612753583567e+01 2.4434078199267983e+01
1.6110827220542184e+01 2.3649221544315829e+01
1.6228328986612762e+01 2.3856402628916332e+01
ITEM: ATOMS x y z vx vy vz
18.7614 18.0227 18.036 0.149595 0.553164 0.643008
19.4062 20.1387 16.2391 0.564742 1.15538 -0.0358375
19.7963 22.7289 17.0611 -0.765647 -0.0558669 0.0233128
17.7857 20.4668 18.2708 0.25413 -0.868447 0.482212
18.0336 22.9003 19.2484 -2.44622 0.480376 -0.0114634
20.4481 23.9063 19.1338 -0.338593 -0.228888 -0.700405
21.2486 18.6039 17.3195 -1.23568 -0.745924 -2.20784
23.0361 19.8909 18.6903 0.288948 -0.179082 0.55727
20.6536 16.4258 18.8627 -0.259871 -2.28636 -2.20283
22.6447 22.5477 18.4756 -0.592276 -1.15299 -0.0634652
20.4179 20.9078 18.7103 -0.126438 -0.628103 0.76343
21.8822 21.0344 16.4756 0.210823 0.564086 1.45492
20.1654 18.6953 20.3409 0.417384 -1.96083 -1.59817
18.2759 16.5413 20.0925 0.0447438 1.57364 -0.82499
20.111 20.0455 23.5147 1.01116 -0.0795731 0.907305
17.3663 18.9195 20.4658 -0.488511 0.562738 -1.00801
18.8665 17.974 22.5447 0.655939 -0.31539 0.409632
17.2234 20.3077 22.9884 -0.216874 1.58986 0.24017
19.8468 23.4993 21.67 -1.90972 -1.69613 1.91858
18.8608 21.041 21.1635 0.0768678 -1.91874 0.869268
18.7857 22.2374 23.8452 0.0359604 -1.40037 -0.962727
17.3477 23.2508 22.0573 0.322697 1.388 -2.33714
16.2404 21.2723 20.5255 0.456973 1.03755 0.0950733
22.561 17.4014 20.0562 0.430543 1.04474 1.27289
20.4545 16.1094 21.508 0.757903 1.39769 -0.156128
23.9451 19.3997 21.3647 0.4697 0.252062 0.458071
21.786 18.1379 22.5776 0.077503 0.899038 1.56564
22.613 23.5223 21.0434 0.655935 1.34191 0.456563
21.449 22.3443 23.5049 -0.232011 1.41962 1.78293
23.9948 21.92 22.4353 1.03168 0.602241 -0.264907
24.4369 21.6611 19.9393 0.328272 -2.8122 -0.514156
22.752 20.1542 23.7478 0.248877 -0.411718 -0.184327
21.8386 21.0264 21.126 0.121468 0.878499 -0.827879
ITEM: TIMESTEP
8000
ITEM: NUMBER OF ATOMS
33
ITEM: BOX BOUNDS ss ss ss
1.6107612753583567e+01 2.4434078199267983e+01
1.6110827220542184e+01 2.3649221544315829e+01
1.6228328986612762e+01 2.3856402628916332e+01
ITEM: ATOMS x y z vx vy vz
18.6235 18.0596 18.0369 -0.404 -0.292223 0.369473
19.569 20.0264 16.2529 -0.36408 -2.02565 0.254613
19.2017 22.4164 16.9291 -0.968401 0.71822 -1.47661
17.7596 20.5108 18.4635 -0.680591 -1.7814 0.0512897
18.0612 23.0846 19.363 -0.616322 1.7351 0.37582
20.6609 23.7191 18.7332 0.154455 -0.474789 1.237
21.2695 18.6359 17.6998 0.936517 0.234236 0.579536
23.1773 20.0417 18.7127 -0.249735 -1.11144 -1.27648
20.5661 16.4065 18.6741 -0.0237085 0.273579 -0.129142
23.0554 22.8104 18.425 -0.625222 2.86444 0.410976
20.4939 20.9674 18.7715 0.0897742 1.34977 0.594567
21.8999 21.4262 16.6025 1.4448 -0.227078 -1.0708
19.8827 18.6674 20.2228 -1.44191 0.592081 -0.672808
18.2486 16.3752 20.1794 0.875323 0.838296 -0.519237
20.035 19.8226 23.4776 -1.39599 0.397499 -0.577396
17.1574 18.736 20.6409 0.613946 -1.82638 -1.37612
18.7119 17.7061 22.5332 -0.915889 -0.0185319 2.22205
17.2774 20.2304 22.8747 -0.14643 -0.755012 0.742953
19.8925 23.8344 21.53 1.23263 1.31403 0.765891
19.0595 21.1652 21.1282 -0.105855 -0.899069 0.726835
18.8264 22.2196 23.7337 -1.46537 0.0134536 -0.833415
17.4112 23.3055 21.9245 -0.5954 0.763663 -0.176649
16.3214 21.1654 20.655 -0.0796432 1.65878 0.528937
22.3918 17.85 20.044 -1.16051 1.54416 0.899668
20.5298 16.1417 21.3969 1.07384 -0.0942357 -0.629808
24.042 19.4379 21.5515 1.97116 -2.29957 0.381581
21.6813 18.0617 22.5721 -0.210239 -1.55152 -0.0129551
22.4846 23.2514 20.9273 -0.587754 -1.17231 -1.88137
21.328 22.3586 23.3421 -0.846938 1.65498 -1.12684
24.1108 21.939 22.5586 1.13296 0.723176 0.576016
24.6109 21.6875 20.0815 1.5581 0.366853 0.229051
22.8368 20.1749 23.7216 1.44945 -1.70936 0.255481
21.857 20.7995 21.2751 0.351043 -0.803763 0.55789
ITEM: TIMESTEP
9000
ITEM: NUMBER OF ATOMS
33
ITEM: BOX BOUNDS ss ss ss
1.6107612753583567e+01 2.4434078199267983e+01
1.6110827220542184e+01 2.3649221544315829e+01
1.6228328986612762e+01 2.3856402628916332e+01
ITEM: ATOMS x y z vx vy vz
18.595 18.0441 18.061 -0.55612 -0.289961 0.716445
19.3656 20.0769 16.3277 0.943176 -0.609786 1.4506
19.5788 22.5978 16.7754 -1.45505 0.904396 -0.20186
17.8309 20.6477 18.2781 -0.199549 0.95628 -1.32401
18.2391 23.074 19.4683 -2.31981 0.495623 -1.2784
20.5303 23.9891 18.9892 0.125482 -0.175355 2.07398
21.2681 18.4298 17.4903 2.36516 0.301896 -0.38895
22.8651 19.8125 18.8469 0.246967 -0.371278 -0.482505
20.5666 16.2567 18.7749 -0.162348 -0.851991 0.938927
22.8103 22.6639 18.4111 -1.42683 -0.777253 1.17947
20.5225 21.1515 18.7696 0.310543 0.448255 0.799472
21.9787 21.0639 16.4452 0.144851 -0.797278 -0.163971
20.1965 18.6837 20.1448 -1.67148 -1.27106 -0.268672
18.2567 16.4848 20.2487 -0.53885 -0.644653 0.47764
20.1249 20.0151 23.6825 0.513475 0.828475 0.333356
17.4261 18.9892 20.4827 -1.29434 0.347704 -1.46342
18.8897 17.9612 22.387 -0.635109 2.13407 -1.27205
17.1769 20.2864 22.9859 -0.505444 -0.167828 0.165947
19.6985 23.6977 21.5602 0.396612 -0.818183 -1.46622
19.0801 21.1171 21.1625 0.542257 -0.79856 1.91069
18.8524 22.2366 23.8357 0.638894 -0.237765 -1.1357
17.1719 22.9802 22.2603 -0.798017 -1.30057 -0.384975
16.2987 21.2501 20.4634 -0.256888 1.05597 0.83795
22.6237 17.517 19.9151 0.800888 -1.3831 -0.912764
20.6888 15.9987 21.2386 -0.483775 1.08426 -0.24308
23.953 19.229 21.3755 2.61589 0.0247329 1.18175
21.6073 18.0633 22.3574 0.373254 -0.458224 -1.49441
22.2592 23.4141 20.7803 1.03217 0.470986 0.397405
21.4573 22.4954 23.5962 0.923375 0.148216 0.492001
24.0275 22.1157 22.5821 0.846744 0.775503 -1.41064
24.437 21.5024 20.2685 0.198111 0.921849 1.00909
22.9151 20.3484 23.7844 0.216912 -0.854873 0.230185
21.7426 20.841 21.2854 -0.931136 0.909486 -0.303272
ITEM: TIMESTEP
10000
ITEM: NUMBER OF ATOMS
33
ITEM: BOX BOUNDS ss ss ss
1.6107612753583567e+01 2.4434078199267983e+01
1.6110827220542184e+01 2.3649221544315829e+01
1.6228328986612762e+01 2.3856402628916332e+01
ITEM: ATOMS x y z vx vy vz
18.6014 18.1471 17.9618 -0.124456 -0.106098 -0.891758
19.3491 20.1434 16.2919 1.69516 1.85119 -0.619761
19.5158 22.7321 16.9787 -1.53527 -1.93673 -0.995521
17.7226 20.6826 18.3188 -0.0692349 1.03558 0.363895
18.2725 23.007 19.3598 0.00478451 0.484571 1.00044
20.6974 23.9735 19.1062 -0.0544114 0.879671 -0.0154565
21.2295 18.6249 17.5538 1.00492 -1.87421 0.724966
23.1269 19.9785 18.6994 0.72819 0.0144728 0.832637
20.3428 16.2639 18.7733 -0.950998 0.290857 -0.759494
22.8449 22.5909 18.2927 -1.3176 -0.394013 -0.533215
20.547 21.0489 18.6978 0.0675715 1.58163 -2.15551
21.8155 21.091 16.3815 -0.699379 -1.42251 -0.527622
20.0856 18.6557 20.1451 1.31974 2.1608 0.054269
18.2866 16.3642 20.3923 1.62469 -1.40278 -1.21522
20.1509 19.9616 23.5624 -1.18791 0.503606 -0.711997
17.4113 18.9682 20.4233 0.922945 1.40845 0.931568
18.974 17.8574 22.5061 0.629693 -0.450984 1.11901
17.2618 20.2287 22.9101 1.62402 0.234932 -0.331192
19.6135 23.7641 21.6111 -0.695595 0.37972 -0.284419
19.1162 21.1588 21.1228 0.761328 0.599307 2.17276
18.7504 22.2514 23.7646 0.578579 0.54312 0.930017
17.1045 22.9632 22.0078 -1.50823 1.41203 -0.220511
16.2788 21.1751 20.5776 -0.68871 -0.668149 0.222425
22.3995 17.6017 20.0675 -0.533198 -0.36893 -1.07697
20.623 16.1118 21.3183 -1.11415 -0.430696 -0.988046
24.0325 19.2327 21.2581 2.7046 0.576784 0.851436
21.7738 18.0727 22.7395 -0.704224 -0.200624 2.19039
22.4597 23.4312 20.8538 -1.63692 -1.15025 0.596
21.329 22.4306 23.2624 -1.27119 0.503919 -0.34653
24.0028 22.0866 22.7701 -0.102014 -1.07418 -0.585039
24.559 21.7008 20.1384 -0.441167 -0.414413 -1.12548
22.7674 20.1237 23.9803 -0.662268 -0.778739 0.873159
21.9892 20.6107 21.208 1.6307 -1.78734 0.520759
ITEM: TIMESTEP
11000
ITEM: NUMBER OF ATOMS
33
ITEM: BOX BOUNDS ss ss ss
1.6107612753583567e+01 2.4434078199267983e+01
1.6110827220542184e+01 2.3649221544315829e+01
1.6228328986612762e+01 2.3856402628916332e+01
ITEM: ATOMS x y z vx vy vz
18.496 18.2113 18.1334 -0.486965 -1.92835 -0.110108
19.4777 20.0554 16.1526 -0.0738599 0.508531 -0.568632
19.7392 22.5543 17.0788 0.189263 0.134075 -1.1654
17.8185 20.8737 18.1662 -0.604207 2.67118 -0.616805
18.2774 23.1734 19.4302 -1.66297 -1.87873 0.0539137
20.6545 23.7518 19.3528 0.104329 0.806209 1.82376
21.1532 18.6492 17.5501 0.996367 0.351825 -0.552328
23.2348 19.9423 18.7616 0.758031 -0.15572 0.778235
20.3261 16.2697 18.9199 -0.624195 0.716501 -0.931907
22.6885 22.6029 18.3054 0.478788 -0.427222 0.363626
20.4754 20.9199 18.7427 -0.046221 -0.158708 -0.594311
21.9355 20.9162 16.4855 -1.27795 0.173276 0.137941
20.0161 18.5718 20.4759 -0.306925 -2.62811 0.147903
18.1503 16.4514 20.3063 0.502938 -1.00863 -0.724301
20.0596 19.8485 23.69 1.16677 -1.25269 1.08802
17.1059 18.8492 20.5078 -1.38133 -0.409518 1.98828
18.7593 17.7792 22.5872 -0.326018 0.679963 0.0515429
17.392 20.1531 22.825 0.0169338 0.873109 -0.650168
19.6911 23.7115 21.8853 -0.325059 -0.675717 -1.63914
19.0014 21.1473 21.0916 0.333982 -1.41743 -2.2844
18.7292 22.1629 23.7195 -0.0857548 -1.75779 -0.130237
17.0888 22.8659 21.9353 0.123569 0.263582 -0.168454
16.2061 21.1495 20.3296 -1.92698 2.22057 0.286136
22.5705 17.6526 19.8617 -1.23336 -1.06209 -0.689366
20.521 16.2405 21.3901 0.520053 0.446442 2.02514
24.2043 19.4572 21.376 0.178472 1.17893 0.741839
21.8259 18.3124 22.4786 0.697284 0.733122 0.368761
22.6009 23.5283 21.0667 0.4201 0.821796 1.2965
21.3272 22.3677 23.1528 0.846136 1.61661 0.358429
24.0892 22.0187 22.4837 -0.0625169 -0.0413139 0.826471
24.607 21.8624 19.9105 1.87388 -0.615879 0.263273
22.8467 20.1911 23.8151 0.0522609 0.616382 -0.913474
21.9657 20.7937 21.0672 1.16516 0.605813 -0.860737
ITEM: TIMESTEP
12000
ITEM: NUMBER OF ATOMS
33
ITEM: BOX BOUNDS ss ss ss
1.6107612753583567e+01 2.4434078199267983e+01
1.6110827220542184e+01 2.3649221544315829e+01
1.6228328986612762e+01 2.3856402628916332e+01
ITEM: ATOMS x y z vx vy vz
18.7025 18.2966 18.1102 -1.5651 -1.98845 -0.82702
19.2036 20.1883 16.0326 -1.91249 0.1379 -0.699828
19.5479 22.6806 16.9008 1.18961 0.653237 0.503181
17.6444 20.7224 18.2616 -0.810575 0.147925 -0.145914
18.1293 23.0461 19.3287 -0.551452 -1.43147 0.923988
20.4773 23.6722 19.1463 2.2753 0.303955 -0.0688747
21.1126 18.718 17.2612 -0.692655 0.111612 -1.2295
22.9557 19.6388 18.9518 -0.0698909 -0.301399 1.40841
20.5712 16.4616 18.6444 0.273338 0.347364 -1.45739
22.6028 22.34 18.5325 0.663684 1.55976 0.372445
20.2521 20.8612 18.7303 1.95226 0.417836 0.896966
21.8139 21.1171 16.4114 0.137731 -0.477686 -1.21931
20.2012 18.6647 20.3616 -0.890106 2.47986 0.249347
18.4471 16.3287 20.1824 -0.118689 0.384822 1.56731
20.0327 20.0222 23.3768 -1.17429 -0.23389 -2.39381
17.5053 18.9847 20.4886 0.831769 -0.265965 -1.35909
18.9416 17.8671 22.6796 -0.0821623 -0.964739 0.950864
17.2776 20.2744 22.8682 1.13835 0.123538 0.07431
19.9324 23.7151 21.7084 -0.911737 -0.474698 -0.335112
19.0287 21.1995 21.2206 0.658923 0.737724 1.61791
18.9102 22.2795 23.7969 -0.380579 0.137189 -1.45751
17.2942 23.0784 21.8345 -2.34782 -0.0417548 0.218751
16.2239 21.1774 20.4891 -1.86763 -0.210326 -0.12399
22.8287 17.4668 20.0598 0.765744 1.94314 -0.0666666
20.7303 16.2011 21.3258 0.169132 0.294308 1.74026
23.8656 19.343 21.4876 1.15213 -0.538391 0.303419
21.7901 18.0994 22.6972 0.774752 -0.747586 -0.694945
22.6192 23.4486 20.9358 -0.780613 0.334652 0.204688
21.5853 22.5146 23.3439 -0.174528 1.41305 -0.574701
24.0309 21.916 22.6478 0.248559 -2.09609 0.891516
24.4067 21.6989 20.1875 0.22589 -2.41755 -0.59475
22.698 20.1115 23.9824 0.969084 0.97555 -0.0508487
21.6718 20.9006 21.0491 0.904054 -0.313432 1.37591
ITEM: TIMESTEP
13000
ITEM: NUMBER OF ATOMS
33
ITEM: BOX BOUNDS ss ss ss
1.6107612753583567e+01 2.4434078199267983e+01
1.6110827220542184e+01 2.3649221544315829e+01
1.6228328986612762e+01 2.3856402628916332e+01
ITEM: ATOMS x y z vx vy vz
18.7834 18.2002 18.1402 -0.687053 -0.369801 0.180878
19.5014 19.9282 16.2738 0.986863 -0.161928 1.79158
19.5347 22.4935 16.6932 1.40829 0.328641 1.65251
17.9396 20.6178 18.4115 -0.0940341 -0.0134206 0.428498
18.2219 23.0405 19.3321 -0.0040398 0.123103 -0.415446
20.5144 23.7149 19.0143 1.04675 0.462545 0.720426
21.4116 18.515 17.5263 -1.19192 -0.257741 0.721767
23.2503 20.0117 18.6952 -0.399246 0.807664 -0.0421184
20.5829 16.2206 18.7132 -0.970255 -0.435983 -1.15555
22.6307 22.6169 18.2787 -0.50371 0.696045 2.11479
20.5432 20.9102 18.8477 -0.00505623 -0.136904 -0.894718
21.7751 20.9694 16.4605 0.227264 0.458519 0.0390917
20.0899 18.5606 20.224 -0.278799 -1.3061 1.13023
17.9503 16.4857 20.2746 -0.0864097 1.14003 -0.297162
20.1325 20.034 23.373 -0.193088 0.0253315 -1.30474
17.331 19.037 20.5247 -0.233133 -1.00261 0.891359
18.6695 17.7076 22.532 0.896416 1.09831 1.03041
17.4868 20.2354 22.9554 0.0138444 0.55107 0.851077
19.6314 23.9605 21.7396 0.684442 0.194138 0.247569
19.0719 21.3552 21.0736 -0.248862 -1.78355 -1.01697
18.8554 22.4399 23.8989 0.252397 -1.66529 -1.34477
17.2611 23.0744 22.0932 0.572473 -0.846068 -1.67177
16.3794 21.4146 20.6103 1.26916 0.194696 -1.82185
22.5332 17.7097 19.8171 -0.848317 0.233708 0.871164
20.4535 16.1338 21.264 -0.891969 -0.89426 0.113748
24.0488 19.4876 21.3835 -0.494721 2.28872 -2.22114
21.8236 17.9727 22.4364 0.411055 -0.593426 -1.03346
22.2261 23.463 21.0215 -1.39747 1.27672 -1.43971
21.4643 22.4777 23.2643 0.566005 -0.0777997 -0.758786
24.1096 21.7463 22.6958 -0.517348 -1.12531 0.544144
24.2715 21.9347 20.3066 -1.44829 -0.214145 0.438705
22.8419 19.9085 23.9094 1.64521 1.18085 1.12028
21.7142 20.6574 21.2504 0.513554 -0.175764 0.529983
ITEM: TIMESTEP
14000
ITEM: NUMBER OF ATOMS
33
ITEM: BOX BOUNDS ss ss ss
1.6107612753583567e+01 2.4434078199267983e+01
1.6110827220542184e+01 2.3649221544315829e+01
1.6228328986612762e+01 2.3856402628916332e+01
ITEM: ATOMS x y z vx vy vz
18.6303 18.0753 17.9524 3.37493 -1.26854 -0.107126
19.0904 20.0906 16.1761 0.238632 0.673114 -0.762134
19.2837 22.5219 16.9596 -1.25433 -2.26951 0.743053
17.6463 20.5648 18.3192 0.552283 0.583234 1.06519
18.2388 22.9746 19.4434 -1.02612 -0.573978 0.735653
20.6748 23.8431 18.9367 0.362134 0.55509 -2.03329
21.1967 18.6899 17.3018 -2.7952 -0.336492 0.212936
22.8913 19.888 18.9483 1.08295 0.330157 0.444434
20.7478 16.3796 18.7615 -0.606799 0.948534 0.0206395
22.6816 22.5089 18.4165 -0.839876 0.945293 2.04798
20.3592 21.0758 18.677 -1.41052 0.17048 0.141217
21.7034 21.0432 16.3987 -0.825949 -0.495332 0.469774
20.3352 18.6062 20.0547 0.837705 -0.830526 0.226255
18.2781 16.5516 19.9949 -1.16166 -0.582283 0.986851
20.1869 20.1655 23.7659 1.15987 0.324974 -0.833058
17.3188 18.8852 20.3777 -0.584258 -0.365192 -1.64683
18.8815 18.1527 22.3198 0.600026 -0.601341 0.584907
17.1046 20.453 22.9882 1.55439 0.429387 0.769825
20.1249 23.3317 21.4603 0.439591 0.290309 0.986832
18.901 20.9051 21.2027 0.202469 1.88606 -0.506752
19.0644 22.3109 23.7257 1.2159 1.33398 -1.20964
17.4885 23.034 21.9635 0.914163 0.685337 -0.715166
16.2126 21.2763 20.5123 1.44958 0.0543048 -1.07358
22.8157 17.5244 19.9749 -1.01847 -0.328547 -0.348269
20.4232 15.966 21.3195 1.09978 0.0547055 -2.88777
23.8868 19.3348 21.7073 -0.0749011 0.149994 1.69014
21.7706 18.1093 22.3459 -1.36078 0.200369 -0.419353
22.6764 23.5544 20.9202 -2.03544 -0.782116 -0.669322
21.5193 22.6027 23.5043 0.999114 -1.06257 0.950203
23.9933 22.0166 22.9104 0.00779332 1.404 0.0509458
24.4098 21.6375 20.2649 -0.22906 -0.232465 1.55618
22.7851 20.0883 23.9922 -2.19188 -1.07981 -0.308068
21.7138 20.8733 21.4386 1.32392 -0.210614 -0.162645
ITEM: TIMESTEP
15000
ITEM: NUMBER OF ATOMS
33
ITEM: BOX BOUNDS ss ss ss
1.6107612753583567e+01 2.4434078199267983e+01
1.6110827220542184e+01 2.3649221544315829e+01
1.6228328986612762e+01 2.3856402628916332e+01
ITEM: ATOMS x y z vx vy vz
18.2766 18.0388 17.8749 -0.0508747 -1.38067 -1.57242
19.4046 20.081 16.1936 -0.106893 -2.21568 -0.795129
19.5456 22.5312 16.9562 0.552679 -0.187705 -1.41289
18.048 20.533 18.4016 -0.431733 2.52425 0.0289064
18.215 23.0509 19.3137 -0.107116 -0.279082 -0.72947
20.8329 24.0788 18.663 -1.64897 2.42592 0.953929
21.065 18.8005 17.7014 -1.47747 -0.206938 0.522145
23.1542 20.0743 18.8156 -0.424244 -2.94785 0.987917
20.7492 16.3467 18.8843 0.452442 1.22586 -0.317545
22.8804 22.712 18.1605 -1.98035 1.57945 0.0243189
20.6287 21.237 18.9719 -0.66775 0.966234 0.999199
21.6721 21.173 16.4326 -0.0965845 -0.377824 -1.40459
19.838 18.6033 20.175 0.115791 -0.754728 -0.352946
18.3904 16.3001 20.0574 1.1506 -1.10198 -1.2477
20.0777 19.8429 23.5094 -0.430478 -1.083 0.626699
17.1919 18.8329 20.4295 -1.47562 -0.523906 -0.0380249
18.5241 17.8861 22.3953 1.54831 0.419583 -0.178935
17.1798 20.4354 23.0337 -0.595463 -0.305917 -0.110715