ITEM: TIMESTEP
0
ITEM: NUMBER OF ATOMS
33
ITEM: BOX BOUNDS ss ss ss
1.7044796976508792e+01 2.4342477643051257e+01
1.6994607239987499e+01 2.4162238920508770e+01
1.7416871163116266e+01 2.4349647136045487e+01
ITEM: ATOMS x y z vx vy vz
20.0881 16.9987 19.1437 1.3706 0.386906 0.968788
20.9196 18.9897 17.961 1.07555 0.164456 -0.151323
20.053 21.6888 19.7063 2.06671 -0.94412 -0.393567
19.5105 23.2602 21.5208 -0.168046 1.63285 -1.68728
19.8016 22.9347 17.421 -1.90399 1.38101 0.455158
17.1938 19.1185 21.4803 0.656889 0.304522 -1.15347
19.5934 22.6283 23.6207 1.2813 0.938074 0.379968
23.527 21.8919 19.3965 1.58998 0.546308 0.436981
23.1293 19.7683 17.8736 -1.41363 1.32431 0.868487
21.9939 21.9252 23.4008 0.0827702 0.520163 0.126046
21.7244 23.5803 18.9753 -1.6 -0.446326 0.511227
18.6512 18.4699 17.6587 0.993797 -0.386346 -0.191216
18.8764 17.0821 21.3698 1.06439 -0.19194 0.559804
17.5449 17.6394 19.5376 0.255328 -0.408203 1.24388
17.8457 21.5528 20.9822 0.536416 -0.203548 -0.379044
20.179 20.9086 21.7936 -1.0311 0.945205 -1.09851
19.3452 24.1582 19.5254 1.10549 -0.329695 0.911393
17.9706 20.7586 23.2098 1.14118 -1.04813 1.23277
23.3544 18.3809 21.5839 0.160894 -0.600979 0.364173
17.7009 22.4146 18.7825 2.27885 -0.534284 0.614286
23.6734 20.996 21.7898 1.0772 0.496742 -1.14966
19.3971 18.6955 22.8025 -0.662481 2.10202 -2.71527
21.9294 19.4295 22.9236 -0.497881 -0.115911 -0.32299
17.0489 20.0134 19.0863 1.18031 0.37318 1.25511
19.4271 19.4483 20.0991 -1.48182 -0.864896 -2.4246
24.3384 19.6096 19.8627 0.161263 0.342836 1.17161
19.0813 20.6463 17.5854 -0.489039 -1.46758 -0.0742888
21.1175 17.7626 21.2429 -2.88482 -2.10271 -0.465798
22.575 17.7207 19.263 -2.26113 -0.460478 -0.547673
21.6136 21.3803 17.7064 -2.03945 0.379762 -0.341378
21.8697 22.7197 21.1744 -1.87568 -1.38962 1.24928
21.74 20.118 20.2097 1.3538 -0.535196 0.255733
20.2207 20.3453 24.3456 -1.12365 0.191622 0.491369
ITEM: TIMESTEP
1000
ITEM: NUMBER OF ATOMS
33
ITEM: BOX BOUNDS ss ss ss
1.5879949198812584e+01 2.4027465846088170e+01
1.6056145522427705e+01 2.4657028620731730e+01
1.6390467589977664e+01 2.3893803020627480e+01
ITEM: ATOMS x y z vx vy vz
20.0344 17.2029 20.869 -6.79342 2.90414 7.447
22.2471 18.0803 17.9795 5.66682 -2.33464 0.498073
19.3873 21.9395 19.9178 -3.13075 -4.08171 -6.26885
18.0272 24.9165 21.9855 -1.24858 3.79045 1.59783
20.1081 23.4497 17.1017 -3.6185 1.51666 -2.43522
15.9504 17.5881 22.3351 -1.92121 -0.714126 4.56244
20.0731 23.1321 22.5724 0.392188 0.325469 -0.900992
24.0769 22.4236 18.7363 -1.12574 0.565777 2.04831
23.34 20.0136 16.5525 -3.76162 5.48448 4.46497
22.5637 22.5009 23.6382 -1.58418 -2.89646 3.01655
22.4182 24.6842 17.7435 6.70827 0.63371 -1.24668
19.7598 20.0249 18.2313 4.69622 3.64331 0.0342877
17.5083 16.0308 21.3945 -0.133378 -3.38396 -0.666526
16.9448 17.5517 19.8221 -0.399176 0.263238 -1.02689
17.1031 22.6275 21.0248 -3.26142 -3.76895 0.0751204
21.3999 20.3909 21.6107 2.22844 0.804841 -1.51066
19.2976 24.4691 19.8141 -2.33469 -1.56712 0.521723
18.8995 20.9192 22.9671 6.10884 -0.869493 -2.77837
22.6271 18.1579 20.9439 0.0618914 -3.04915 7.94029
16.9431 22.1963 18.1828 0.726473 0.377434 -2.21247
23.4345 19.9341 22.9232 2.46925 -0.21736 1.16742
17.9734 18.1033 22.7451 -2.45109 2.50127 -0.750578
23.4614 16.4455 23.7707 -1.21032 -4.93075 -3.5282
17.0111 20.317 19.3569 2.85499 1.00782 4.36977
18.9809 19.5247 20.7838 0.657242 -0.744835 1.25551
23.6896 22.7149 21.2488 -2.08326 2.57779 -1.1049
18.6451 21.3898 16.844 -4.73749 5.65926 -3.704
21.088 16.001 22.33 1.69524 -5.70993 1.4973
22.6807 16.1915 19.4083 -0.603233 -2.59838 1.62606
21.6009 21.5703 17.567 -0.209829 1.61893 -2.42022
21.6075 23.8152 20.0147 -1.18457 4.23033 -6.61222
23.074 20.3437 19.3829 5.63188 0.03332 -2.81189
21.0784 18.3844 23.2369 1.89473 -1.07136 -2.14399
ITEM: TIMESTEP
2000
ITEM: NUMBER OF ATOMS
33
ITEM: BOX BOUNDS ss ss ss
1.6334450364443999e+01 2.5107415316776102e+01
1.4232267478491369e+01 2.5172695350097737e+01
1.6344437676504054e+01 2.3285198752275491e+01
ITEM: ATOMS x y z vx vy vz
19.3382 16.4433 22.6094 -1.52432 -1.78618 -4.9912
16.1826 16.9141 22.6237 -2.45435 -0.603712 2.26561
21.9487 17.9517 19.7218 -1.93919 -1.02431 1.5288
17.2344 14.8175 23.2093 1.32997 -0.0891052 0.492017
16.9381 14.6497 20.9748 2.33076 -2.7352 2.01943
17.5786 19.6541 21.4641 -3.43248 -2.84876 -0.520539
17.0483 17.3499 20.1822 4.13535 -1.86302 -0.88754
19.15 19.6356 19.0437 -0.991604 -0.644545 -4.32244
24.0411 20.1456 19.3169 -6.60047 1.6683 -0.750251
21.4892 20.2559 18.2949 0.570264 1.02821 1.19769
22.4278 21.1816 20.8994 5.78068 0.255039 -2.21287
23.2678 18.5748 21.6759 -0.855542 -0.0303106 -1.031
24.2197 20.9444 23.0656 -2.45976 2.50026 -0.531513
21.4867 16.0216 21.1557 2.87477 -4.03382 -3.786
20.0449 14.7221 22.2404 -3.54254 7.81143 -1.14936
19.1339 16.8662 19.8572 -0.703281 -4.97924 5.66281
25.3909 22.6996 20.4555 4.88216 6.32228 1.68328
20.7996 18.9481 21.4417 -1.66173 -0.516383 0.822634
19.7445 21.975 18.5093 -2.82358 4.5357 -3.47659
19.7035 23.6909 23.404 4.13159 -1.30068 1.6545
17.1342 21.366 19.5226 -1.94342 -1.00447 -3.97228
18.7031 23.8075 21.2016 -0.678613 4.6245 5.05908
19.2528 21.6357 21.3657 0.0991037 0.972843 2.66061
17.2952 23.0968 18.0066 0.0219431 -1.4468 -3.95334
19.5019 24.5179 16.8276 3.57886 -1.86728 0.497538
18.1032 25.2333 18.5992 -1.15653 1.90886 0.596247
22.0321 24.1317 21.1526 4.55279 -0.888351 0.456829
22.4613 22.7536 18.4066 -1.26701 2.15834 0.0303597
21.6741 21.8939 22.8989 0.379238 2.72173 -4.11465
23.8572 21.3534 17.3333 -1.42757 -6.9706 4.69097
24.3337 23.2497 22.2136 0.946995 0.286387 1.26838
20.8256 22.3708 16.3089 -1.93332 0.509775 -0.673897
20.692 24.183 19.0523 1.78082 -2.67089 3.78668
ITEM: TIMESTEP
3000
ITEM: NUMBER OF ATOMS
33
ITEM: BOX BOUNDS ss ss ss
1.6093103438829754e+01 2.5202791744605346e+01
1.4599491079168706e+01 2.4984250295318891e+01
1.7218199390699830e+01 2.4480750708135723e+01
ITEM: ATOMS x y z vx vy vz
18.1491 18.0593 21.9244 -2.12515 0.0548453 -3.36174
17.6231 14.7345 21.5365 5.92529 3.58957 -0.394282
19.5059 18.1849 24.3867 -1.0693 3.87448 -3.13571
17.6627 16.1384 19.6464 0.644307 -0.566779 -1.09593
17.3141 20.2115 21.0868 1.89994 3.75057 -3.57867
16.2543 17.9779 20.2872 3.30817 2.6854 -2.39403
18.8248 18.881 19.2291 1.57722 -0.228265 3.62676
19.3103 15.9853 22.372 1.59839 -0.143883 0.684874
20.626 17.8959 20.5156 -2.80686 -0.182596 -4.29711
19.5245 19.9446 22.6521 -1.70859 0.672468 1.63723
21.5394 16.4375 18.5404 -2.75014 0.4073 -0.117976
22.9929 19.1326 20.8515 0.612481 0.55765 -1.57876
23.2024 16.9115 20.2563 1.04928 0.658456 0.692343
19.0045 22.0412 17.2109 -2.38049 3.04903 0.456161
20.2288 23.6755 22.0906 1.7634 3.02188 0.90475
15.7752 20.2884 18.2085 -6.55103 -1.09942 0.584647
17.6493 23.4483 21.7186 -3.35223 -7.31863 -2.36834
18.7589 22.0766 23.1893 -0.557758 0.56274 2.51043
18.4317 24.8336 17.7938 0.59857 -4.52081 1.02906
21.1007 23.7882 17.4402 -6.4402 -2.11282 4.95462
17.1025 22.0986 18.5717 -1.15092 -1.51046 0.208537
23.3199 22.1253 17.2146 0.849369 -1.32572 -0.576256
19.5495 23.9604 19.5349 4.06506 3.12623 -2.02833
22.9557 18.6606 18.1529 -1.15338 -2.03757 0.379997
19.489 21.5156 20.2152 2.02843 3.20159 -0.336201
24.5931 21.1806 18.6472 6.66092 -1.24613 1.19524
24.3001 21.0123 22.5462 2.02172 -1.56002 1.45051
25.0988 22.2537 20.7417 -2.26389 -1.47476 -2.27348
22.9514 23.6163 21.7874 -2.17968 -2.35086 -2.54405
22.0611 21.9434 20.1382 2.93286 -1.44805 3.12736
21.9945 21.0003 22.8292 -1.38795 0.0655989 5.11898
20.9039 20.1611 18.5676 -1.16685 -0.459684 2.73251
25.2372 22.86 23.1514 1.50904 0.30866 -1.21315
ITEM: TIMESTEP
4000
ITEM: NUMBER OF ATOMS
33
ITEM: BOX BOUNDS ss ss ss
1.5657038602554127e+01 2.6074180073857633e+01
1.6182145506623915e+01 2.4668612162451513e+01
1.7676802253898078e+01 2.2987984801936982e+01
ITEM: ATOMS x y z vx vy vz
15.6402 17.7003 22.2769 -9.31061 -2.18245 2.41699
19.1993 16.598 20.6373 -2.66708 3.7377 -4.9247
18.0986 17.8882 22.2606 2.7743 -3.42877 -2.43813
18.8078 18.4593 18.6616 1.99311 1.74597 0.997923
16.3751 17.2394 19.299 -1.44545 0.124078 4.23667
17.2896 20.167 18.0027 1.70509 -2.52716 2.11751
23.5375 17.3075 22.1286 3.61721 -1.57628 4.16536
21.2736 18.4337 20.2239 2.55099 1.43674 0.257197
22.7131 17.9815 18.0052 3.13856 -1.35427 4.20529
23.4939 19.2897 20.7495 1.0309 -1.9654 0.521434
22.4248 16.195 20.4201 -2.36315 -1.43373 -3.42461
24.9132 16.9937 19.4858 -3.65851 -2.85958 2.59104
16.8768 20.0117 22.8972 6.99077 4.34824 -0.243401
18.5882 20.3042 20.9148 1.30445 -0.515577 -0.591469
18.168 22.4803 17.5938 -0.732431 7.15489 -1.46212
15.6701 19.7049 20.3951 2.79981 2.65089 0.683844
18.759 24.6632 21.1726 -0.553391 0.430069 -1.55206
17.9252 22.493 22.1753 -0.140289 -3.88097 -6.69251
17.8334 24.7623 18.5755 0.676106 1.08946 1.63886
16.8756 21.9422 19.8394 0.44985 -0.184718 3.51177
20.5433 24.5434 18.8408 -3.37268 2.28228 1.27199
19.6033 22.4355 19.9502 -0.339618 0.430466 -2.27334
20.3353 22.0871 22.974 3.04029 -4.91077 1.65152
21.6749 22.7652 17.724 1.89792 -2.42126 -4.34415
23.4697 20.6457 18.7228 -0.544622 4.99641 0.0910881
26.1223 19.0455 20.0014 1.51267 1.99089 0.775365
22.5266 20.6849 23.1952 -1.90261 -0.342187 -0.967872
25.5582 21.1271 19.7737 0.857127 2.47751 -1.25952
22.7741 23.3263 22.9223 -1.08522 -1.20912 -0.554104
22.0668 21.9126 20.7048 -3.1306 1.12786 2.01626
19.9379 19.441 22.8808 -0.726543 -2.04585 1.87044
20.3208 20.3074 18.4944 0.563379 -2.69802 -1.50877
23.6388 24.0982 21.1359 -4.92971 -0.487352 -2.78379
ITEM: TIMESTEP
5000
ITEM: NUMBER OF ATOMS
33
ITEM: BOX BOUNDS ss ss ss
1.5239798095887545e+01 2.6065510724831917e+01
1.6036222864086966e+01 2.6218326513461879e+01
1.7049538085556577e+01 2.4777541509872208e+01
ITEM: ATOMS x y z vx vy vz
15.3568 20.3146 20.1014 1.9015 4.10034 2.14382
21.7224 15.899 18.928 2.89474 -4.00724 -4.85577
16.8039 17.9841 22.8136 -1.69126 -1.15741 -0.216985
20.0336 18.0674 19.7449 -3.31086 -4.01502 2.33546
16.6814 18.3055 20.2812 2.27141 1.48317 6.58959
18.0541 20.0459 19.6633 0.347252 -0.281989 -2.18806
18.5529 19.1879 24.7372 -1.57583 -1.98033 -1.28803
19.5113 18.5072 22.0185 1.71652 -0.618694 0.828474
17.0113 20.1975 22.091 -1.26846 2.11258 -1.50436
20.2065 17.7748 24.3739 3.72693 -0.4273 -0.773125
20.8185 19.2802 17.2677 1.19049 2.87763 -0.283029
22.5113 18.2885 23.9406 -4.67844 0.71977 4.74331
21.2309 16.5157 22.0216 -6.28742 -2.00202 1.16323
22.3679 18.0816 19.6981 3.84023 3.82557 4.87649
24.3872 19.7082 20.9478 0.757251 -1.06429 0.073261
20.4901 17.0908 16.9228 -0.229992 -2.85848 -2.63178
24.224 17.2537 21.7983 2.76343 2.31267 -1.85307
26.1199 20.556 19.6699 1.17396 0.696677 2.41721
17.9659 23.9918 17.8959 -1.12382 3.04882 -0.0778866
21.0578 25.1673 19.4429 3.73603 2.83787 1.29112
19.765 23.2306 20.0408 3.4147 -0.256242 -3.87992
17.4316 24.606 20.1701 1.49092 -1.32085 -2.10851
16.6208 22.0978 19.6877 -0.798753 -1.77275 3.60072
19.0773 25.9458 18.5965 -1.96623 -6.53625 2.53287
19.4162 21.8855 17.8719 2.29676 -0.0800144 -0.362214
19.693 20.8645 23.1745 0.561661 -0.0678197 -0.583275
20.8447 23.9448 17.1293 -0.593063 0.834335 1.40259
23.1087 20.591 18.6822 -4.12052 -0.931402 -2.55234
22.0001 19.7635 22.1091 -0.620005 -0.498176 -2.45631
24.5967 22.2062 20.6785 -4.76532 -0.79498 -1.08945
21.9751 22.0863 21.4907 -2.18909 4.97001 -2.68636
20.5887 20.5552 19.8757 2.36519 1.9522 -3.91838
22.8094 23.0398 19.1695 -1.22992 -1.10038 1.3107
ITEM: TIMESTEP
6000
ITEM: NUMBER OF ATOMS
33
ITEM: BOX BOUNDS ss ss ss
1.6367720553129281e+01 2.4820309327319631e+01
1.5096251557049309e+01 2.5292854439994464e+01
1.7405330976022000e+01 2.4363272340689413e+01
ITEM: ATOMS x y z vx vy vz
16.896 20.1844 20.7653 0.0872449 1.60088 2.93688
18.1471 18.1362 22.6083 -1.58482 0.310401 -0.835574
20.0819 17.5119 18.7584 -2.86106 -1.43781 -2.79475
17.854 17.1088 20.3261 1.14667 1.84772 4.71827
18.7035 19.6137 18.993 4.32876 0.90538 -3.49671
19.516 19.8295 24.3492 0.0392584 0.529805 -1.38811
20.2172 19.7753 21.1901 4.19491 5.01036 -3.34191
17.6312 22.7019 22.0773 1.76244 -0.180647 -2.47672
18.8397 16.2703 23.7544 -0.0106044 -3.50521 -0.390274
22.0291 16.4275 17.4411 6.1129 -0.368576 1.42324
20.1087 15.0587 19.4292 -2.29483 -0.118159 2.39384
21.3404 19.2517 17.6868 -3.0072 2.97838 -3.14825
20.653 17.9239 23.9306 0.834802 -3.38379 3.77128
20.0187 16.5419 21.241 -3.34869 1.74997 -3.16878
22.4302 17.9687 19.6679 3.7417 -0.0334043 -2.75687
24.4563 20.0933 20.7654 3.43676 -2.49679 3.51798
23.4903 17.558 22.098 -2.1977 3.32281 1.04406
24.803 22.4718 20.0535 -0.232031 -0.646746 0.0702316
23.6459 19.6459 17.7362 2.17964 -0.319372 -3.83911
22.474 19.626 22.9072 -1.98651 1.76194 -0.12138
22.2933 20.6783 20.0403 -0.0716505 -4.7689 2.3881
16.9592 24.0575 17.9586 -0.725056 0.693913 0.0619488
20.1529 22.606 20.3911 -3.42163 -2.41886 -1.71365
17.9463 24.2699 19.9663 1.73693 0.212647 -0.125814
16.4526 21.9279 19.5349 1.14247 0.957817 2.75245
20.5073 25.4328 19.8412 2.56006 1.6718 -2.35256
18.5619 21.8126 18.0227 -0.116707 -2.57161 1.73674
20.029 22.5031 23.1175 -3.52998 -3.48031 2.85726
19.5148 24.517 17.8232 -2.78735 4.12597 1.10828
22.62 23.0061 18.9865 -3.94006 1.15517 -1.56248
22.613 22.5015 21.9068 0.190059 1.60348 1.0573
21.1314 24.2083 21.9173 0.0693885 0.762449 -0.823808
20.917 21.8147 17.7498 -1.44809 -5.47072 2.49888
ITEM: TIMESTEP
7000
ITEM: NUMBER OF ATOMS
33
ITEM: BOX BOUNDS ss ss ss
1.7570456547754208e+01 2.3708270670265165e+01
1.5147939097296344e+01 2.5575232375148040e+01
1.6062532507061540e+01 2.5249184078499582e+01
ITEM: ATOMS x y z vx vy vz
18.5289 20.4689 20.7708 1.24386 -0.00292528 1.01933
19.2493 18.2142 23.8396 3.0526 2.31611 -1.75572
19.1917 16.0828 17.8392 -5.30904 -1.31029 -6.34269
19.7792 17.6874 21.1391 -1.20322 1.8599 -4.00747
19.5002 18.6774 18.6828 0.518993 -4.51076 0.318648
20.6237 18.7922 25.1848 -0.721751 0.481787 -1.14891
20.1874 20.4807 22.46 -1.83171 -1.29946 2.25187
20.622 15.0693 19.9503 0.159748 -2.44011 -0.0686066
17.5141 16.345 19.1523 -1.1091 5.06257 2.24764
22.666 16.41 21.0125 3.24663 -1.22041 2.93367
21.7855 17.2571 18.8838 0.149292 3.17093 3.35842
20.366 17.9418 16.0846 0.810377 0.499555 1.02333
20.5273 15.9215 22.3525 -0.209203 -3.91994 0.29816
23.7716 18.4064 21.6335 3.48102 -0.833239 0.0335923
22.8205 20.7591 23.015 -3.08699 2.36619 2.4988
21.8584 18.2983 23.0339 4.8633 -4.21189 3.52498
22.5256 19.5612 17.2568 -2.76568 2.58679 0.412362
21.1229 21.3961 24.772 -2.44424 -0.0930052 2.08221
18.3723 22.9034 22.0638 -0.970582 -1.75386 -4.48492
17.9073 25.0049 17.4936 -0.884586 -1.09555 -1.69614
20.3616 21.7358 19.7552 1.59959 2.11647 -0.223422
18.1237 25.478 21.2893 -1.81223 -0.613472 2.33223
18.2531 23.4613 19.1837 2.49825 3.65739 0.119292
18.3412 21.0698 18.4124 3.04863 -2.55731 -3.04365
20.3481 23.4111 23.6535 0.439835 0.113252 -2.93043
20.0433 23.2381 17.2141 -0.364171 -1.19975 1.37479
22.1099 22.1201 18.1522 0.0212973 -0.918115 -4.97522
21.9876 19.2963 20.232 -1.23547 -2.57255 2.37689
19.723 25.6539 18.8476 0.850797 2.40096 2.86234
21.7718 24.3041 19.7003 -2.79279 2.58789 -0.836456
22.0982 22.3971 21.558 3.12084 1.32025 -0.439338
20.5181 25.1485 21.9058 1.09362 2.51921 2.15177
20.4356 20.0434 16.5101 -3.4579 -2.50663 -1.26738
ITEM: TIMESTEP
8000
ITEM: NUMBER OF ATOMS
33
ITEM: BOX BOUNDS ss ss ss
1.7622086968116989e+01 2.4023339525067687e+01
1.4635478722643617e+01 2.6043528921995861e+01
1.5920271072539746e+01 2.5600206176469612e+01
ITEM: ATOMS x y z vx vy vz
19.1039 20.0649 20.155 -1.37213 -0.925499 4.21715
19.3683 18.0599 16.4452 -0.572742 1.44648 0.650257
17.6839 18.8563 17.717 2.58718 -0.63035 -1.53292
20.3013 15.0695 20.6318 1.90362 3.64068 -0.330481
18.8018 16.5955 19.1417 -2.48173 -3.47843 -1.06638
22.8137 18.8393 18.9159 1.12851 0.87633 4.70132
20.9607 16.2871 18.5363 1.02663 1.24006 -4.7203
20.4935 19.4979 18.2322 -1.27335 3.78675 0.68001
22.3849 20.5621 21.5147 -1.25083 4.66777 1.03112
20.0352 21.3149 15.8444 0.262186 0.24607 0.665132
19.74 25.3073 18.9101 1.03342 -1.58455 -0.444664
20.0026 22.558 20.0412 -4.32275 -1.12039 2.27798
17.8836 23.8674 19.1716 -2.71905 -3.52077 -1.53548
18.2695 21.6473 17.8701 0.0458754 0.436091 2.54186
18.6907 23.5436 15.9362 -1.86135 0.797821 1.89997
22.3879 21.2641 17.4998 2.66877 -2.83064 -2.50297
19.4072 26.0158 21.3466 3.11556 0.302854 -0.286497
20.6655 23.0156 17.7421 -2.40203 2.28917 -1.30752
19.5594 17.7335 25.0148 -0.356334 0.374233 0.827013
20.8951 18.2434 20.7613 0.864686 2.02093 -0.493375
20.4063 19.8192 25.6837 -2.74289 3.8931 1.64981
19.9608 19.6299 22.729 0.429064 0.0335275 -1.02357
22.4996 16.2206 21.3532 0.386884 0.688793 2.56062
20.2427 16.5091 22.5125 -0.68936 1.54766 -0.379802
23.9144 18.0129 21.2147 0.0324158 -0.876041 -4.72189
22.1866 17.7739 23.48 0.680129 -5.36704 4.95322
22.4926 20.2924 24.0255 1.20179 -0.245273 -2.42433
18.6892 21.3191 24.5335 -0.493402 -1.96291 -1.6427
18.3825 21.3673 22.059 -0.0315553 0.476905 -1.57502
19.1346 23.907 21.9235 1.21863 -0.0790231 0.427925
21.0032 22.1399 22.852 -1.90353 -3.11411 0.512663
22.5669 22.7568 19.7394 3.52215 -1.24013 -3.18115
22.1072 24.9433 19.5012 2.36551 -1.79005 -0.426969
ITEM: TIMESTEP
9000
ITEM: NUMBER OF ATOMS
33
ITEM: BOX BOUNDS ss ss ss
1.7406182687958211e+01 2.4400920567470560e+01
1.5555403914817669e+01 2.6055578165024926e+01
1.5546253012963357e+01 2.5193062014295329e+01
ITEM: ATOMS x y z vx vy vz
18.3229 18.7188 20.12 2.26951 -2.59538 1.27796
20.1604 18.5706 15.9007 0.870499 0.629605 -2.2507
17.9319 18.6853 17.2098 3.02114 -2.43971 -0.536044
21.8473 15.8635 19.6514 2.59516 3.75132 -0.710369
19.973 16.8013 18.0346 -1.40048 2.20604 2.64489
24.3923 18.0974 20.942 -0.67954 -3.02959 1.86005
22.3843 17.7187 17.9882 -3.58735 -3.66782 1.89505
20.1807 19.3712 18.4859 -4.1421 0.4343 -0.281986
21.5862 18.4182 20.373 -0.289076 4.42275 0.421364
18.2411 21.6787 16.7214 -0.486205 -2.66575 -2.94222
19.8562 24.2345 19.9648 2.45679 -1.8788 1.48332
19.6855 21.5336 19.8626 1.28525 -0.197882 0.426017
17.8083 24.0644 21.4418 -1.79197 3.33766 5.07263
17.5608 20.8013 18.9915 -4.33116 -0.152789 -1.30112
17.7264 23.7528 18.7177 -0.493262 1.07912 1.0926
20.2524 21.1188 15.2692 -1.49577 0.0619057 -0.440042
20.5297 22.484 17.4931 1.74021 -1.87276 1.67378
22.4366 20.7857 18.7319 -0.962097 -1.07544 1.27387
22.3136 22.8587 20.2118 -0.948397 2.52645 3.22382
20.6294 19.3015 25.263 2.59662 1.32269 -2.46035
19.694 22.0354 24.0025 -1.06683 0.555714 0.732795
19.8213 20.1688 21.9435 -1.08666 1.97677 1.73544
23.2264 16.5578 21.8063 1.79749 -2.00265 -0.872031
20.0023 16.3466 21.3227 1.91969 -0.536267 -3.60682
23.2799 18.4693 23.6075 -4.94065 1.90622 1.01897
20.9781 17.5881 23.2572 1.47328 -0.325091 -1.93892
22.1263 20.7706 23.5916 -2.12184 5.2383 -3.29408
23.2848 20.33 21.5048 0.0493498 -2.79389 0.771097
21.5695 25.2105 21.6081 1.91991 1.29239 0.283727
18.0449 19.9087 23.5283 0.158565 -3.91293 -4.37166
17.3729 21.6525 21.9502 1.8711 0.349957 0.524587
19.3469 26.1185 21.3985 0.786947 0.506881 -2.55188
20.4689 23.0192 22.1396 3.01187 -2.45132 0.146243
ITEM: TIMESTEP
10000
ITEM: NUMBER OF ATOMS
33
ITEM: BOX BOUNDS ss ss ss
1.7210101474250752e+01 2.4342525389639196e+01
1.5055344113590442e+01 2.5827712261780103e+01
1.6385667710898083e+01 2.4082468632205710e+01
ITEM: ATOMS x y z vx vy vz
18.7045 17.5075 17.1574 -2.5348 1.11031 2.70429
17.7054 19.7319 16.5226 -0.456544 -0.773439 -1.99828
23.5306 17.0844 18.9191 -0.186739 -0.232436 5.38334
19.6288 16.6327 19.5748 -1.91605 -4.72688 3.32477
21.163 17.6981 17.3505 -1.70788 -3.30891 0.948018
19.6742 19.6706 18.7678 1.5168 1.20075 -0.427823
17.3093 20.797 19.19 0.830633 -0.205529 -2.1342
23.1164 19.7761 18.5947 0.883353 -0.623424 -4.10766
19.0209 22.1612 17.1074 1.8708 2.13806 1.96161
20.0104 24.0554 20.3007 -1.46109 0.641704 0.894825
20.2384 21.5395 20.5156 -2.42726 -0.58154 3.55995
18.2892 23.1895 18.6193 -0.361005 0.272891 0.194624
20.4249 19.9694 16.3276 -0.0735664 -0.137945 -2.00862
21.568 21.692 17.8177 -3.46414 -2.25558 -3.82241
18.9527 18.8886 21.2578 1.84712 1.05615 -2.54504
24.4618 18.8296 20.7914 0.334196 -0.656893 3.79793
21.6017 18.4327 20.2583 5.77883 1.29888 -1.93675
18.6894 18.0992 23.6852 -3.44572 -2.26922 -3.69956
20.5132 19.8115 23.0988 -1.13066 -1.49597 -2.81268
23.1542 16.5155 21.5339 6.59937 0.153703 1.6208
21.7438 15.2338 20.1575 -0.999637 3.0586 -1.94259
22.8987 18.5028 23.063 0.819503 -1.6499 -2.29347
20.5453 16.953 22.2587 0.458308 -1.70142 0.168564
22.1939 22.8378 22.4536 -3.03529 -1.24738 -4.36378
22.666 20.6025 21.3666 0.18583 0.124038 -0.967205
17.2464 20.1491 23.5429 1.42023 3.96294 -1.58577
17.5415 24.6254 21.242 -1.5166 -2.22818 -0.176197
22.5157 23.4882 19.36 -1.11125 0.808928 4.59399
18.8003 21.7674 24.3158 -0.541519 -1.37487 2.95759
21.9258 25.1529 21.3538 3.57006 -0.0587458 -0.614931
17.9879 21.8764 21.7893 0.708078 2.94036 2.47452
19.1456 25.9231 21.6952 -0.640312 4.72866 1.60913
20.0671 23.8398 23.0457 0.186934 2.03228 1.24303
ITEM: TIMESTEP
11000
ITEM: NUMBER OF ATOMS
33
ITEM: BOX BOUNDS ss ss ss
1.7535693074697136e+01 2.3880424885671761e+01
1.5102814228950022e+01 2.6705767757583626e+01
1.6098011746983286e+01 2.4396037836830544e+01
ITEM: ATOMS x y z vx vy vz
18.6855 17.641 17.9301 -1.04266 0.43161 -0.214721
18.2246 20.1477 16.3863 -2.18233 -0.478663 1.31579
23.6634 16.0963 18.7461 0.448689 -1.56776 1.67041
19.344 16.5695 20.5887 -0.175921 2.3136 0.448493
21.0808 16.4534 18.2907 -1.21715 0.330787 1.7442
20.2089 19.9154 18.0979 0.319142 -1.44242 -0.349326
17.7809 21.3719 18.4944 1.45272 -3.20288 -1.8066
22.8362 18.4661 17.4263 -1.17779 0.744421 0.700598
20.4365 17.9114 16.0693 3.65077 2.4253 1.44332
21.1292 18.3877 19.9915 -1.2002 -2.58287 0.425514
21.6579 15.6453 20.9222 1.36043 4.6092 0.265319
20.013 22.0679 17.0394 -0.966793 1.89374 0.425381
17.5029 23.6118 20.0781 -2.16413 -0.61431 -0.74144
22.7588 20.9996 18.2375 2.67451 -0.339107 -0.680965
22.1151 23.5671 20.7316 -0.501193 4.19221 1.79602
18.5091 19.0427 19.9762 -0.124568 -1.52205 -1.56166
23.7688 19.2388 19.6125 1.16095 0.792 -5.59187
18.416 18.0241 22.3789 -3.39003 -0.733432 -0.358751
20.5941 19.8436 22.2333 2.81452 0.265346 0.00450035
23.4948 16.9183 21.1525 -0.0500892 -1.13632 -0.497117
23.1051 19.3812 22.7531 -0.820767 -4.85685 -2.44839
20.9538 17.3761 22.5836 -0.104045 0.48631 1.52577
22.5603 21.3925 20.813 -0.50434 2.29839 3.11305
18.0578 19.508 24.1458 0.138407 0.896735 -0.525958
20.0625 24.8933 20.2015 3.89873 3.73022 -2.89836
19.7479 22.233 19.7425 -0.607932 -3.44267 3.92627
21.0135 22.5255 22.9464 0.339634 -5.28264 -1.58815
17.8438 25.9096 22.5147 0.601821 2.51403 0.562462
19.3256 21.2482 24.4737 0.826444 1.59367 0.235029
21.3594 24.9815 22.7119 -0.948184 0.359942 -2.47215
18.215 21.1211 21.9676 -2.08226 -2.48178 0.398566
19.924 26.9505 21.5642 -0.754528 1.6468 1.83578
18.6457 23.595 22.2335 0.328165 -1.84057 -0.101024
ITEM: TIMESTEP
12000
ITEM: NUMBER OF ATOMS
33
ITEM: BOX BOUNDS ss ss ss
1.7041275093927542e+01 2.4413126628765500e+01
1.6155653457670088e+01 2.7566392078678629e+01
1.6081780431071422e+01 2.4244460408485285e+01
ITEM: ATOMS x y z vx vy vz
19.0443 18.2049 18.2465 1.96936 3.86859 -2.10101
18.5485 20.9727 16.4388 1.26666 -2.86399 -1.08019
23.6601 17.1439 18.4402 -5.12409 2.06548 1.68083
20.8003 16.8265 17.9665 3.13424 -2.15373 -3.46928
20.6196 20.7393 17.9566 0.133426 2.32856 0.700646
17.919 20.742 18.8287 -1.2273 -0.707871 3.4255
22.3043 19.0643 17.4061 2.03063 0.260568 0.59156
19.8187 19.0484 16.0895 -1.74531 1.45203 0.064059
21.2001 18.7232 19.9957 -1.30609 -2.79722 -1.59198
23.1432 20.5568 19.5159 5.613 -2.48072 -0.302775
18.2549 19.0076 20.8916 -1.81519 0.343052 0.800242
24.2706 18.8288 20.5769 3.77715 -3.66165 -1.58488
19.2055 22.8803 18.6897 0.0874218 2.75683 1.90891
17.0598 22.6302 20.1553 0.74083 0.627091 4.03202
19.5478 25.4579 19.3183 -1.70736 1.01479 0.306443
20.1721 20.9751 21.0554 0.475527 -1.289 3.33514
18.967 16.4709 20.2473 1.76693 -3.15386 0.231019
22.1101 16.1333 20.3498 0.0124765 -1.72262 -2.25502
17.7506 16.6827 21.9426 -0.0757546 -0.842489 2.46169
21.3297 20.2299 23.7782 0.702804 -1.32962 1.24354
24.4134 16.2181 21.1 0.129542 1.92854 -0.153783
22.5839 18.1516 22.5513 0.319818 1.10275 -0.00986362
20.5491 16.9879 22.4606 -1.62847 0.150319 0.981125
22.793 20.9642 22.0187 1.20112 1.52394 -0.811825
18.4881 18.9097 23.4154 0.101345 -2.58317 1.06043
17.9035 21.2061 22.092 -3.70502 -0.199127 -2.69356
21.6111 22.8501 19.8522 -0.110151 0.212271 -0.45324
20.8563 22.6002 22.7996 -4.10152 2.12884 -1.3755
18.6848 26.0311 21.7102 1.19238 0.69256 -0.717945
19.1792 21.3764 24.2304 -3.22464 0.482121 -0.556405
21.1454 25.1706 21.2516 0.329283 -1.88645 -1.00665
20.1212 27.6186 20.3389 1.93205 3.79744 -3.62089
18.9798 23.6316 21.3245 -1.1451 0.935732 0.961627
ITEM: TIMESTEP
13000
ITEM: NUMBER OF ATOMS
33
ITEM: BOX BOUNDS ss ss ss
1.7091904633930124e+01 2.5138750074377352e+01
1.5881700483263026e+01 2.7105723186068516e+01
1.6127923673365242e+01 2.3828584235203554e+01
ITEM: ATOMS x y z vx vy vz
18.7122 18.4788 18.877 0.0718587 -0.556124 1.25814
20.1141 18.8832 16.5122 1.79823 -0.039118 0.223787
18.9824 16.0053 20.0257 0.0409899 -0.109866 -1.40293
23.4102 17.7982 19.1365 -1.25742 -0.438097 0.762978
20.8107 16.6756 18.166 -0.412519 1.99214 0.767898
22.6869 19.0066 16.9977 -1.48293 2.34403 1.31287
18.7879 20.798 16.167 0.626338 -0.810744 1.50326
20.9566 21.117 17.8682 2.22213 0.12756 -0.427184
18.5949 21.1621 18.849 1.35332 -1.25391 -0.50627
19.4395 23.4326 19.9434 -0.570788 1.69526 1.48157
23.2892 20.5084 19.292 0.441743 -1.13363 -1.21325
17.5454 25.4716 20.7838 0.0481077 1.01188 1.7153
18.2249 18.9111 21.1846 2.71663 0.406248 3.22065
17.5681 16.4087 22.0923 -2.69409 3.21218 -1.32352
20.1908 17.5452 22.431 -1.24416 0.225178 0.300466
18.577 18.3081 23.8335 -3.81068 -3.09292 0.479825
21.1101 18.9036 19.707 -0.891147 -0.792094 -0.494964
24.9839 18.825 20.6895 -3.40083 2.01456 -2.59461
21.8577 16.115 20.5484 -1.2092 4.13377 0.299317
24.5302 16.0077 20.6061 2.41536 -0.409005 0.851069
22.6177 18.277 21.6699 1.94172 0.237268 -1.22811
17.0865 23.197 19.554 -1.64448 1.27774 0.304175
20.0319 21.0428 21.1797 2.38875 2.81589 1.82879
17.4382 21.1457 21.1014 -1.34724 -0.353036 -0.0314846
19.0123 20.972 23.7386 0.23658 -1.06098 -2.18836
21.0984 19.8145 23.2988 3.6364 -0.131447 -1.90648
22.9536 21.0696 21.7767 3.08476 -2.2111 2.22447
22.074 23.131 20.1112 2.70377 -0.579766 -1.47201
21.4147 22.9831 23.0954 -0.544921 -2.20618 0.509384
19.7621 26.9647 20.8178 -1.14 -0.956124 -1.10757
19.9697 25.6199 18.9435 -0.327798 -4.57357 -2.76169
18.6661 23.4409 22.4954 -2.98297 0.489791 0.84399
20.537 25.0151 21.5416 -0.765547 -1.27577 -1.22951
ITEM: TIMESTEP
14000
ITEM: NUMBER OF ATOMS
33
ITEM: BOX BOUNDS ss ss ss
1.6605723128890659e+01 2.4790933508879025e+01
1.5302709427548375e+01 2.6451029954731410e+01
1.6953749510246308e+01 2.3849554784853002e+01
ITEM: ATOMS x y z vx vy vz
18.2579 17.5172 18.5598 -5.49062 -0.922417 0.447641
19.2753 19.5191 17.2321 -1.4365 -1.41026 -1.8291
19.1401 15.5264 19.7127 -2.88311 2.04608 -1.63051
18.3636 21.7586 16.95 1.97008 -1.90141 -0.65794
17.6492 20.1965 19.075 0.67919 -2.32698 0.853604
19.5082 18.9418 20.8659 1.95853 -0.17145 0.509148
17.6698 16.2984 21.5866 -1.96594 -0.234544 1.86873
19.8606 16.4091 22.3504 0.969457 -2.12084 -0.591007
18.1777 18.5396 22.9799 1.97039 -1.35889 -1.09086
19.7673 21.709 21.0209 -0.183908 2.05386 -2.14867
17.2919 20.5151 21.7008 -0.0735765 -1.5709 9.59858e-05
18.7849 21.3788 23.4555 -0.837776 -0.245707 -2.73374
23.8897 18.226 19.0378 -1.55824 -1.55668 -0.207515
21.1414 17.53 18.421 1.69294 -1.6895 0.0384725
22.1675 19.5095 17.1033 3.13693 1.66298 0.91916
20.851 21.6468 18.0446 0.598306 4.1126 3.23255
24.2178 20.6408 19.1182 -0.52623 1.66768 1.52771
21.8058 19.8003 19.8544 0.338421 3.8366 0.731877
24.8041 19.4125 21.1387 -1.82304 0.635371 0.0263979
21.8782 16.3657 20.3101 1.0678 0.621012 1.06346
24.3731 16.7553 21.1295 1.48247 -0.694831 -0.526419
22.4696 18.1355 21.9772 -1.05311 1.52345 2.41259
20.9092 19.8293 22.9505 -2.54967 -1.91014 -1.0889
22.9793 21.1909 21.644 2.69675 3.8123 1.64936
17.8028 22.797 19.1856 -1.70197 -0.368018 -3.18984
18.7666 24.8985 20.1207 -0.163636 0.295345 3.14665
16.8809 23.028 21.5869 3.31003 1.45474 4.10985
21.2112 26.1236 19.6777 3.48042 -1.14527 -1.96695
20.484 24.232 18.6801 -3.61915 -0.091838 0.984124
18.5236 24.3874 22.6675 -2.21947 0.862284 -1.91214
20.8352 24.5244 21.7286 1.8623 -3.67056 -0.146181
22.2167 23.1314 19.9812 -1.65225 0.691226 -1.55077
21.081 22.5602 23.1877 2.52418 -1.88528 -2.25088
ITEM: TIMESTEP
15000
ITEM: NUMBER OF ATOMS
33
ITEM: BOX BOUNDS ss ss ss
1.6140547394385830e+01 2.4461569952190754e+01
1.6234061219995528e+01 2.4987160455028210e+01
1.6538488043589176e+01 2.3568819675986820e+01
ITEM: ATOMS x y z vx vy vz
18.2135 18.0113 18.4285 0.800468 1.0226 2.80637
19.5467 19.3248 17.1241 0.427677 0.463823 -1.11765
19.2987 16.0037 19.8252 0.912606 1.34516 3.46423
18.3407 20.7958 18.8245 0.347812 -1.84197 -2.03367
20.2015 18.7309 20.0969 -1.67312 -1.33383 -1.08715
17.2744 17.2398 21.0678 -0.407777 -0.34074 -1.88036
19.7593 17.2273 22.4733 4.56088 -0.674145 -1.45792
17.8273 18.9385 23.299 -0.649255 0.0219337 1.30831
17.5938 19.6232 21.0902 -2.71205 -0.11208 3.18013
20.4568 20.2172 23.0414 -1.58234 2.69272 -2.62386
23.5971 18.2528 19.3373 -0.121852 1.37155 -2.87977
20.8012 17.3297 18.2324 -2.0633 0.781085 -0.412759
22.2001 19.9832 18.1454 1.25587 1.53636 0.31127
24.6833 20.8922 18.9647 1.84541 2.33576 1.93983
22.5327 20.199 20.7303 1.70237 -1.10169 1.73349
24.9351 19.2665 21.3676 2.41976 1.39972 1.10138
21.7104 16.6091 20.4435 -5.34969 -0.0326893 1.23085
24.1126 16.792 21.5955 -0.216931 0.911187 0.285413
22.1614 18.1816 22.5332 -1.19778 1.02937 -1.40294
18.1983 22.2613 16.6836 1.06496 -0.492983 0.763255
19.9873 21.695 20.9607 -4.39971 -4.38997 0.792684
17.9618 21.479 23.2026 1.258 -0.0581631 -0.594936
20.6759 21.9435 18.3086 -0.563923 -0.710641 -3.57691
16.3641 22.8533 18.7421 -1.36236 1.61681 2.38525
18.3097 24.279 20.555 -0.267869 -1.92088 1.3228
16.9157 22.4575 21.3757 -0.304077 -0.148632 -2.20978
18.3782 24.0714 17.8493 1.34747 1.07128 -1.85094
19.4924 23.0465 23.7141 1.79314 -2.41799 -0.725894
24.8508 21.938 21.228 3.28331 -1.47069 0.300167