ITEM: TIMESTEP
0
ITEM: NUMBER OF ATOMS
33
ITEM: BOX BOUNDS ss ss ss
1.6877676466673854e+01 2.4567829665701943e+01
1.6053245839501891e+01 2.4338770456185514e+01
1.6766837863587362e+01 2.4205027242406057e+01
ITEM: ATOMS x y z vx vy vz
18.133 18.4041 17.4422 1.14124 -0.31315 0.146729
19.7071 16.3703 17.9848 0.85625 0.199004 -0.918751
18.2523 19.3964 24.2009 -1.09189 1.27641 1.15377
20.3593 16.0573 20.5425 -1.07159 -0.516108 0.79889
20.0932 18.768 19.58 1.19489 0.34321 -0.973624
16.8818 18.9754 21.8552 -0.38374 -0.359129 0.0191159
19.3278 17.7551 22.2915 -1.17538 -0.829559 -2.2407
17.5416 20.1238 19.4239 0.125095 -0.125496 1.48556
17.8824 17.2699 19.9433 -1.708 0.0283249 0.0194834
22.0865 18.1221 21.411 1.59816 0.615024 1.10414
22.1759 16.971 18.8251 1.93704 0.504166 0.634035
20.8656 18.6761 16.9593 0.995865 -0.579452 -0.112068
24.4607 19.5306 20.7944 -0.965629 1.41522 -1.30254
20.9313 19.568 23.6726 1.48729 0.740556 1.23165
22.6946 19.5857 18.794 -1.87174 -1.34002 1.19813
23.5468 19.6472 23.2904 1.61079 -0.0893071 0.175512
19.9526 21.6357 19.2623 -0.291546 1.59402 -1.85611
17.5691 22.5651 18.085 -2.12653 0.944242 0.412345
19.1745 24.3347 19.4373 0.865556 0.85688 0.124609
19.4456 21.871 24.0568 1.01937 0.030285 0.543809
19.8915 23.4188 17.0057 -0.284651 -0.623869 1.06749
20.2125 23.1125 21.7032 2.24121 -0.416487 0.346858
17.6171 22.5797 20.7854 -0.978267 1.9795 -2.76182
16.9442 21.4009 23.0888 -0.368083 -1.65304 0.00978709
19.1815 20.4645 21.7188 -2.98167 -2.17946 -0.347735
19.1549 20.7893 16.7709 -1.48651 -0.0974371 0.539947
24.5638 21.8298 22.1688 2.12812 -0.441816 -0.764185
21.7775 23.6606 18.9833 -0.334879 0.569816 -0.160711
21.9844 20.8962 21.1961 0.565796 0.0913055 -0.594018
21.7948 21.5247 17.1992 0.982182 -0.40432 0.681258
22.831 23.6745 21.4518 0.849423 -0.635895 0.829885
23.8458 21.9713 19.5008 -0.130412 -0.415183 0.18064
22.1547 22.0847 23.6096 -2.34775 -0.168244 -0.671375
ITEM: TIMESTEP
1000
ITEM: NUMBER OF ATOMS
33
ITEM: BOX BOUNDS ss ss ss
1.6877676466673854e+01 2.4567829665701943e+01
1.6053245839501891e+01 2.4338770456185514e+01
1.6766837863587362e+01 2.4205027242406057e+01
ITEM: ATOMS x y z vx vy vz
18.2045 18.5097 17.6076 -0.524097 -0.762404 -0.127862
19.8752 16.504 18.0078 0.00327288 0.722614 -0.180383
18.1706 19.4525 24.2385 -1.11235 0.988626 -0.827183
20.2239 16.1463 20.5892 -1.37051 0.536324 0.155081
20.3517 18.8265 19.5273 -0.377788 -1.19009 -0.797004
16.9748 18.7138 21.9036 -1.56033 -0.704995 1.02194
19.3515 17.7344 22.4586 -0.00950886 -0.472176 0.0691231
17.5238 20.1973 19.5002 -0.0978947 0.601491 -0.462837
17.9051 17.4245 19.923 0.652923 -1.55705 0.771434
21.8741 18.0829 21.6564 0.706761 0.0598825 -0.0600074
22.4543 17.1998 19.0867 0.776154 0.0155084 2.27635
20.9136 18.8241 16.8521 -0.137823 1.19628 -0.590485
24.2692 19.3328 20.6742 -1.35999 0.688282 -1.08998
20.7766 19.6526 23.7944 1.48507 0.0596406 -0.669613
22.8723 19.6772 18.5523 0.114947 -0.00225001 0.946555
23.3857 19.6312 23.2756 1.08169 -0.139756 -1.39482
19.9751 21.7376 19.2436 0.502966 0.253535 -1.33204
17.6304 22.4031 18.1199 -0.124552 1.44129 -0.106638
19.049 24.3753 19.4399 -1.42342 -1.79557 -1.64623
19.2308 21.9747 23.6998 1.06287 -1.28091 0.96675
19.7313 23.4333 17.1058 -0.00161169 -0.643751 1.75466
20.2895 23.2779 21.66 0.601719 0.668923 2.12942
17.8863 22.5854 21.107 0.420592 1.17629 -1.30104
16.8607 21.2688 22.8653 -1.0286 -0.189716 -0.421396
19.1684 20.2296 21.7904 -0.756571 0.0183287 1.4208
19.196 20.806 16.9036 1.19261 0.380699 -0.779722
24.5704 21.5734 22.019 -0.171289 -0.268239 -0.318647
21.7968 23.6408 19.049 1.11486 -0.126403 0.181337
21.8819 20.8397 21.1604 -0.284029 -0.459719 0.307328
21.7908 21.63 17.0706 -0.270246 -0.497654 -0.388556
22.9044 23.4867 21.3738 -1.47551 0.265572 0.763245
23.829 21.8338 19.2803 1.18726 0.743102 -0.333701
22.1171 22.0295 23.499 1.18242 0.274304 0.0641241
ITEM: TIMESTEP
2000
ITEM: NUMBER OF ATOMS
33
ITEM: BOX BOUNDS ss ss ss
1.6877676466673854e+01 2.4567829665701943e+01
1.6053245839501891e+01 2.4338770456185514e+01
1.6766837863587362e+01 2.4205027242406057e+01
ITEM: ATOMS x y z vx vy vz
18.1161 18.385 17.4294 0.230061 -1.12443 0.0879399
20.0943 16.5245 18.0399 0.49824 0.494729 0.349091
18.29 19.4095 24.2172 -0.860115 0.692487 2.67038
20.4353 16.128 20.6872 -0.75347 0.53974 -0.0921382
20.2287 18.7341 19.5939 -0.256137 -1.01817 -2.21398
16.9519 19.0517 21.8028 -1.62083 -0.296505 1.2426
19.1463 17.8421 22.2917 -0.587658 0.176261 -1.03709
17.7266 20.1539 19.3323 0.308058 0.384042 0.382009
17.9231 17.4352 19.8557 -1.10128 0.414525 0.284188
21.7956 17.9352 21.8296 0.863461 1.39284 -0.157893
22.4842 17.253 19.1067 0.260976 -0.178659 0.613064
20.8431 18.84 17.0842 1.58983 -0.601615 0.247304
24.1839 19.2071 20.7418 -0.278483 0.56144 -0.375663
20.9299 19.5364 23.8881 0.79571 -0.744989 0.106996
22.8056 19.8021 18.4955 -0.174877 0.145231 -0.185507
23.4195 19.5942 23.2085 0.230542 1.07545 -1.55607
19.9494 21.6924 19.1708 -0.0876392 0.00492796 -0.0934755
17.5375 22.456 18.1856 0.748108 0.763037 -0.707075
19.3559 24.3191 19.4923 -0.566197 -0.343679 0.648754
19.2632 21.8949 24.011 -0.202284 -0.257538 -0.185318
19.6964 23.3742 17.0919 -1.59617 0.475162 -0.233945
20.3626 23.134 21.5012 -0.0110773 -1.15327 1.0216
17.685 22.4365 20.9555 1.89324 -0.216711 -1.43315
16.8312 21.3434 23.0305 0.441972 -0.171915 -0.0393439
19.2378 20.3992 21.7598 0.839333 -0.845799 -1.37347
18.8816 20.7559 16.8522 -0.222549 1.212 0.898986
24.4706 21.5927 21.9056 -0.865999 -0.924329 -1.08706
21.7563 23.6547 19.1014 0.213307 -0.157816 0.514474
21.9642 20.7935 21.0326 -1.1412 0.190083 0.345842
21.8276 21.7214 17.2485 1.86921 -1.25711 0.366263
22.9411 23.6509 21.3103 -1.23297 0.0720008 1.26039
23.9234 21.9991 19.3841 0.428954 -0.26346 -0.271383
21.9772 21.9848 23.3975 0.347944 0.962034 0.00269145
ITEM: TIMESTEP
3000
ITEM: NUMBER OF ATOMS
33
ITEM: BOX BOUNDS ss ss ss
1.6877676466673854e+01 2.4567829665701943e+01
1.6053245839501891e+01 2.4338770456185514e+01
1.6766837863587362e+01 2.4205027242406057e+01
ITEM: ATOMS x y z vx vy vz
18.3957 18.3022 17.3878 0.154215 0.147229 1.08064
19.9792 16.4074 18.1248 -0.553743 0.619803 -1.83156
18.2226 19.3661 24.1753 -0.243108 0.223428 0.240732
20.1549 16.1525 20.5815 -0.145086 -0.392893 0.598707
19.9645 18.8384 19.8301 -0.981703 -0.698836 0.20788
16.8441 19.2639 21.682 0.167194 0.0200389 0.301929
19.2474 17.7794 22.4076 -0.671185 -0.0964027 0.252249
17.6777 20.1671 19.2283 0.995897 -0.321191 -0.806319
17.8963 17.2415 19.7093 1.23257 -0.243889 -0.213836
22.0193 17.8483 21.668 -0.280773 0.185942 -0.544777
22.2636 17.2637 19.1194 0.242924 0.884149 1.84349
21.0145 18.8082 17.1264 0.0698583 0.57366 0.507343
24.2482 19.3497 20.6757 1.43225 -0.173497 -0.0579971
20.8753 19.4883 23.753 0.374985 -1.00631 0.70027
22.9472 19.8083 18.5474 -0.608546 0.788547 0.677422
23.5774 19.561 23.1313 -0.691068 0.289156 -1.20719
20.0211 21.6451 19.2265 0.236992 -0.0183493 0.480143
17.6077 22.441 18.055 0.366927 -0.619609 -1.83853
19.0635 24.1319 19.4397 -0.0958741 0.798193 1.58262
19.4318 21.8919 24.1118 0.0615014 0.264034 1.81592
19.8295 23.3892 17.1441 0.98077 -1.31848 0.498284
20.0512 23.1819 21.7033 1.07896 -0.131485 0.028961
17.4587 22.4054 21.0305 -0.998197 -0.0325367 1.79433
17.0522 21.7105 23.2068 -1.22257 0.477134 -0.922354
19.2583 20.5559 21.8811 -0.679424 -0.164675 -0.922441
19.2222 20.7503 16.8591 -0.765927 0.501165 -0.558044
24.6564 21.5767 21.8644 0.985639 -0.740469 -0.520054
21.7419 23.7919 19.112 -0.408479 -0.539029 -0.00578855
21.9419 20.7603 21.0335 0.163108 0.979396 -0.797914
21.7997 21.6729 17.2406 0.601509 -0.0502957 -1.30725
22.8284 23.4292 21.3371 -1.84215 -0.655443 -0.056046
23.7191 22.1608 19.2477 0.176966 -0.563511 -0.103589
22.0235 21.8941 23.3937 0.865569 1.01502 -0.917238
ITEM: TIMESTEP
4000
ITEM: NUMBER OF ATOMS
33
ITEM: BOX BOUNDS ss ss ss
1.6877676466673854e+01 2.4567829665701943e+01
1.6053245839501891e+01 2.4338770456185514e+01
1.6766837863587362e+01 2.4205027242406057e+01
ITEM: ATOMS x y z vx vy vz
18.3955 18.3764 17.5101 1.13314 -1.15062 -0.0680878
20.4209 16.6829 17.9845 -0.919655 -0.523947 -1.33692
18.1841 19.5063 24.1816 0.974348 -0.880192 -1.00274
20.352 16.2533 20.5417 0.25176 1.30837 0.107403
20.3238 18.8583 19.5342 -1.14808 0.0677429 0.00607392
16.7243 18.9786 21.8468 0.609696 -0.559874 1.18098
19.056 17.6721 22.4722 0.840377 -0.249619 -0.327085
17.478 20.0955 19.4871 0.334584 1.06844 -0.583467
17.9683 17.4702 19.9243 0.796471 0.401813 -0.247744
21.8984 18.1439 21.7188 0.932096 0.258883 0.230312
22.6139 17.0981 19.2536 -0.339859 -1.1763 0.15178
20.9549 18.9296 16.788 0.101897 -0.875905 1.10959
24.2126 19.1895 20.6954 0.411378 -0.130726 -2.14038
20.7731 19.7336 23.8217 -2.24425 -0.232217 -0.582578
22.8854 19.3646 18.3814 -0.981752 0.45625 0.429795
23.4493 19.6011 23.2614 0.826358 1.60145 1.69373
19.8672 21.8227 19.3737 -0.114101 -0.578709 -0.946433
17.5303 22.5058 18.2607 0.0762656 -0.683579 0.620103
19.3253 24.3782 19.513 1.20472 0.998844 -0.811611
19.2212 21.9068 23.8678 -0.88737 0.289456 0.11122
19.6927 23.375 17.1747 1.21823 1.26339 -0.213013
20.4631 23.2036 21.6913 0.418132 0.461105 0.967893
17.6971 22.5449 20.9614 -1.4632 0.656131 2.58383
16.7629 21.2494 23.0365 -0.964791 0.877572 -1.23074
19.1415 20.3676 21.6421 -0.813174 -1.57749 1.05632
18.9853 20.7102 17.072 -1.0336 -0.67883 0.547822
24.3996 21.4899 21.8625 -1.41933 -1.10188 -0.79126
21.8319 23.8737 19.0456 1.53838 0.62649 2.19333
21.8697 20.7825 20.9428 0.740741 -1.29226 0.521644
21.7169 21.5692 17.3001 1.16476 -0.64743 0.350484
22.9517 23.5289 21.3423 -0.47988 0.456928 -1.20958
23.767 21.8477 19.2158 -0.687502 1.03065 -0.664384
22.1212 21.9253 23.3301 -0.0767914 0.51606 -1.70631
ITEM: TIMESTEP
5000
ITEM: NUMBER OF ATOMS
33
ITEM: BOX BOUNDS ss ss ss
1.6877676466673854e+01 2.4567829665701943e+01
1.6053245839501891e+01 2.4338770456185514e+01
1.6766837863587362e+01 2.4205027242406057e+01
ITEM: ATOMS x y z vx vy vz
18.064 18.5594 17.7701 0.971083 1.60059 -0.811264
20.0787 16.6658 18.0186 0.335055 -0.273091 -1.53471
18.0744 19.5414 24.19 1.05598 1.47964 0.396386
20.3781 16.1047 20.5658 0.870268 0.00148115 0.153749
20.1228 18.8459 19.6069 0.2791 -0.322362 -0.00843105
16.9199 18.5518 21.8569 -0.375335 0.119183 -0.602455
19.3527 17.642 22.5059 -0.364972 -0.527389 0.170829
17.4458 20.213 19.6643 -0.611028 0.634579 0.555836
18.0442 17.257 20.0572 -0.516898 1.30732 0.399196
21.872 17.946 21.6858 0.747427 -0.854984 -0.050501
22.3626 17.1731 19.2855 -1.23181 -0.176665 0.414744
20.8526 18.9561 16.9713 0.903432 0.521947 0.702862
24.1284 19.3379 20.7621 0.79649 1.60139 -1.0495
20.7276 19.6138 23.9908 0.915992 -1.14243 -0.660737
22.7783 19.839 18.4741 1.67003 -0.998603 -1.67153
23.3282 19.5332 23.1575 -0.634727 0.498275 -0.265562
19.9577 21.4729 19.0268 -0.0806916 0.478394 0.338008
17.6645 22.6185 18.3729 -0.627207 -1.34452 -1.05881
19.2733 24.4056 19.4516 1.27003 0.0276325 1.03867
19.1044 21.9684 23.7899 -1.40993 0.506755 0.188831
19.8629 23.5312 17.1583 -0.779475 1.10916 -0.57967
20.3837 23.2252 21.5409 -0.753689 0.358504 -0.634148
17.9283 22.5612 21.0007 -1.05436 -0.815245 -0.157028
16.8002 20.9277 22.5385 1.45172 -0.250521 0.179495
19.3369 20.4475 21.8872 -0.427924 0.164836 1.5871
19.002 20.8314 16.6863 -0.663032 -0.974911 0.524115
24.5374 21.5275 22.0618 -0.892371 -1.64073 0.719454
21.7435 23.5616 19.0989 0.86876 -0.612261 -0.553995
22.0151 20.8926 20.8975 -0.572977 1.66183 2.56736
21.8103 21.7062 16.9729 -0.775043 -1.49794 -1.61035
22.9765 23.5216 21.3194 -0.232221 -0.153725 -0.206318
24.0299 22.0401 19.3457 -0.459987 -0.415202 1.02849
22.0779 22.0158 23.323 0.328308 -0.070919 0.489907
ITEM: TIMESTEP
6000
ITEM: NUMBER OF ATOMS
33
ITEM: BOX BOUNDS ss ss ss
1.6747564082084232e+01 2.4537142825881915e+01
1.6075318299685261e+01 2.4046815902300725e+01
1.6183398268448052e+01 2.4022828119189402e+01
ITEM: ATOMS x y z vx vy vz
18.2988 19.2355 17.8558 -0.371372 1.85927 -0.258399
19.7553 16.8034 18.1064 -1.08139 0.907964 -0.902393
20.2481 18.7235 19.868 0.20808 0.845023 -0.473545
17.9635 17.5021 19.8692 0.224427 0.464609 0.0662605
22.4997 17.5848 19.0197 0.846247 -0.983453 -0.373658
20.7185 18.9953 16.9805 -1.23199 -1.99739 -1.0507
16.7878 20.1048 20.0667 1.03874 -0.32347 -0.423158
19.9202 21.2809 18.8174 2.16225 -0.616265 0.193688
17.514 21.9632 18.1555 -0.0230689 -1.04877 1.83769
19.2602 24.1039 19.2514 0.683686 0.437759 -0.589162
19.7583 23.5241 16.8908 -0.622639 -1.25556 -0.391454
19.1529 21.0473 16.1463 -0.313841 -0.470436 -0.806088
22.635 20.2597 18.6641 1.38724 0.0887718 -1.03
22.0436 23.0163 19.1252 0.634907 2.15477 0.53524
21.5999 21.6503 16.6033 -0.381901 1.64246 -0.587458
24.3789 21.8272 19.7945 -0.658689 -0.497014 0.600563
18.3257 19.565 24.0993 1.0868 0.236846 2.3262
20.5255 16.0771 20.5732 1.76555 0.513623 -0.627552
16.888 18.7193 22.048 -0.543346 -1.13773 1.83012
19.339 17.6647 22.4125 -0.511973 -0.207634 -0.143437
22.0321 17.8176 21.8462 -0.571526 -0.526815 0.377544
24.1214 19.2601 20.8019 1.31301 -0.951318 0.608042
20.9125 19.5679 23.6103 0.413748 0.625814 1.18352
23.546 19.6613 23.2858 -0.338139 -0.025028 0.113808
19.3049 21.8447 23.9352 -0.342375 -0.168817 1.64583
20.2787 22.9601 21.5571 -1.07803 -0.463169 -1.30868
17.8052 22.6553 20.7 1.0661 1.7669 -0.544184
16.819 21.2327 22.8887 -1.67427 0.590222 -1.35206
19.0624 20.3859 21.5557 -1.10885 -0.54999 0.39369
24.5547 21.7148 22.2207 0.508713 -0.222769 0.665358
22.0758 20.8799 21.0919 -0.619218 0.425568 0.0601416
22.8321 23.5315 21.573 -0.958173 -0.48525 -0.00520955
22.0772 21.875 23.6208 -0.908703 -0.62871 -1.57056
ITEM: TIMESTEP
7000
ITEM: NUMBER OF ATOMS
33
ITEM: BOX BOUNDS ss ss ss
1.6747564082084232e+01 2.4537142825881915e+01
1.6075318299685261e+01 2.4046815902300725e+01
1.6183398268448052e+01 2.4022828119189402e+01
ITEM: ATOMS x y z vx vy vz
18.107 19.2497 18.0893 0.478848 -0.78485 1.74683
19.7305 16.9181 18.1805 -0.141665 1.88924 -0.16495
20.4115 18.7978 19.8645 -0.205565 -1.94355 -1.53074
17.9141 17.4047 19.9747 1.06527 1.13548 0.481216
22.5666 17.3845 19.1749 -0.703612 0.41798 0.272934
20.6362 18.9747 16.9903 -0.0685806 0.344498 0.938426
16.4715 20.1153 20.0618 -1.48898 0.518003 0.360389
20.0865 21.321 18.9377 0.146881 0.270754 -1.01856
17.64 22.1033 18.3121 -0.00305123 0.762613 1.10083
19.1562 24.1004 19.5607 0.346591 0.886321 0.137713
19.8487 23.5288 17.0715 -0.659504 -0.109783 -1.525
19.3118 21.0602 16.3859 1.20491 -0.895511 -0.891263
22.7323 19.9285 18.6062 1.15711 -1.06268 0.0739917
21.9209 23.2502 19.0636 -0.531973 -0.117983 -1.21086
21.7924 21.7505 16.8699 -1.33937 0.688146 -0.512235
24.1882 21.6294 19.5685 0.420913 1.44981 -0.647842
18.2739 19.3562 23.9529 -0.0315259 0.305416 1.64879
20.5558 16.1012 20.5587 -1.18082 0.81902 -0.369401
16.657 18.5655 22.0906 0.644603 0.840812 -2.19573
19.3006 17.5996 22.2788 0.129313 0.200026 0.301234
22.2401 17.7987 21.7594 -0.311879 -1.10597 1.13106
24.1842 19.2623 20.7528 1.84615 0.957562 1.07748
20.8458 19.7303 23.318 -0.625336 0.815518 0.283052
23.5019 19.9342 23.3597 0.767647 -1.30848 0.218464
19.3408 22.0977 23.5015 -2.54505 -0.0715946 2.64196
20.4402 23.0942 21.4772 -0.627898 0.001861 0.0365382
17.675 22.6274 20.9166 1.03283 -0.606544 0.088477
16.6188 21.0088 22.6825 0.055147 -0.399195 -0.222224
18.8869 20.2394 21.4244 0.737478 -1.78886 -0.714503
24.6811 21.7108 22.1765 -0.888135 -0.102304 -1.20345
22.0558 20.8035 21.0744 1.67221 -1.45931 -0.438052
23.1265 23.5088 21.4668 0.303151 0.0843179 -0.141083
22.1363 22.0796 23.5321 -0.656109 -0.630761 0.246498
ITEM: TIMESTEP
8000
ITEM: NUMBER OF ATOMS
33
ITEM: BOX BOUNDS ss ss ss
1.6747564082084232e+01 2.4537142825881915e+01
1.6075318299685261e+01 2.4046815902300725e+01
1.6183398268448052e+01 2.4022828119189402e+01
ITEM: ATOMS x y z vx vy vz
18.253 19.331 18.0164 -0.897649 -0.0344495 -0.0546881
19.8308 16.7391 18.1716 -0.500516 -0.0336201 -0.632547
20.4634 18.7374 19.6904 -0.843288 0.184144 -0.158729
17.9088 17.5205 20.1185 0.76612 1.00567 0.444393
22.3133 17.115 19.0944 2.23892 0.230957 -0.315289
20.8351 18.9374 16.9517 1.26416 0.462123 0.168792
16.7828 20.1249 20.103 0.401901 0.327369 0.0866346
20.0173 21.4753 19.1566 -1.08532 2.24827 1.05182
17.6763 22.1384 18.0115 0.0587033 0.770427 -1.02128
18.9906 24.0593 19.4528 0.712447 1.29186 -0.804006
19.8874 23.4591 17.1521 0.0193762 -0.635859 -2.14979
19.6342 20.9149 16.502 -0.033081 -0.790575 1.55808
22.7273 19.6797 18.4529 0.11995 -0.933509 0.226155
21.7752 23.8348 19.131 -0.51788 1.81626 0.392445
22.1067 21.9133 17.1729 1.40393 -0.602916 -0.07448
23.6899 21.9196 19.5206 -0.885904 0.199248 0.633509
18.2789 19.4671 24.0846 1.35096 -1.03153 -0.032982
20.1966 16.072 20.5908 -1.71993 0.555286 1.32002
16.8996 18.3827 22.3062 -0.578933 -1.16242 -0.448836
19.4934 17.6369 22.4572 0.569802 0.681319 0.230585
21.987 17.7716 21.5881 -2.27778 -0.749886 -1.03974
24.0791 19.2304 20.6148 0.646732 1.3399 0.993355
20.6899 19.616 23.5061 -0.783392 0.205849 0.544928
23.3134 19.7692 23.2353 -0.11409 -1.29299 -0.983514
19.2999 22.0505 23.2887 -0.344242 0.858028 0.635464
20.5017 23.2661 21.4753 -0.445304 1.26327 -0.506807
17.7265 22.4998 20.8566 0.892981 -1.67731 0.638638
16.6726 20.9341 22.7992 0.116048 -1.13957 0.1945
19.0169 20.1982 21.3884 -0.243877 -0.686474 1.13304
24.6353 21.553 22.0069 1.02544 0.421289 -0.871534
21.9358 20.8934 21.2086 -0.0624923 -3.19166 -1.0801
23.1438 23.6729 21.4966 -0.934688 -0.444827 -0.761529
22.2722 22.1213 23.4331 0.680902 0.546341 0.683475
ITEM: TIMESTEP
9000
ITEM: NUMBER OF ATOMS
33
ITEM: BOX BOUNDS ss ss ss
1.6674057880773084e+01 2.4662413440972852e+01
1.6075567378435515e+01 2.4107826153366855e+01
1.6533391280330711e+01 2.4098835867205171e+01
ITEM: ATOMS x y z vx vy vz
18.2327 19.1951 17.8925 -1.25354 -0.956432 0.526428
19.7939 16.8469 18.143 0.258574 -0.626011 1.34317
20.4489 18.8804 19.7574 -1.4557 0.404286 -0.00909525
17.9373 17.5481 19.9643 -0.952249 -0.18083 0.584337
22.4867 17.2132 19.2342 1.08571 1.50933 1.18176
20.8668 18.9707 17.0127 0.0889372 0.266206 -1.29304
22.8291 19.734 18.5411 -0.0946126 -0.205614 0.496197
16.9337 20.172 19.9202 -0.513043 0.514233 1.29805
19.7669 21.4451 19.1221 0.0711432 0.555885 -1.41997
17.4796 22.2545 18.0583 -1.25473 -0.0643441 -0.186467
19.0945 24.0621 19.2777 -0.486827 0.624882 1.42869
19.9181 23.6147 16.9969 0.639244 0.780713 2.47465
19.2201 21.0902 16.5163 0.620159 -0.816075 -0.909716
21.6196 23.249 19.222 2.76684 2.00473 1.28074
21.7802 21.6145 17.2057 -0.264719 -0.056461 -1.7483
24.0375 21.8445 19.5648 0.251587 0.453676 -0.6359
18.3349 19.4452 24.0967 -0.973701 -0.367222 0.733288
20.3628 16.1294 20.5154 0.236008 -1.62588 1.90057
16.8899 18.4941 22.119 -1.35647 -1.00783 -1.73692
19.5498 17.6959 22.3378 0.428484 0.814644 -0.155853
22.2376 17.9138 21.761 -0.622731 0.418058 -1.22137
24.2869 18.8998 20.5536 0.194334 0.0856286 1.15574
20.9284 19.7582 23.5 2.49306 -1.34968 -0.662754
23.703 19.5584 23.2905 0.0786492 -0.444424 -0.0435829
19.1175 21.9742 23.7423 0.209281 0.731243 -1.04687
20.2643 23.129 21.5746 1.34694 -1.0842 -0.448895
17.35 22.6261 20.7254 -1.27868 0.310795 -0.534845
16.7815 21.224 22.6758 0.849136 -0.204924 -2.25977
19.0915 20.4538 21.5608 -0.0736651 1.024 1.61708
24.4539 21.5429 22.1864 0.724376 0.011005 0.230236
22.0636 20.8379 21.0314 0.420797 -0.325086 -0.223211
23.0511 23.552 21.4563 -2.20647 0.159892 -0.58248
22.1226 22.0653 23.4786 0.023886 -1.35419 -1.13191
ITEM: TIMESTEP
10000
ITEM: NUMBER OF ATOMS
33
ITEM: BOX BOUNDS ss ss ss
1.6674057880773084e+01 2.4662413440972852e+01
1.6075567378435515e+01 2.4107826153366855e+01
1.6533391280330711e+01 2.4098835867205171e+01
ITEM: ATOMS x y z vx vy vz
18.2954 19.3507 17.8538 1.66149 0.867944 -0.964962
19.4707 16.8843 17.9698 -0.593098 -0.372145 1.3187
20.4161 18.8079 19.64 0.413793 -0.262979 -1.74162
17.9203 17.6939 19.9797 -0.862855 0.0908725 -1.10404
22.1757 17.0687 18.8466 0.824831 -0.646073 -0.782893
20.9516 18.8418 17.1564 1.40459 1.24272 0.405205
23.1439 19.4352 18.5328 0.917014 -1.46088 -0.100619
16.9674 20.4552 20.0128 1.92123 -2.02011 -0.171284
19.8212 21.4276 19.2567 0.0126799 -0.670902 0.763227
17.7271 22.1491 17.9541 -1.69864 0.305982 0.549843
18.863 24.0506 19.295 -0.171971 0.308859 0.988299
20.0829 23.4659 17.0083 -1.93488 1.60904 -1.24652
19.6113 20.9336 16.2725 -0.887619 1.01652 1.02417
21.6602 23.7102 19.0272 0.121023 -0.633508 1.08304
21.9136 21.5647 17.508 -0.292616 -0.0732095 1.29687
23.6729 22.0128 19.5407 -0.0609543 -1.28381 0.4982
18.3862 19.4725 24.2306 0.695981 1.18966 0.233138
20.2081 16.1418 20.3874 -0.944623 0.419089 2.08518
16.9465 18.3244 22.1885 -1.68707 0.831325 -0.0770522
19.355 17.4732 22.5383 0.943309 -0.494579 0.0248239
22.0312 18.0484 21.7049 2.16878 -0.639304 -0.351953
24.2956 19.3603 20.7319 1.61841 0.760737 0.381605
20.8977 19.6245 23.5544 -1.59594 0.231581 -0.846637
23.5492 19.5275 23.1917 -0.7163 0.354806 -0.0086651
19.3371 22.0068 23.3658 -0.986915 -0.4087 1.79196
20.3953 23.1843 21.2715 -0.273695 -0.220946 -0.298014
17.5443 22.6153 21.0421 -0.841285 -0.0790711 -1.74656
16.8689 21.0349 23.0539 -0.27741 2.27398 0.0946759
19.0039 19.9887 21.6525 -0.965814 0.277348 -0.836218
24.5546 21.6931 22.076 0.381596 1.03426 -1.51318
21.9667 20.8438 21.18 1.99148 -1.01594 -0.00716605
22.975 23.7079 21.5012 -0.561261 -1.15905 -1.02712
22.0263 22.1357 23.5099 0.27674 -1.37351 0.28554
ITEM: TIMESTEP
11000
ITEM: NUMBER OF ATOMS
33
ITEM: BOX BOUNDS ss ss ss
1.6674057880773084e+01 2.4662413440972852e+01
1.6075567378435515e+01 2.4107826153366855e+01
1.6533391280330711e+01 2.4098835867205171e+01
ITEM: ATOMS x y z vx vy vz
18.1187 19.2514 17.75 -0.303378 -0.511968 0.188597
19.5146 16.8259 17.7965 0.581311 1.29627 -0.912258
20.2231 18.7466 19.5554 -1.98915 1.15017 0.908012
17.986 17.5747 20.1783 -0.787966 0.648851 -1.00906
22.0059 16.8135 18.6128 -0.990003 0.181275 -0.56731
20.8916 18.9758 16.9816 -0.308815 1.98342 -0.237174
22.8169 19.2993 18.9494 -0.538223 -1.13718 -0.357013
17.1499 20.1258 20.0319 1.08108 0.269993 -0.2882
20.0473 21.364 19.131 1.5121 -0.385459 -0.508745
17.5894 22.1867 18.016 -1.34365 -1.11729 -1.06883
18.9288 24.0682 18.9287 -0.651628 0.18408 1.71812
20.2274 23.3905 16.8954 0.830525 0.212267 -0.643144
19.3255 21.0251 16.3035 1.37222 -0.861376 0.594608
21.6691 23.5098 19.191 -0.476816 -0.233264 -0.426981
22.1331 21.3962 17.2488 1.59658 0.74153 -1.26461
23.7352 21.9656 19.4999 -0.77475 -1.04305 -0.759991
18.3239 19.4051 24.2941 -0.55503 0.732714 0.140862
20.0485 16.1723 20.3225 0.143768 0.469029 -0.619121
16.924 18.6369 22.3725 0.806299 -2.00674 -1.13432
19.4141 17.7101 22.308 0.11007 0.115726 2.89315
22.1675 18.1297 21.4508 1.99209 -0.628265 1.00324
24.4181 19.6047 20.9155 0.147401 0.983151 -0.557784
21.1515 19.3189 23.431 0.522272 0.842519 0.890655
23.6862 19.8221 23.3409 0.166722 0.121821 -0.179876
19.3956 21.8643 23.7875 -1.55157 0.441333 -0.737055
20.1875 23.1982 21.6695 -0.224328 0.682582 -0.210447
17.7414 22.4914 20.7323 -0.684114 -0.066693 -0.156422
16.8726 21.2569 22.8771 0.710885 0.0188228 1.31989
19.1777 20.3895 21.7256 -0.58201 0.392096 1.54086
24.4477 21.8226 22.3451 -1.86094 -1.02688 0.943241
21.9147 20.9671 21.1787 0.707003 -1.76736 0.754946
22.8088 23.6865 21.5808 0.401694 -0.815999 -1.17639
21.9929 22.0395 23.6329 0.940365 0.133873 -0.081442
ITEM: TIMESTEP
12000
ITEM: NUMBER OF ATOMS
33
ITEM: BOX BOUNDS ss ss ss
1.6750447966195189e+01 2.4377521842313104e+01
1.6439965614595643e+01 2.4353516867837278e+01
1.6441667406468103e+01 2.4350120640552596e+01
ITEM: ATOMS x y z vx vy vz
18.2081 19.1947 17.553 -0.591185 0.27987 0.459616
19.2611 16.7588 17.6818 -1.79593 -1.42463 -1.38111
20.0203 18.8808 19.6565 1.06225 1.63039 -0.531118
17.5686 17.2655 19.355 -0.223468 1.10695 0.086869
17.4982 19.9579 20.0618 0.645825 0.384303 1.42128
21.7293 16.78 18.6601 -0.0836746 -0.862234 1.19134
20.6939 18.9064 17.1026 -0.945262 -1.04068 1.77369
22.9343 19.0961 18.6968 2.40255 -2.51595 0.385704
19.7043 21.6199 19.2954 -1.82061 -0.50109 -0.820852
17.5503 22.3967 17.9889 -0.155928 0.836866 -0.472911
19.0271 24.1069 19.4917 -0.92965 0.0751887 0.110919
19.9705 23.3786 17.06 -0.617112 -0.705577 0.389546
19.2909 21.1819 16.309 0.716397 0.714289 -0.895471
21.8484 23.5563 19.1152 0.689892 1.05592 -1.42491
21.9363 21.2298 17.5642 0.76668 2.3085 -0.597872
24.0926 21.8546 19.3197 2.53375 1.33188 0.352204
18.2798 19.5113 24.153 0.354158 -2.02929 1.0855
19.944 16.384 20.6483 0.27764 1.47759 -1.46601
18.2925 18.2643 21.8788 -0.605014 -0.0224108 0.415897
20.5406 18.1538 23.0577 -0.279845 -0.657925 0.0534081
22.212 17.9586 20.9533 -2.96115 1.25097 0.484469
24.4568 19.5373 20.8317 0.57921 -0.1953 0.625108
20.3807 20.5333 24.7923 0.579408 0.109359 0.860883
22.6737 19.6639 23.13 0.244991 0.93794 1.12325
18.7789 22.1823 23.6828 1.20683 -0.586202 -0.358441
20.3005 23.1844 21.5525 -0.818933 0.331287 -0.715334
17.5876 22.4605 21.0405 0.585548 -0.613211 -0.127651
16.7161 20.6396 22.5184 -0.428651 -1.66685 -0.875242
19.8997 20.4977 21.9611 1.30941 0.0102039 -0.324541
24.37 21.3736 22.5553 -0.417734 0.346589 -0.228602
22.1502 21.0192 20.6272 -0.755832 -0.562075 0.491926
23.2672 23.3204 21.4027 -0.166429 -0.544417 -0.889226
21.8507 22.1859 23.3373 -0.358138 -0.260244 -0.202309
ITEM: TIMESTEP
13000
ITEM: NUMBER OF ATOMS
33
ITEM: BOX BOUNDS ss ss ss
1.6750447966195189e+01 2.4377521842313104e+01
1.6439965614595643e+01 2.4353516867837278e+01
1.6441667406468103e+01 2.4350120640552596e+01
ITEM: ATOMS x y z vx vy vz
17.9288 19.2738 17.55 -0.608608 -0.268683 1.0258
19.4117 16.8369 17.9869 0.808954 1.55836 1.17961
19.81 18.8027 19.8378 2.39956 0.670355 0.27471
17.5674 17.274 19.5525 -0.736992 -0.342467 0.555884
17.2014 20.093 19.8677 -0.750628 -1.53994 -0.360715
21.832 16.767 18.6777 0.404128 -0.726341 -0.557421
20.7839 19.0238 16.9927 -1.91884 0.1296 0.500385
22.7161 19.3411 18.6777 1.03019 0.412351 0.400598
19.9017 21.2806 19.0584 -1.69041 1.28709 0.240128
17.5931 22.1023 18.1308 -0.279874 0.200377 1.16052
19.2507 24.0452 19.153 1.14735 0.0834868 0.778906
20.1567 23.3706 17.0105 0.181536 0.316258 -0.792604
19.4552 21.0644 16.3262 0.26257 0.877069 1.54332
21.9131 23.3896 19.1785 0.568466 -0.9254 0.0399172
21.9221 21.5019 17.3573 1.49364 -1.04193 -1.14179
24.0111 21.8399 19.2773 1.77659 -0.980727 0.0308864
18.2279 19.3853 24.2424 0.6112 -1.22616 -0.664119
19.8549 16.4308 20.5648 1.17878 1.73034 -1.82477
17.9973 18.235 21.9792 -0.297628 0.728184 1.20261
20.5289 18.2917 22.801 0.6017 0.858502 0.28832
22.5763 17.8662 20.8872 -0.625867 -0.376173 -0.39898
24.5185 19.7028 20.64 1.44354 -0.589359 0.0436929
20.5319 20.1718 24.6473 0.836495 -0.930173 -2.0654
22.6829 19.5235 23.244 0.311706 -0.190218 2.64904
18.8529 22.1519 24.0035 0.220717 0.135734 -1.90351
20.3452 23.2922 21.6807 -0.903954 1.2333 0.125998
17.8303 22.5735 20.9585 -0.598629 -0.248556 -0.134897
16.8628 20.7 22.4532 -2.44776 0.0682482 -0.107601
19.6288 20.7053 22.0322 -0.67883 -0.348708 -0.563054
24.2433 21.4623 22.449 -0.435775 -1.42413 -0.380203
21.954 20.8268 20.788 -0.767907 1.35252 1.20855
23.1471 23.489 21.5576 -1.91973 -0.87111 -2.14135
21.7971 22.2201 23.4713 -0.615699 0.388302 -0.212478
ITEM: TIMESTEP
14000
ITEM: NUMBER OF ATOMS
33
ITEM: BOX BOUNDS ss ss ss
1.6750447966195189e+01 2.4377521842313104e+01
1.6439965614595643e+01 2.4353516867837278e+01
1.6441667406468103e+01 2.4350120640552596e+01
ITEM: ATOMS x y z vx vy vz
18.3787 19.2551 17.5894 0.673339 1.75547 0.135276
19.126 16.7277 17.8363 1.18967 -1.18011 0.463994
19.9391 18.7969 19.7608 -1.1887 -2.34899 -1.24301
17.43 17.3824 19.4071 0.966306 0.62356 2.15372
17.3138 20.1999 20.093 -0.312851 0.33088 -0.610143
21.5903 16.8324 18.7897 -0.463947 0.32224 -0.795701
20.9424 18.7554 17.063 0.02836 0.591016 -0.554311
22.7951 19.3067 18.8129 -0.229322 -0.966244 0.0345344
19.7462 21.5156 19.0463 -2.1878 -0.663068 0.289927
17.616 22.0943 17.8742 -0.683696 0.667008 -0.0650372
19.0486 24.1382 19.1636 1.48663 0.92903 -0.674771
20.1834 23.4318 17.0191 1.42772 -1.79526 0.722183
19.7017 21.048 16.171 0.440865 0.306128 1.05522
21.7031 23.5767 19.1899 0.221805 0.506795 0.342691
21.9593 21.3492 17.4617 -0.140681 -0.766752 -1.6909
24.1251 21.8585 19.2924 -0.64118 0.309373 0.387726
18.4885 19.3221 24.2621 -0.792746 -0.834856 -1.2675
19.5686 16.5133 20.6646 -1.1115 -0.222323 -1.32669
17.9709 18.279 21.9038 0.785099 -0.165119 0.252097
20.3509 17.8278 22.9724 1.44608 -0.285825 1.38877
22.1591 17.8829 21.0334 0.0826406 0.608284 -1.28711
24.5273 19.7289 20.7765 -1.31006 0.0176728 1.6261
20.7404 20.0587 24.7282 0.754052 0.712621 -1.58581
22.5778 19.7503 22.8635 2.94864 1.26207 0.50131
18.9404 21.9713 24.0314 -0.268907 -0.526031 0.557509
20.1972 23.353 21.5371 0.859275 -0.282291 -2.90458
17.9857 22.4845 21.1092 -2.55938 1.30997 1.32799
17.0544 20.5503 22.594 -0.0263064 0.480191 0.147687
19.8753 20.5202 22.0104 0.0358278 -1.17905 -0.535089
24.3234 21.7255 22.4275 0.628418 -0.115556 0.0803513
21.9749 21.0805 20.5227 -2.05421 0.667479 3.04355
22.9613 23.5305 21.5815 0.739869 1.05832 -0.172047
21.7402 22.1872 23.4463 -0.743323 -1.12664 0.202079
ITEM: TIMESTEP
15000
ITEM: NUMBER OF ATOMS
33
ITEM: BOX BOUNDS ss ss ss
1.6750447966195189e+01 2.4377521842313104e+01
1.6439965614595643e+01 2.4353516867837278e+01
1.6441667406468103e+01 2.4350120640552596e+01
ITEM: ATOMS x y z vx vy vz
18.0307 19.3911 17.6289 -1.5416 1.7531 -1.116
19.4507 16.6279 17.995 -0.842425 0.951189 1.7608
20.1881 18.7421 19.7065 -0.926612 2.88992 -1.05577
17.7206 17.4884 19.4523 -0.23057 -0.423278 -0.0860158
17.3856 20.2211 20.118 -0.0628519 -0.596483 -0.786172
21.937 16.9023 18.8587 1.10519 2.61861 1.72812
20.6742 18.9738 16.9364 -1.05477 -0.275819 -0.344136
22.7469 19.2924 18.6382 0.444338 -1.20324 1.1156
19.8524 21.2772 19.0569 -0.557636 0.301335 0.465768
17.6822 22.1332 18.1242 -0.401839 0.823743 0.936715
19.0202 24.0025 19.4401 0.697941 -1.06482 -2.28411
20.0665 23.523 17.1785 -0.15048 0.501189 -0.340725
19.5245 21.0675 16.2217 1.47472 -1.35004 -0.0321593
21.6973 23.3624 19.254 0.904579 -1.20758 0.966541
21.9408 21.5455 17.2767 1.75113 -2.05964 -0.065332
24.0829 21.66 19.4664 -2.25025 0.322089 1.41406
18.1268 19.4782 24.3051 0.0890328 -0.252954 0.923958