ITEM: TIMESTEP
0
ITEM: NUMBER OF ATOMS
34
ITEM: BOX BOUNDS ss ss ss
1.6181429514235859e+01 2.4261703699127764e+01
1.6184606849445583e+01 2.3848500780736703e+01
1.6340365734167957e+01 2.4575328399369194e+01
ITEM: ATOMS x y z vx vy vz
19.7352 16.1887 20.1238 -0.809947 1.1582 0.634191
16.1855 19.4505 19.8229 0.298802 -0.351036 1.17521
18.4568 18.2054 18.7163 -1.55591 -1.63996 1.07057
20.2953 19.528 17.0931 1.47157 1.26297 0.219855
20.8986 18.7245 20.1128 -1.27342 -0.442342 0.342471
20.7148 16.9723 17.7244 1.80447 -0.0987604 0.565137
22.7672 18.8237 18.1305 -2.84559 -1.69297 -0.557322
22.5837 16.4794 19.506 -1.82503 -0.195175 -0.766122
17.8708 20.7694 17.9619 2.16802 -1.17979 -0.487639
18.4889 23.4157 18.3269 -1.21599 2.11566 -2.66854
16.7025 22.122 20.004 1.00081 -0.0382015 1.25687
19.7355 22.0618 16.3444 -1.4687 0.453594 0.560817
23.6629 23.2765 18.5519 0.733775 0.701853 0.0525418
20.3803 21.5017 19.0386 -0.0863879 0.628716 0.165755
21.7249 23.6056 20.4137 0.118634 0.0679112 -0.300686
23.0425 20.9619 19.8496 1.04814 -0.542339 1.21619
21.1575 23.8444 17.7443 -0.399536 -0.408529 0.677181
22.3431 21.4046 17.1141 2.34983 0.00453132 0.563469
19.2697 17.8475 22.2952 0.243178 1.44433 -2.05756
16.7992 19.1799 22.5244 1.88001 -0.218978 0.339221
17.1694 17.1445 20.8023 -1.0901 -1.36548 -2.81945
21.6796 16.5468 21.9736 1.88582 0.461239 0.751686
23.4379 18.5283 21.085 0.463663 0.0400759 1.11042
21.6815 18.9175 23.1928 -0.89403 1.00143 -1.29563
17.3037 21.8568 22.6488 -2.041 0.793067 0.431994
18.5882 20.2113 20.7875 1.06277 -0.684089 -0.287526
19.6906 22.8865 23.6091 0.589715 -0.456944 0.712699
19.0462 23.1404 20.977 -1.00717 -0.360835 -0.154739
19.1748 20.1949 23.6974 -0.0954881 -0.281661 1.72355
22.3666 23.3119 23.0607 0.173438 0.535475 -1.08989
24.2576 23.0151 21.1667 0.719199 0.934008 -0.96098
23.6021 20.8508 22.6501 -0.508465 -1.22475 -0.110245
21.0103 21.2237 21.8087 -2.14031 0.293967 -0.331867
21.6065 21.2381 24.5712 1.24523 -0.71518 0.318361
ITEM: TIMESTEP
1000
ITEM: NUMBER OF ATOMS
34
ITEM: BOX BOUNDS ss ss ss
1.6181429514235859e+01 2.4261703699127764e+01
1.6184606849445583e+01 2.3848500780736703e+01
1.6340365734167957e+01 2.4575328399369194e+01
ITEM: ATOMS x y z vx vy vz
19.7925 16.2094 20.1885 -1.47224 1.37379 -1.7896
16.0172 19.4849 19.7608 -0.448986 -1.72807 0.300589
18.4433 18.3022 18.8457 0.570079 0.218798 0.975772
20.3142 19.5201 17.0551 0.53461 0.583317 0.0127734
20.9444 18.7346 20.1068 1.50726 0.150706 1.6814
20.7679 16.9328 17.7204 0.977718 -0.378439 -0.822589
22.7595 18.929 18.037 -1.42037 0.0427624 0.959633
22.4867 16.6873 19.5339 -1.20589 -0.0535011 -0.051572
17.911 20.7211 17.8559 0.267628 0.681925 -0.0641606
18.5522 23.3305 18.5342 -0.0504864 -0.165237 -0.41232
16.6168 22.0597 20.0984 1.88137 0.0294148 -0.671612
19.7741 22.04 16.3841 0.461639 -0.781963 1.58362
23.47 23.1219 18.5599 1.8963 0.685185 -0.76864
20.517 21.3709 18.9207 0.340601 1.44337 -2.35395
21.6421 23.6283 20.404 0.290018 0.107071 0.609604
23.0687 20.8637 19.8977 -0.617334 -1.31957 -0.461817
21.0096 23.772 17.7938 -1.56182 -1.89912 0.743433
22.3912 21.3786 16.9705 0.162909 1.00585 -0.927664
19.3017 17.9724 22.3193 0.514217 0.28577 0.529832
16.6713 19.2522 22.3161 -0.0229695 -1.38777 -2.22236
17.1995 17.2779 20.7875 -0.391955 -0.571612 1.48312
21.7261 16.6485 22.0442 -0.105021 0.0696308 1.54586
23.5473 18.5334 21.0887 -0.477648 0.630842 -1.91428
21.7518 18.9314 23.2847 -1.18224 -0.259984 0.67896
17.4529 21.8525 22.6136 0.882486 -1.39522 0.618913
18.5345 20.3073 20.6516 -0.779616 1.26788 -0.463638
19.7639 22.7304 23.618 -0.670293 0.940892 -0.353251
19.1004 23.2783 21.0794 -0.180667 0.54697 1.94348
19.2013 20.1623 23.7264 -1.2382 -0.89407 -0.797599
22.3677 23.2665 23.0579 -0.295684 -0.123375 0.582266
24.1698 22.9065 21.2177 1.21342 -0.657324 -2.13758
23.617 20.8231 22.5896 -1.09233 0.937162 0.618575
20.9551 21.1542 21.7785 0.395573 -0.484851 1.04987
21.5916 21.2459 24.5893 1.31793 1.09878 0.294924
ITEM: TIMESTEP
2000
ITEM: NUMBER OF ATOMS
34
ITEM: BOX BOUNDS ss ss ss
1.6181429514235859e+01 2.4261703699127764e+01
1.6184606849445583e+01 2.3848500780736703e+01
1.6340365734167957e+01 2.4575328399369194e+01
ITEM: ATOMS x y z vx vy vz
19.7139 16.183 20.1011 1.11129 -0.385414 -0.812277
16.1325 19.7046 20.094 -0.0940865 -0.148212 0.919112
18.4207 18.2468 18.908 0.365689 -0.777897 1.49586
20.3279 19.5063 17.2391 0.98677 -0.818221 -1.92216
20.99 18.6764 20.1214 0.501732 0.156479 -2.87828
20.5431 16.8536 17.7966 -0.504757 -0.301797 0.800843
22.8248 18.8317 18.0924 -1.44039 -0.131319 -0.918178
22.4985 16.5508 19.4097 0.153535 -1.19313 1.58298
18.0329 20.7482 17.8526 0.458087 1.54961 -1.34841
18.4677 23.422 18.3635 -0.68472 1.53261 -1.45797
16.8488 22.2015 19.9127 1.48515 -1.17294 0.960999
19.8701 22.0605 16.2871 -0.465041 0.553181 0.920397
23.4127 23.3367 18.5393 0.333221 -0.718631 -0.807394
20.4201 21.5304 18.9662 -0.882359 1.41531 0.916521
21.6885 23.5526 20.3637 -1.21001 0.457053 -0.897198
23.1829 20.8857 19.8798 -0.471439 -1.55607 -0.146669
21.0308 23.7138 17.6192 0.305277 -0.19194 0.0598554
22.3537 21.273 17.2016 1.56762 0.789371 0.423038
19.3167 17.8961 22.2193 -0.873735 0.38258 0.244222
16.9617 19.2446 22.6093 -0.0984553 0.471283 -0.0192397
17.061 17.3824 20.6921 -0.588028 -1.15383 0.109035
21.7795 16.6769 21.9491 0.441706 1.61275 -0.0584728
23.5182 18.5175 21.0576 0.407221 0.760754 -0.0520868
21.789 18.9822 23.1171 -1.57 -0.91682 -2.08124
17.2389 21.8673 22.4392 -1.25482 -0.591661 -0.551819
18.5757 20.2074 20.7767 -0.295398 -0.442553 0.822655
19.4695 22.6815 23.6437 0.306639 0.935551 -0.599051
19.1493 23.0674 21.0012 -0.712358 0.399393 1.19514
19.2387 20.2256 23.7445 0.162294 0.610851 1.11586
22.1651 23.2293 23.1422 0.312851 -0.106145 -0.491261
24.059 23.0442 21.2287 0.515507 0.48853 1.55879
23.6959 20.81 22.6023 1.48959 -0.208648 0.819199
21.0731 21.1301 21.8792 0.158919 -1.78798 0.604227
21.5791 21.19 24.58 0.0824958 0.487898 0.49297
ITEM: TIMESTEP
3000
ITEM: NUMBER OF ATOMS
34
ITEM: BOX BOUNDS ss ss ss
1.6181429514235859e+01 2.4261703699127764e+01
1.6184606849445583e+01 2.3848500780736703e+01
1.6340365734167957e+01 2.4575328399369194e+01
ITEM: ATOMS x y z vx vy vz
19.6304 16.2171 20.1933 0.00259125 -0.869834 -2.73476
16.1527 19.6361 19.5963 -0.797035 -0.237042 -0.496062
18.493 18.2935 18.7278 0.310387 -0.379671 0.322847
20.3385 19.4426 16.9954 -1.27658 0.752557 -0.0998196
20.8284 18.641 20.0702 2.38752 -0.715703 1.7595
20.7946 17.0381 17.7792 -0.570638 -0.00327338 -0.164663
22.7781 18.8307 18.2655 0.575785 -0.852158 -1.21423
22.5184 16.4768 19.5403 1.05685 0.84362 1.349
17.9545 20.69 17.8595 0.447286 -0.363585 -0.322914
18.556 23.2434 18.5044 0.254294 0.231105 1.38592
16.8865 22.1539 20.1014 0.234298 -0.101003 -0.187641
19.7633 21.9388 16.3518 -0.64493 -1.39388 -0.753309
23.5339 23.3514 18.5149 1.20148 0.996824 -0.54982
20.4195 21.4337 18.9595 -0.693944 1.44795 1.24374
21.5774 23.4368 20.479 0.43809 -1.34927 1.13254
23.048 21.0133 19.727 -0.790678 0.0497256 -1.42933
21.2232 23.7066 17.7385 0.0545184 0.260093 -0.294802
22.3085 21.3734 17.0383 2.86257 0.229576 -0.41754
19.3014 17.9186 22.3452 -1.14858 0.475802 0.880775
16.6471 19.4062 22.4066 -0.443807 0.478878 0.705642
17.224 17.4664 20.6862 -0.575363 0.338148 1.29355
21.5607 16.6427 21.9858 -0.343404 0.0491121 -0.0919015
23.3152 18.7528 21.1358 -1.65507 1.38838 -1.28408
21.871 18.8092 23.2542 -0.269661 0.459434 1.13341
17.3911 21.8191 22.7393 0.494526 -0.35789 -0.0585248
18.5343 20.1913 20.8675 2.60602 0.370336 -0.386573
19.7674 22.6792 23.5756 -1.43151 1.00595 0.128199
19.0944 23.0928 21.1193 -2.24485 -0.401785 -0.521943
19.1491 20.0899 23.7522 -0.000990679 0.115207 -0.564073
22.2473 23.3355 22.9617 -0.719856 -1.6079 0.802905
24.0229 23.0359 21.0607 0.010404 0.419127 -1.03629
23.6615 21.0328 22.6415 1.42763 -2.28641 -0.3849
21.1112 21.0488 21.8499 -2.1036 0.426152 0.795714
21.7265 21.1918 24.6061 1.34624 0.581424 0.0594484
ITEM: TIMESTEP
4000
ITEM: NUMBER OF ATOMS
34
ITEM: BOX BOUNDS ss ss ss
1.6181429514235859e+01 2.4261703699127764e+01
1.6184606849445583e+01 2.3848500780736703e+01
1.6340365734167957e+01 2.4575328399369194e+01
ITEM: ATOMS x y z vx vy vz
19.6995 16.317 20.3101 -0.266037 0.612102 -0.15341
16.2666 19.6473 20.0764 -1.94509 1.3412 0.680667
18.469 18.2174 18.7281 0.521441 0.893262 -1.39517
20.4255 19.4056 17.161 0.792195 1.05211 0.508327
20.8882 18.8041 19.9853 -0.907567 -0.903452 -1.2475
20.771 16.8731 17.8149 -0.00328481 0.399746 1.06562
22.7478 18.6528 18.07 -0.971667 -0.714806 -0.0977691
22.4955 16.503 19.4987 -0.00790297 -0.0330676 0.656847
17.861 20.7809 17.9509 1.13547 -1.47564 -0.0246265
18.6134 23.3961 18.1187 0.763018 -0.0418535 0.859824
16.8161 22.1566 19.8609 0.917852 -0.451311 0.438813
19.8082 21.7971 16.2718 -0.909773 -0.373656 -0.351086
23.3264 23.3164 18.7271 -0.464152 0.52057 -0.47826
20.3515 21.5498 18.9761 -0.00335013 -0.166109 -0.813434
21.5258 23.8803 20.4732 -0.862724 -1.09389 0.0783413
23.1061 20.9156 19.7691 1.39536 0.835564 0.0261924
21.1524 24.0122 17.9141 -0.487307 0.653758 -0.257122
22.3945 21.3796 17.2008 1.73343 0.0439565 0.771711
19.2556 17.9459 22.2563 0.499409 1.91191 0.906055
16.8876 19.217 22.6521 -1.41992 1.15448 -0.0622536
17.1691 17.3071 20.8423 -0.0187717 -1.51435 -0.716858
21.6058 16.6175 21.8746 1.37013 -0.869648 0.0169321
23.3901 18.5669 21.0408 -1.5642 1.46212 -0.08636
21.6472 18.8407 23.1769 -0.0436067 -0.365997 0.408619
17.3384 21.8851 22.5702 -0.256385 -1.05098 0.700828
18.6775 20.2394 20.8195 0.711316 -1.04637 -0.152217
19.6498 22.7362 23.6478 0.521256 0.309875 -0.890521
19.0258 23.1298 20.8039 -0.425978 -0.257952 0.496221
19.2175 20.1896 23.7376 -0.57497 1.86987 0.967044
22.2505 23.235 23.048 -0.909236 -0.573391 -1.95981
23.9325 22.983 21.1904 -0.286696 1.51173 -0.321643
23.7002 20.8043 22.7023 -0.19183 -1.69968 1.14283
21.2077 21.1228 21.7114 1.23599 0.736229 1.17591
21.7562 21.0049 24.4486 0.923584 -2.67633 -1.89275
ITEM: TIMESTEP
5000
ITEM: NUMBER OF ATOMS
34
ITEM: BOX BOUNDS ss ss ss
1.6181429514235859e+01 2.4261703699127764e+01
1.6184606849445583e+01 2.3848500780736703e+01
1.6340365734167957e+01 2.4575328399369194e+01
ITEM: ATOMS x y z vx vy vz
19.7668 16.2441 20.2093 -0.557844 1.73904 -0.551072
16.2305 19.5441 19.7048 -1.12427 0.271213 -0.199974
18.5331 18.4131 18.7673 0.12267 -0.428351 -0.316412
20.3712 19.6229 16.9623 0.95292 -1.66326 0.714152
20.9379 18.7216 20.2569 1.70074 -0.584056 -0.319301
20.8445 17.0892 17.873 1.72373 -0.657603 -0.746827
22.7102 18.8971 18.0429 0.0415896 -0.467992 -0.148312
22.5842 16.5958 19.5238 -0.426394 -0.701201 -0.562054
17.8073 20.6869 17.7919 0.091615 0.354273 0.426956
18.5743 23.2191 18.2875 1.07581 1.04605 -1.24108
16.7918 22.1262 19.9468 -0.776801 1.04843 -1.05861
19.6052 22.0089 16.3057 -0.449209 -1.22141 0.212164
23.4551 23.2352 18.5481 -1.18678 -0.85448 -0.327263
20.4148 21.2726 18.9684 1.16953 0.142347 2.28727
21.6859 23.495 20.4338 -1.90797 1.01987 0.0963014
23.1596 20.8196 19.7615 1.18612 -0.408297 0.664933
20.9859 23.736 17.8306 -0.444703 -0.0482189 -0.260509
22.2841 21.5693 17.014 -0.392076 1.53167 -0.316631
19.2224 17.7084 22.4453 1.06054 -1.59208 -0.27573
16.8632 19.3093 22.4408 1.44968 0.064013 0.784086
17.1576 17.3695 20.8447 -0.856007 1.10832 0.943835
21.5721 16.6292 21.9216 -0.201819 -0.184517 0.437327
23.5204 18.4555 21.163 0.880762 0.408321 -0.804782
21.5727 18.8243 23.3295 -0.439503 0.829207 0.166079
17.4451 21.9219 22.6855 -0.812482 0.225486 1.68315
18.6396 20.1942 20.7987 0.826574 1.07362 -1.614
19.7848 22.8516 23.7201 -1.21905 1.14959 1.21502
19.1083 23.1756 21.0931 -0.818472 -0.21268 0.000621329
19.2691 20.2039 23.6392 -0.726217 0.739441 -1.043
22.2799 23.2361 23.0161 0.869005 -3.25498 -0.188682
24.1284 22.7744 21.1915 -0.84756 -0.611177 -0.475167
23.4865 20.8372 22.5597 -2.16784 0.610802 0.0671035
21.016 21.3084 21.7871 0.915364 -0.245531 1.46989
21.6214 21.3339 24.5652 1.28837 -0.225859 -0.719484
ITEM: TIMESTEP
6000
ITEM: NUMBER OF ATOMS
34
ITEM: BOX BOUNDS ss ss ss
1.6181429514235859e+01 2.4261703699127764e+01
1.6184606849445583e+01 2.3848500780736703e+01
1.6340365734167957e+01 2.4575328399369194e+01
ITEM: ATOMS x y z vx vy vz
19.737 16.0834 20.1947 0.653293 0.503476 1.06205
16.2131 19.5189 20.0965 -1.00338 0.21719 -0.118364
18.4218 18.1919 18.776 -1.89995 -0.506014 0.813488
20.4414 19.5482 16.9827 1.23944 0.633743 -0.636217
20.792 18.691 20.2007 0.271613 1.0849 -0.161315
20.5984 17.099 17.8585 1.48797 0.932322 1.29451
22.7204 18.7606 18.0488 -0.387207 0.00589807 -1.65531
22.5025 16.6539 19.4264 1.31873 0.0950346 0.965793
17.9275 20.5692 17.911 0.301762 0.6683 0.728033
18.4431 23.3152 18.3134 0.353202 -0.0609308 -2.45433
16.908 22.0486 19.8736 0.438875 0.714497 1.49223
19.7432 22.0693 16.4216 -2.96576 -0.932543 -0.273975
23.5105 23.2391 18.736 0.120452 -0.903646 -0.183178
20.5057 21.5116 19.0275 -0.865808 0.317526 1.27778
21.7446 23.8234 20.3611 -0.946433 -2.82766 0.71105
22.935 20.7806 19.8908 1.47985 -0.527476 0.760225
21.1239 23.883 17.7618 0.553712 -0.103969 -0.523614
22.3458 21.4751 17.1766 0.514303 -0.325427 0.464934
19.2711 17.829 22.3034 0.186719 -1.03984 -0.790846
16.7584 19.1766 22.761 -1.45284 0.526147 -0.454367
17.1841 17.2116 20.7548 2.77082 -0.713784 -0.113475
21.6592 16.5235 21.8775 -0.920909 0.835651 -1.65535
23.4424 18.4185 21.0121 -0.912608 -0.0725625 -0.87148
21.5685 19.0096 23.046 -0.654378 -0.333936 -0.937504
17.4178 21.8298 22.399 0.137719 0.32611 0.393604
18.6753 20.1678 20.784 -0.358788 0.289331 0.182201
19.7187 22.798 23.5621 1.17895 -0.306057 0.214492
19.1041 23.1435 20.9145 0.00697548 0.79967 -0.308203
19.2177 20.272 23.5874 -0.741584 0.431254 -0.0229427
22.2172 23.642 23.1531 -0.741712 -0.446275 -0.279649
23.9784 22.8352 21.4234 0.169458 0.186822 1.17974
23.6293 20.6151 22.6503 0.768875 -0.164582 0.0969336
21.1083 21.4392 21.8294 -0.0861693 0.655922 -0.513356
21.866 21.2565 24.3146 -0.0151955 0.0409068 0.316411
ITEM: TIMESTEP
7000
ITEM: NUMBER OF ATOMS
34
ITEM: BOX BOUNDS ss ss ss
1.6181429514235859e+01 2.4261703699127764e+01
1.6184606849445583e+01 2.3848500780736703e+01
1.6340365734167957e+01 2.4575328399369194e+01
ITEM: ATOMS x y z vx vy vz
19.6907 16.1475 20.104 0.247878 -0.188365 -1.8271
16.3279 19.5027 19.5871 -1.68871 -0.238378 -1.19276
18.4477 18.1533 18.4806 2.38949 0.00179727 0.772566
20.2234 19.4734 17.1404 -0.380686 2.22999 0.556251
20.7729 18.6277 20.1436 1.28129 0.0804833 -0.674426
20.7071 16.872 17.826 -0.989151 0.180819 -0.227601
22.5892 19.0142 18.1108 -2.81955 -0.392722 1.26421
22.4742 16.5278 19.6705 -0.330479 0.72391 0.979058
17.8954 20.7904 17.9122 -1.15568 -0.206868 0.670355
18.8821 23.3359 18.5966 -0.318161 -0.687368 1.1009
16.7938 22.1435 20.2501 0.437093 0.475049 -0.892412
19.6613 21.9999 16.3985 0.0924371 -1.35279 -0.269082
23.636 23.368 18.6016 0.389311 0.108795 -0.334239
20.5282 21.3768 19.1092 0.277648 -0.019124 0.082021
21.6652 23.6909 20.2457 0.615048 -0.133072 -1.51955
23.1592 21.0767 19.6275 0.460983 1.79593 0.0879401
21.2772 23.816 17.5155 1.31622 -0.642334 -0.803899
22.2713 21.3362 17.0608 0.66832 -0.423147 0.288852
19.0703 17.8312 22.4994 2.62821 -1.89046 0.608016
16.8293 19.1757 22.4798 -0.102914 0.571391 -0.366271
17.2648 17.3487 20.715 -0.980518 0.0664313 1.22053
21.5576 16.6133 22.0333 -0.596904 0.382063 -0.909492
23.2108 18.693 21.0202 0.253107 0.0100503 -1.72217
21.6491 18.8215 23.2558 -0.884006 0.164375 -0.55025
17.4019 21.6849 22.7851 0.96232 -0.342517 1.12763
18.7326 20.2716 20.8189 -1.46574 -0.638281 0.767304
19.6747 22.7624 23.6163 0.155971 1.40494 -0.33116
19.1297 23.0718 21.0589 -0.463208 -0.312692 -0.724168
19.3334 20.1141 23.7318 0.267843 -0.251718 -0.559349
22.0495 23.48 22.9432 -0.519279 0.524929 0.960981
24.035 22.9777 21.3897 -0.338519 0.373271 -0.0909867
23.6192 20.8327 22.5517 1.24156 -0.837464 3.07534
21.1532 21.1853 21.7596 0.597902 -0.287299 0.288746
21.7162 21.3134 24.3906 -1.24913 -0.249621 -0.855794
ITEM: TIMESTEP
8000
ITEM: NUMBER OF ATOMS
34
ITEM: BOX BOUNDS ss ss ss
1.6181429514235859e+01 2.4261703699127764e+01
1.6184606849445583e+01 2.3848500780736703e+01
1.6340365734167957e+01 2.4575328399369194e+01
ITEM: ATOMS x y z vx vy vz
19.9169 16.3198 20.0086 1.38294 -0.106492 -1.86846
16.2093 19.6183 20.0877 -0.193954 -0.655786 -0.426813
18.5312 18.3926 18.5202 -0.853701 1.86726 1.67226
20.2316 19.5465 16.9232 0.252972 1.42732 0.621844
20.9281 18.7605 20.0159 0.712845 0.00122307 -0.26926
20.7541 17.065 17.628 -1.80666 -0.376868 0.86408
22.8523 18.6075 18.1903 1.71441 -0.88244 0.238571
22.5465 16.4092 19.5447 -1.46132 0.0685731 0.306019
17.8505 20.9382 18.0338 -0.411556 -1.10728 -0.402512
18.8695 23.5036 18.5743 -0.104814 -0.124129 -1.08112
16.8578 22.2338 20.1262 0.198214 -1.22125 1.22472
19.5766 21.9241 16.3175 -1.6426 0.696297 0.491373
23.522 23.0847 18.4854 -0.127649 0.174738 0.337416
20.3831 21.4839 18.9155 1.31591 -0.329354 -0.308894
21.5787 23.7168 20.2365 -0.409146 0.235517 -0.793449
22.9201 20.7954 19.8866 -0.104212 -1.23199 0.036428
21.1712 23.7931 17.4743 -1.37775 -0.0015009 0.273607
22.316 21.1105 17.1097 1.24768 -0.882584 2.17878
19.2848 17.7522 22.2808 -0.442419 -2.12922 1.79656
16.8484 19.1866 22.4958 -0.0242754 0.493278 0.207312
17.3588 17.3309 20.59 -0.653964 -0.42928 -2.68395
21.7229 16.724 21.9944 2.9488 -0.417291 -1.21847
23.3474 18.5293 21.3091 -1.81549 1.52106 1.07619
21.5844 18.9543 23.3199 -0.682003 -0.978604 -1.37295
17.3834 21.7782 22.7345 0.888613 1.62461 -0.681544
18.6805 20.1528 20.7974 -0.691733 0.303821 1.45766
19.6697 22.8156 23.7708 0.792165 -0.315163 0.504259
19.1921 23.094 21.1004 1.86526 -0.246948 -0.501547
19.2502 20.1674 23.7636 -0.739381 0.970854 -1.4078
22.0257 23.3625 22.9096 0.20393 -0.00851492 -0.959612
23.8982 23.0141 21.0764 0.340274 0.37709 1.89787
23.5573 20.8902 22.8779 0.922764 0.489778 -1.24337
21.0441 21.1671 21.7982 -0.606811 -0.774809 -0.228773
21.5664 21.2072 24.5328 -0.637337 1.96808 0.263568
ITEM: TIMESTEP
9000
ITEM: NUMBER OF ATOMS
34
ITEM: BOX BOUNDS ss ss ss
1.6181429514235859e+01 2.4261703699127764e+01
1.6184606849445583e+01 2.3848500780736703e+01
1.6340365734167957e+01 2.4575328399369194e+01
ITEM: ATOMS x y z vx vy vz
19.7666 16.2359 20.255 0.187571 1.01637 -1.93889
16.3463 19.6918 19.8495 0.210063 -0.487257 0.60014
18.4256 18.359 18.5575 -0.629464 0.22929 0.806404
20.3106 19.5142 17.0009 1.35426 1.7083 0.828611
20.7468 18.6586 20.2429 -0.942695 -0.457169 0.533604
20.6206 17.0593 17.7887 1.14974 0.0918198 -0.00773154
22.6852 18.7625 18.4752 1.11147 1.22285 1.0369
22.327 16.4797 19.3267 0.0538044 -0.725939 -0.506319
17.9607 20.8085 17.8944 0.0327765 0.214465 0.242577
18.649 23.3749 18.5115 -0.924352 0.154826 0.0422496
16.8471 22.2469 20.0038 -0.673229 1.49146 1.07615
19.544 21.9427 16.3471 -0.126378 -0.0272408 0.687957
23.6653 23.3233 18.4805 -0.698733 -2.02646 0.237186
20.5091 21.4607 18.9765 -1.40786 -1.40667 -0.149651
21.5751 23.7646 20.1924 2.06353 -0.0161119 -1.28369
23.1251 20.9974 19.8484 -0.753055 -1.6326 0.500995
21.2311 23.596 17.5138 0.678172 -0.101886 -0.679377
22.524 21.4513 17.0708 -1.62432 0.32669 -1.14875
19.2525 17.6114 22.5115 2.13259 0.287656 1.8922
16.8444 19.0507 22.5957 -0.258158 -0.0376383 -0.480128
17.3281 17.3787 20.7663 1.13893 -0.252597 -1.34377
21.6793 16.4929 21.7944 -0.892718 0.0979136 -0.401219
23.331 18.7014 21.3292 -0.388672 0.530971 -0.0183267
21.5959 18.8032 23.3228 1.45799 -0.909442 0.770382
17.1257 21.5956 22.5762 0.0812953 -0.371132 -0.419824
18.6991 20.347 20.8515 -1.67056 0.0346085 0.0343425
19.6713 22.782 23.5918 -1.93238 0.135426 -0.0294556
19.12 23.1112 21.1919 0.442306 0.115982 -1.72989
19.2926 20.1422 23.5742 -0.272662 0.604946 0.0451903
22.2949 23.3355 22.9685 -0.530183 -0.748177 -0.349932
24.0287 23.0812 21.1145 0.995377 0.649781 0.325714
23.5755 20.9508 22.6759 0.44158 -1.17329 1.33682
21.1844 21.2398 21.7267 -0.477472 1.03908 0.342087
21.5478 21.079 24.5035 0.67143 0.421171 -0.852549
ITEM: TIMESTEP
10000
ITEM: NUMBER OF ATOMS
34
ITEM: BOX BOUNDS ss ss ss
1.6181429514235859e+01 2.4261703699127764e+01
1.6184606849445583e+01 2.3848500780736703e+01
1.6340365734167957e+01 2.4575328399369194e+01
ITEM: ATOMS x y z vx vy vz
19.7038 16.176 20.1059 0.605589 0.354489 -0.18498
16.3322 19.6534 19.9244 -0.835434 -0.709247 -0.0694612
18.2908 18.1676 18.6581 -0.0729626 -0.930265 -0.263653
20.146 19.4459 17.1462 0.390383 0.465594 -0.0907738
20.8813 18.6045 20.2023 0.0819999 0.367392 0.919978
20.8429 16.8685 17.8754 1.75485 -0.608261 -0.175303
22.7165 18.8815 18.2676 -1.06597 -0.995108 1.40129
22.5887 16.5641 19.52 -1.06912 -1.45087 -0.0542095
18.0193 20.9737 17.9832 1.75683 0.293907 0.281421
18.6578 23.6015 18.5617 0.00176094 -1.01298 0.834924
16.7814 22.2957 19.9483 -1.514 1.01294 1.14363
19.8348 21.9943 16.2556 -2.09011 1.32077 -1.63331
23.4644 23.2394 18.6289 -0.660773 0.408162 -0.193414
20.459 21.4319 18.9772 -0.589679 0.887249 0.0874174
21.5659 23.7691 20.2095 0.362376 0.805 -0.913325
23.189 20.9526 19.8983 0.767998 -0.628282 -0.293127
21.1475 23.8637 17.5767 0.894081 1.64741 1.48861
22.2378 21.4075 17.0886 0.487635 -1.25093 0.914096
19.0709 17.875 22.3523 1.75649 0.747456 -0.180397
16.6972 19.201 22.493 0.699278 1.05156 -0.0129932
17.2828 17.12 20.8584 -0.93255 -0.361598 -0.737568
21.5145 16.6363 21.911 -1.01241 -2.1456 1.52842
23.4056 18.5168 20.9531 -0.532294 -0.312505 -0.317226
21.7341 18.8275 23.1956 -1.34042 -0.395547 -1.24075
17.2444 21.842 22.5686 1.53837 -1.43385 1.70335
18.6529 20.1855 20.8288 0.0707846 0.00923838 -0.715325
19.6542 22.7266 23.4954 -0.870386 0.861597 -0.53295
19.1524 22.8405 21.0197 -0.312508 0.246837 -2.10925
19.2492 20.1738 23.608 0.0405982 -0.829841 0.190061
22.2283 23.3032 22.9568 -0.194902 -0.0268479 -0.414078
24.0878 22.9407 21.1821 0.612301 1.30218 1.66094
23.6795 20.9855 22.8173 1.34889 1.07036 -0.950101
21.2974 21.2327 21.8342 0.722221 -0.822597 -0.18989
21.6197 21.1321 24.5276 -0.798929 1.06218 -0.882046
ITEM: TIMESTEP
11000
ITEM: NUMBER OF ATOMS
34
ITEM: BOX BOUNDS ss ss ss
1.6181429514235859e+01 2.4261703699127764e+01
1.6184606849445583e+01 2.3848500780736703e+01
1.6340365734167957e+01 2.4575328399369194e+01
ITEM: ATOMS x y z vx vy vz
19.7207 16.1702 20.1866 0.189317 0.672361 -0.0249341
16.1861 19.5508 19.7327 -1.74232 -0.743899 0.302889
18.4082 18.123 18.7249 -1.18043 0.393461 0.307864
20.2763 19.563 17.1549 1.14283 2.16686 -0.389437
20.9854 18.6369 20.1324 -0.582882 -0.544773 0.396365
20.7201 17.1162 17.9303 -0.199387 -0.281084 -1.45175
22.758 18.9517 18.0978 -1.22274 -1.45716 1.88845
22.7153 16.5831 19.3863 0.26758 0.40596 -0.45798
17.9154 20.7812 18.0062 -0.62328 0.411836 1.40317
18.5454 23.3808 18.4146 -1.4929 -1.56967 0.758406
16.6609 22.0901 19.9897 -0.932838 0.81396 -0.519091
19.613 22.0506 16.2509 0.123805 -0.31722 -1.39337
23.5515 23.1066 18.5651 1.35927 -0.466364 -0.743657
20.3611 21.4188 19.0247 0.839477 0.358367 -2.05156
21.7637 23.588 20.6018 -0.200603 -0.122647 0.133016
23.0804 20.9665 19.8641 0.0561548 0.288229 -0.214159
21.2229 23.6991 17.9175 0.8235 0.00109044 2.8868
22.1817 21.4494 17.0161 0.510306 1.38984 -0.769116
19.4679 17.8293 22.3436 0.62108 -0.440657 0.889512
16.6801 19.5051 22.5097 -0.824492 -0.590488 2.11259
17.3161 17.4293 20.9381 0.537682 -0.727552 0.272705
21.7291 16.4419 22.0139 -0.121133 0.604258 1.00681
23.4145 18.5361 21.0984 0.455018 0.165799 2.08411
21.8185 18.7252 23.316 -1.02305 -1.28718 -0.410182
17.3075 22.1343 22.5224 1.54937 1.01087 -0.409946
18.5178 20.1748 20.6879 1.35966 0.515139 -1.36816
19.8593 22.8226 23.3761 -0.819912 -0.316146 -0.383637
19.1021 23.1782 20.7807 -0.382641 0.105651 -1.06565
19.1388 19.9985 23.5172 0.144217 -1.47812 -1.91092
22.2985 23.1956 23.1724 1.47663 -1.10642 -0.647402
24.1584 23.0642 21.1975 -0.651251 1.60928 -0.502113
23.5754 20.8869 22.5552 0.444282 0.190262 -0.568578
21.0089 21.0967 21.8549 1.43365 -0.693209 0.373263
21.3711 21.1854 24.5493 -1.33398 1.03938 0.465679
ITEM: TIMESTEP
12000
ITEM: NUMBER OF ATOMS
34
ITEM: BOX BOUNDS ss ss ss
1.6181429514235859e+01 2.4261703699127764e+01
1.6184606849445583e+01 2.3848500780736703e+01
1.6340365734167957e+01 2.4575328399369194e+01
ITEM: ATOMS x y z vx vy vz
19.9049 16.2517 20.1902 1.36741 0.977438 -0.404309
16.0266 19.3312 19.5784 0.618221 0.227485 -1.52903
18.5054 17.988 18.6257 -1.39561 -1.13738 0.72862
20.1395 19.6122 17.1035 -0.475952 0.0585167 -0.453582
20.8209 18.6407 19.9642 1.22186 0.134218 -1.13687
20.7755 17.0546 17.6313 1.07331 -0.890059 0.738666
22.7562 18.8516 18.2337 -0.464067 0.747269 0.765558
22.5897 16.5211 19.4535 0.801409 0.416358 -2.09031
17.9178 20.6871 17.9831 -0.402586 -0.105148 1.79521
18.1656 23.1087 18.1945 -0.263039 -0.628485 0.863878
16.5379 21.9913 20.1168 0.144492 0.0531677 0.418984
19.8686 22.0238 16.4054 1.18571 0.424683 0.51702
23.305 23.3812 18.5172 -1.453 -0.193515 0.735701
20.3815 21.4194 19.0969 -0.716009 1.71466 -0.133712
21.8853 23.5406 20.7024 -0.652095 -1.76592 -1.1953
23.298 21.0769 19.9983 1.12435 -0.425891 1.02121
20.6694 23.8783 18.1986 -0.53414 0.0194534 -0.466539
22.3449 21.2328 17.187 -0.00950037 -2.76587 0.671507
19.2782 17.8933 22.3041 -1.54811 1.89796 0.0896913
16.5369 19.7974 22.391 -1.95785 0.981093 0.707578
17.3324 17.5776 20.8939 -0.000530791 0.110401 -0.0232759
21.659 16.5106 22.0547 1.20716 -0.844486 -0.223449
23.2741 18.6292 21.1263 1.45095 0.724719 -0.870143
21.7435 18.7465 23.2376 -0.0697568 -1.15757 0.153249
17.5645 22.1606 22.4968 -0.839375 -0.211194 -0.287991
18.5609 20.1034 20.7493 0.789988 0.630729 -0.481665
20.1751 22.8716 23.3304 -1.33168 0.00700699 0.423954
19.1798 23.1824 20.6874 1.24913 0.422828 1.39894
19.215 20.2314 23.4915 -0.891566 0.355334 0.198323
22.5997 23.1992 23.3027 0.656071 -0.24724 -1.84042
24.3208 23.1598 21.1636 0.26013 -0.899665 0.0754385
23.56 20.8366 22.697 0.233775 -0.825161 -0.183812
21.1093 20.8405 21.7478 0.47322 1.73703 -0.164492
21.4281 21.0987 24.5751 -0.852327 0.457239 0.181378
ITEM: TIMESTEP
13000
ITEM: NUMBER OF ATOMS
34
ITEM: BOX BOUNDS ss ss ss
1.6313380533822635e+01 2.3786680049974379e+01
1.6259462788191890e+01 2.4303565100083169e+01
1.6543885098315531e+01 2.4471820624278905e+01
ITEM: ATOMS x y z vx vy vz
19.6293 16.0416 20.1563 -0.808289 -0.151752 0.481818
16.3141 19.3995 19.7985 -0.586398 0.814749 -0.656549
18.434 18.0606 18.5983 0.323725 -0.124461 1.39008
20.3317 19.4814 17.161 -0.532632 1.42883 -0.0318279
20.837 18.6721 20.1599 -0.0414547 -1.14832 0.794796
20.7272 16.9451 17.8499 2.17666 0.276147 0.728694
22.8776 18.611 18.2056 -0.802766 -0.68061 -2.17612
22.3204 16.4168 19.4969 -1.23305 -0.0400593 -1.83874
18.0326 20.7078 18.0575 -0.403449 -0.794483 -0.67507
17.9874 23.2812 17.9035 0.733334 -0.72127 -0.318192
16.6994 22.0147 20.0703 -1.10253 0.105205 -1.09237
20.1537 22.1981 16.6129 1.40544 1.08374 1.27737
22.8908 23.2485 18.6305 -0.498376 0.012948 -0.823046
20.478 21.6749 19.065 -0.987259 -2.20196 -0.520141
23.344 20.7513 19.8741 0.272983 -1.21209 0.881646
20.3924 24.2902 18.5533 0.130365 0.125685 0.444177
22.4706 21.0724 17.3273 2.20138 -0.27507 0.520627
19.245 17.7341 22.202 0.796226 2.49186 -0.721531
16.7561 19.3416 22.3904 0.386171 -0.13764 1.90349
17.0842 17.1976 20.6978 -1.21696 -1.02245 -0.23384
21.4714 16.6248 21.9527 -1.11785 -0.322386 -2.44124
23.413 18.3024 21.0647 0.30582 0.59395 0.890096
21.6916 18.9258 23.1407 0.922882 0.824548 0.682167
18.8424 20.3157 20.7754 -0.048601 -0.370908 0.907359
19.4486 20.3543 23.5549 0.714705 -0.447295 -0.163958
21.6124 23.9908 20.8842 0.296964 -1.93968 -0.475764
17.6437 21.8703 22.4029 -0.649479 -0.537681 0.702937
19.9244 22.9366 23.1277 -1.27722 -0.376587 0.814306
18.9582 23.4014 20.574 -1.5831 0.0471459 -0.000856225
22.5586 23.33 23.3459 1.45006 1.0703 1.44999
23.9984 22.9946 21.1532 2.6121 0.998107 -0.945256
23.6819 20.6015 22.6609 0.0645602 1.75239 0.0309582
21.4596 21.3338 21.5852 -0.769042 0.694574 -0.602933
21.7204 21.3076 24.3966 -1.13491 0.184513 -0.183088
ITEM: TIMESTEP
14000
ITEM: NUMBER OF ATOMS
34
ITEM: BOX BOUNDS ss ss ss
1.6091669463043729e+01 2.3716077519505351e+01
1.6190069029772790e+01 2.4444964991669135e+01
1.6659920727887659e+01 2.4365208381703599e+01
ITEM: ATOMS x y z vx vy vz
19.5729 15.9021 20.2011 0.901388 -0.0993832 0.356272
16.1924 19.4617 19.5747 -1.02365 -0.468686 0.929427
18.4824 18.149 18.64 -0.172332 -1.1745 -1.80144
20.5982 19.4247 17.3941 0.33435 1.4951 -1.57806
20.9978 18.4484 20.181 -0.0297968 1.07989 0.545034
20.7204 16.7914 17.8792 -0.134224 -0.0259657 0.905217
22.904 18.4014 18.248 1.22587 -0.0902668 1.29837
22.4418 16.3066 19.6309 -0.0522241 0.95083 0.22983
18.2228 20.8637 17.6277 -2.00315 -0.184588 -0.24838
17.9611 23.4874 18.0715 -1.68786 0.249019 1.49822
16.7871 21.868 19.92 1.31792 1.02446 -1.24248
20.1451 22.2874 16.651 0.30197 -0.579912 0.31448
22.7108 23.328 18.64 0.236322 -0.238753 1.21113
20.2558 21.7209 19.1721 0.217194 1.28711 -0.301761
23.0015 20.5838 19.7435 0.122141 -1.28071 0.857887
20.3426 24.3156 18.5548 -0.143511 -0.0313226 -0.880744
22.5067 21.2722 17.3426 -0.717987 -1.10596 1.76845
19.3445 17.8109 22.294 0.286865 -1.39354 -1.26855
16.8402 19.4965 22.3134 -0.237328 0.858555 -1.50466
17.2461 17.3754 20.7464 -1.90666 -0.225908 -0.3778
18.8822 20.1186 20.7346 0.0140837 -0.98318 -0.564284
21.4291 16.4151 22.0364 -0.579598 -0.334496 -1.03886
23.5283 18.4337 21.0834 -0.205212 -0.273412 1.18928
21.7341 18.9293 23.0617 -0.529435 -1.26141 0.518921
19.2587 20.1553 23.5135 0.720331 0.125441 -0.497216
17.7352 22.0768 22.5018 -0.682132 0.0516485 0.0213078
19.9913 23.0287 23.3124 0.000923716 0.705126 0.582339
18.6698 23.6558 20.5453 -1.13451 -1.49428 1.36155
21.4062 23.9818 20.9575 1.40106 -0.64887 0.248915
22.8857 23.2388 23.2263 0.940562 1.26985 -1.12435
23.9286 22.7317 21.0168 0.45098 1.88868 -1.45113
23.6868 20.6958 22.6026 0.910522 -0.515435 1.23327
21.283 21.4102 21.659 -0.303981 0.432103 -0.819363
21.7368 21.2634 24.3526 2.16111 0.99277 -0.370832
ITEM: TIMESTEP
15000
ITEM: NUMBER OF ATOMS
34
ITEM: BOX BOUNDS ss ss ss
1.6091669463043729e+01 2.3716077519505351e+01
1.6190069029772790e+01 2.4444964991669135e+01
1.6659920727887659e+01 2.4365208381703599e+01
ITEM: ATOMS x y z vx vy vz
19.8088 16.2487 20.273 -0.0931965 0.290004 -0.161024