ITEM: TIMESTEP
0
ITEM: NUMBER OF ATOMS
34
ITEM: BOX BOUNDS ss ss ss
1.5946984021438102e+01 2.4649566067683313e+01
1.6912246764361203e+01 2.4552231874551499e+01
1.6557895497967959e+01 2.4657460164525229e+01
ITEM: ATOMS x y z vx vy vz
18.4772 16.9861 19.5865 1.42074 0.281362 1.10161
18.6761 19.6996 19.6251 -0.111945 1.60587 -1.73278
18.2207 18.2408 17.1266 0.88254 -0.257948 0.65993
15.9511 20.7174 19.9588 2.36577 -0.688099 0.682588
16.2416 18.361 18.8436 -0.762929 1.98942 -2.55896
20.0133 20.1474 16.562 -0.0245239 0.159084 1.26086
20.7466 17.8522 17.9561 -1.77073 1.34848 0.352725
21.3214 20.3767 19.0049 1.21632 1.05256 0.226692
23.278 18.4517 19.2762 0.0913041 0.642318 -0.0376554
22.7055 19.4037 16.8134 -1.64543 -0.778534 -2.60733
17.5197 22.8685 19.6733 0.452441 0.287778 -1.14954
19.7252 24.5482 19.7648 -0.0208151 -0.376475 1.17702
19.5965 22.4404 17.9674 -0.13815 -0.737234 0.445203
17.3606 20.8106 17.5991 1.20617 -0.747657 0.390511
22.0807 21.9782 16.8252 0.847858 -0.890759 1.02743
21.9999 23.1725 19.253 -3.18707 -2.06841 -0.560472
23.9091 21.1192 18.7662 -0.207433 0.258454 1.52
18.9213 16.9163 22.2555 1.92315 0.382445 0.542807
19.3582 19.5709 22.548 1.15471 -0.413958 -0.194694
16.9771 18.6219 21.4571 -2.19954 -0.698321 -0.318168
23.4254 17.6474 21.8363 1.29635 0.250629 -0.292127
21.9639 20.2365 21.7923 2.21877 -0.874183 -0.55546
24.6455 19.9319 21.1656 0.623763 0.0772533 -0.722624
21.1685 20.1102 24.6534 -0.83124 1.05203 -1.20852
23.6423 19.5322 23.7508 1.45982 -0.144261 0.621787
20.8655 17.9278 20.6679 -1.83196 0.317198 -0.384532
21.2933 17.7763 23.4049 -0.962559 0.330925 0.418726
19.8627 22.1775 23.5379 -1.3031 1.20514 0.912556
19.8899 21.9378 20.7903 -1.52437 -0.53871 0.451687
18.5105 23.9814 22.0496 0.994784 0.349955 -1.07818
17.4537 21.4451 22.0642 1.24824 0.337356 1.27386
22.6211 22.141 23.693 -0.505777 0.00444139 -0.447632
21.3715 23.8878 21.9336 -0.492513 -1.43385 -0.241989
23.6365 22.4139 21.2272 -1.88264 -1.28431 1.02468
ITEM: TIMESTEP
1000
ITEM: NUMBER OF ATOMS
34
ITEM: BOX BOUNDS ss ss ss
1.5946984021438102e+01 2.4649566067683313e+01
1.6912246764361203e+01 2.4552231874551499e+01
1.6557895497967959e+01 2.4657460164525229e+01
ITEM: ATOMS x y z vx vy vz
18.4941 16.8611 19.7139 -0.483858 1.18834 1.04468
18.7023 19.8111 19.6473 1.12099 -0.388781 0.386512
18.3367 18.3182 17.1737 0.633077 -1.31065 -1.82986
15.9965 20.7017 20.0586 0.129874 -1.15395 0.764733
16.4404 18.3955 18.8414 0.123718 1.17645 -0.0967203
20.1956 20.0091 16.5628 1.51672 -0.805127 0.626455
20.8268 17.9264 18.0639 -1.18173 -0.764298 -0.158033
21.4736 20.4714 19.0114 -0.0965484 0.466363 0.0470626
23.2922 18.5779 19.4366 -0.00783844 0.950701 1.20117
22.6256 19.4909 16.8359 -1.38346 -0.0642603 0.0162031
17.5136 22.7902 19.6242 0.351179 -0.117076 0.322028
19.8105 24.5225 19.7619 0.374745 -0.158067 1.18967
19.6247 22.5244 17.8558 0.856811 0.689974 -0.271962
17.3745 20.7993 17.5526 -0.516562 0.00128834 -1.0187
22.0081 22.1067 16.8358 -0.247 0.654664 -0.0418776
22.1223 23.4352 19.1181 -0.774546 -0.522379 -0.123793
23.9142 21.0593 18.578 1.43093 -0.394777 -0.619836
18.944 16.838 22.2359 0.00540711 -1.28202 0.181723
19.2266 19.4444 22.8945 0.223681 0.442673 0.380865
17.0904 18.6892 21.3877 1.95242 0.940011 -1.26689
23.3091 17.5111 21.7203 0.456401 0.591745 -0.203168
21.6341 20.0577 21.8289 -0.830526 -0.0255107 -0.459086
24.5474 19.9516 21.3282 -1.6548 -0.209686 0.357157
21.21 20.0192 24.7087 0.297936 1.19536 -0.164815
23.6138 19.6693 23.5696 -0.975314 -1.34029 -0.498625
20.7408 17.8717 20.6489 -0.626443 -0.278809 0.127343
21.2247 17.7108 23.3826 0.96949 0.592006 -0.42331
20.1599 22.0652 23.448 1.12401 -0.577072 -0.570721
19.7628 22.0525 20.791 -0.564171 -0.232737 0.272534
18.5534 23.9445 22.0911 -0.869004 0.460903 0.463428
17.4387 21.5747 22.1927 -0.702794 0.548258 0.886447
22.7017 22.1505 23.5984 0.289422 -0.463562 0.165134
21.304 23.9525 21.8576 -0.227731 0.0103139 -0.916122
23.217 22.1262 21.0742 -0.714482 0.180009 0.230372
ITEM: TIMESTEP
2000
ITEM: NUMBER OF ATOMS
34
ITEM: BOX BOUNDS ss ss ss
1.5946984021438102e+01 2.4649566067683313e+01
1.6912246764361203e+01 2.4552231874551499e+01
1.6557895497967959e+01 2.4657460164525229e+01
ITEM: ATOMS x y z vx vy vz
18.3187 17.0298 19.5884 0.0179201 -1.84613 -0.430766
18.7127 19.7366 19.8093 1.73525 -1.26109 -2.29992
18.3054 18.2008 17.1987 -0.731555 0.934808 -0.432545
16.1 20.8676 20.1639 0.545081 1.10048 0.19777
16.1894 18.6477 18.8203 -1.19102 0.956951 -1.2048
19.9791 20.1909 16.5558 -0.435658 -1.27436 -2.01612
20.7427 17.9447 17.8639 -0.233345 -1.16932 0.315967
21.2851 20.3879 18.9362 -0.169264 -0.0918555 0.537684
23.3222 18.5313 19.3312 -0.480482 0.129679 0.830436
22.6983 19.4043 16.8781 0.164368 0.172816 2.62882
17.6528 22.8171 19.5637 -0.160147 0.381368 0.464219
19.7189 24.4284 19.6138 -0.235419 -0.430452 -0.245247
19.6901 22.5848 17.843 -0.410792 1.0323 -0.582619
17.5505 20.7791 17.6544 -0.303948 -0.769328 0.528142
22.193 21.8667 16.8484 0.609652 1.5191 -1.39111
21.981 23.0926 19.2644 1.67183 -1.92349 2.41609
23.9746 21.1952 18.7743 -0.339173 -0.249572 -0.657319
18.7791 16.9849 22.3395 -0.0895379 1.02239 0.68447
19.4054 19.4423 22.6936 1.21234 -0.531514 0.59481
16.8906 18.5875 21.4308 -0.105979 -0.974219 1.00929
23.4531 17.8337 22.0517 0.94324 -0.580978 -0.930595
21.9207 20.1271 21.731 0.647333 1.9019 0.820916
24.6877 19.8958 20.933 -1.34456 -0.886988 0.0392312
21.2101 19.7877 24.5414 -0.364046 -1.12398 -0.698348
23.8354 20.1596 23.487 0.338752 0.719248 -1.82575
20.7317 17.7396 20.5723 -0.246417 -0.180621 -0.0615433
21.2977 17.5291 23.2813 0.0513354 -0.250498 -0.065614
19.7276 22.0911 23.6159 0.0178051 0.333611 0.572109
19.9539 21.8498 20.9021 0.202136 -0.162795 -0.147023
18.5585 23.9994 21.9504 -0.696374 -0.158527 -0.56499
17.5799 21.3707 22.1477 -0.63382 0.77893 0.843575
22.2654 22.1497 23.8184 -0.721413 0.299657 0.192372
21.2189 23.959 21.8735 -0.810387 0.927587 0.262455
23.4996 22.2174 21.3523 1.5463 1.65489 0.615949
ITEM: TIMESTEP
3000
ITEM: NUMBER OF ATOMS
34
ITEM: BOX BOUNDS ss ss ss
1.5964472345531910e+01 2.4911743697450319e+01
1.6908971187040880e+01 2.4496909485050839e+01
1.6669106914964217e+01 2.4256375223533887e+01
ITEM: ATOMS x y z vx vy vz
18.2365 17.1256 19.3566 -1.28964 -0.401724 1.09382
18.6191 19.619 19.4881 0.592517 0.470645 1.90092
18.3263 18.3404 16.93 -0.168536 0.0366383 1.12616
15.8412 20.6803 19.8837 1.9904 -0.538517 -0.402055
16.0484 18.67 18.4448 0.276881 0.86009 0.323345
20.0754 20.0973 16.5308 0.843525 0.805663 -1.35486
20.5956 17.7149 18.246 -1.05388 -0.420535 -1.02622
21.2241 20.3314 18.9107 1.61895 -0.657946 -0.294291
23.0991 18.4565 19.5847 0.642027 0.12156 -0.0110034
22.6774 19.3583 17.102 -1.14062 -0.926751 -0.987394
17.5331 22.6162 19.7454 -0.631415 -0.620895 0.451475
19.5953 24.3261 19.749 0.071384 -0.187565 0.0557355
19.5636 22.3477 18.0473 0.0321031 0.394494 -0.155443
17.352 20.8518 17.5156 0.537528 -0.158906 -0.848679
22.0555 21.9503 16.8606 1.41741 -0.982353 0.194585
22.0706 23.0432 19.347 -0.932528 -0.161195 1.1036
23.875 21.2595 18.9374 1.25226 1.69 0.419507
18.5963 16.8919 22.1812 -0.125342 -1.02138 -0.350131
19.2246 19.4893 22.6685 -1.47484 -2.09104 1.41278
16.8187 18.7176 21.3815 -0.312665 -0.188316 0.0295598
23.1671 18.0859 22.3543 0.0736622 -1.09013 -0.259073
22.1388 20.4734 21.6908 -0.550358 0.291591 1.14371
24.8418 19.9865 21.0879 1.33049 1.63694 -0.318181
21.8066 19.8394 24.1342 -0.638001 -0.129096 -0.248503
24.4157 20.4225 23.3396 -0.627063 -1.13243 -1.87712
20.582 17.9787 20.7983 0.0776761 0.0412284 -1.88824
20.8729 17.4947 23.4347 0.295582 0.586191 1.10217
20.115 21.8384 23.5431 -0.147925 1.67059 0.367486
19.8749 21.7531 20.8416 -0.272262 0.59986 0.306778
18.6084 23.7651 22.0912 1.01848 2.11525 -0.499681
17.4416 21.2731 22.0228 -0.149445 -0.267155 0.081211
22.847 22.3346 23.7963 -0.472316 0.598356 -0.0341724
21.3966 23.6682 21.9593 -1.00099 -0.726467 0.842847
23.8938 22.6292 21.4252 -1.08306 -0.216687 -1.40063
ITEM: TIMESTEP
4000
ITEM: NUMBER OF ATOMS
34
ITEM: BOX BOUNDS ss ss ss
1.5964472345531910e+01 2.4911743697450319e+01
1.6908971187040880e+01 2.4496909485050839e+01
1.6669106914964217e+01 2.4256375223533887e+01
ITEM: ATOMS x y z vx vy vz
18.5005 16.7044 19.166 -0.263041 1.25155 -2.42934
18.6472 19.4406 19.7608 -0.431102 0.738156 -0.626991
18.3078 18.2486 17.0468 0.735254 -1.27362 1.00961
16.1503 20.6926 20.0971 0.799969 -0.0317852 -0.563391
16.3622 18.1985 19.0464 1.31114 1.08151 0.54077
20.1119 20.078 16.5259 0.0501733 -1.46284 -0.972254
20.7507 17.7937 18.036 -0.685976 -0.351787 -0.744444
21.1488 20.4448 18.9539 1.169 0.355588 1.2405
23.014 18.4892 19.5991 -0.924176 -1.06443 1.7632
22.6563 19.3776 17.0165 0.755106 -0.246514 -0.18891
17.4443 22.7845 19.5256 -0.20132 -1.66291 -0.972378
19.7628 24.4805 19.6773 -0.27564 -0.829158 2.13737
19.6004 22.44 17.7695 -0.336943 -1.15118 -0.624107
17.4604 20.7661 17.7024 1.46625 1.42114 0.703999
22.0364 22.0553 16.9431 -0.724949 0.248219 -0.300083
22.0149 23.0823 19.4353 -0.4334 -0.518143 -1.31563
23.8461 21.2238 18.9299 -0.462982 0.305802 -0.935412
18.5859 16.9721 21.6575 -1.01273 -0.320545 -0.0636566
19.2657 19.6347 22.6378 -1.68872 0.398222 1.25254
16.6281 18.743 21.6546 -0.91433 -0.0564471 0.204621
23.094 18.2939 22.2846 0.717025 0.0507375 -0.657971
21.9495 20.6241 21.5122 0.926696 0.682692 -0.805996
24.8092 19.8529 21.0409 0.104749 0.205868 -0.298919
21.669 19.6539 24.1614 0.895184 0.578687 -2.09247
24.2483 20.1969 23.4361 -0.265294 -1.63648 1.13912
20.7293 17.9516 20.7826 -0.0885268 0.848169 -0.512761
20.6235 17.516 23.3466 -0.451076 0.498073 0.358647
20.0691 21.9208 23.4921 0.264619 1.37553 0.102475
19.643 22.0063 20.6923 0.832805 0.0470384 1.93514
18.7592 23.9379 22.1561 -0.822718 -0.659533 1.20032
17.4417 21.4759 22.1317 -0.65358 -0.321554 0.974466
22.7399 22.2445 23.8182 -0.607385 1.43703 -0.688624
21.4073 23.724 22.0169 0.215651 -1.49278 0.389507
23.9524 22.3809 21.3767 1.00026 1.55571 -0.158952
ITEM: TIMESTEP
5000
ITEM: NUMBER OF ATOMS
34
ITEM: BOX BOUNDS ss ss ss
1.6302776784619773e+01 2.4755430675546105e+01
1.6754881603070103e+01 2.4649704965862107e+01
1.6276521370747361e+01 2.4076566913931245e+01
ITEM: ATOMS x y z vx vy vz
18.7712 16.7596 19.1445 0.968746 0.656744 -0.22763
18.6955 19.418 20.0684 0.407487 -0.278341 -0.476662
18.4458 18.4375 17.3401 -0.268304 -0.243042 -0.237749
16.3089 20.5564 19.8529 1.98952 0.171631 1.52193
16.4811 17.9349 19.7513 0.590435 -0.633511 1.20485
20.0297 20.3242 16.2818 -0.98167 -0.795751 1.21644
20.9338 17.7581 17.7451 -0.545806 -0.373233 -1.44826
20.9995 20.2025 18.7816 0.0481866 0.629597 0.0832437
23.072 18.4428 19.5137 -0.0975355 1.69819 0.923618
22.7366 19.5446 16.8416 1.11715 -0.727902 -0.829399
17.4359 22.8024 19.6427 -0.680081 0.105078 1.03954
19.828 24.6474 19.7247 -1.42534 1.77902 -1.00299
19.6589 22.7361 17.8411 -0.852382 0.407987 -0.648975
17.8239 20.9341 17.7889 2.29275 0.72496 0.458035
22.2123 21.993 16.9473 0.0800953 -1.02377 -1.68368
21.9248 23.1496 19.3411 1.37543 -0.285624 -0.531509
23.6306 21.1414 19.0833 0.769483 0.0910884 -0.123247
18.534 17.1695 21.6317 0.0310306 -1.08011 0.698689
19.4022 19.4997 22.7154 -2.0486 -0.471031 -0.403334
16.7799 19.1604 22.0493 1.34359 0.496027 0.896443
23.0204 17.9501 22.2557 -0.925535 0.346082 -0.244305
21.8857 20.4738 21.449 -1.81033 -0.673901 -0.579972
24.751 19.731 21.0334 -0.337478 0.145871 0.279076
21.5653 19.6391 24.0724 -0.285858 1.19659 -0.0533737
24.1597 20.116 23.3787 -1.0939 0.180764 0.304502
20.8917 17.802 20.6339 1.43952 -0.483087 -0.0953504
20.5873 17.3161 23.3742 -1.91213 -1.59143 -1.01372
20.0105 22.0573 23.4473 0.127631 -0.0446278 0.102667
19.6975 22.0019 20.5342 0.715413 1.05885 0.171478
18.3613 23.926 21.853 0.365413 0.0650491 1.11682
17.3983 21.5858 22.1427 0.377554 0.38091 -1.04708
22.4583 22.1381 23.7684 -0.333665 0.127185 -0.0514207
21.2521 23.8123 21.9524 0.41037 -1.75932 1.26299
23.6863 22.2684 21.4484 -0.851178 0.203063 -0.581682
ITEM: TIMESTEP
6000
ITEM: NUMBER OF ATOMS
34
ITEM: BOX BOUNDS ss ss ss
1.6302776784619773e+01 2.4755430675546105e+01
1.6754881603070103e+01 2.4649704965862107e+01
1.6276521370747361e+01 2.4076566913931245e+01
ITEM: ATOMS x y z vx vy vz
18.8269 16.6867 19.2629 -0.373519 0.170066 -1.03178
18.6665 19.476 19.9688 0.600294 1.00455 -1.6824
17.9501 18.5578 17.5485 0.1739 -1.6039 1.85881
16.213 20.4342 19.626 0.903311 0.012352 -0.0387734
16.6181 17.6782 19.7229 0.48795 0.164435 0.884027
20.3106 20.3803 16.3017 0.270864 0.217273 1.39844
20.4629 17.8982 17.911 0.603681 -0.0412729 -0.742985
20.9143 20.4944 18.7511 -0.801255 -0.56314 0.864512
22.9713 18.4992 19.3495 1.59613 0.398142 -0.375795
22.9244 19.4238 17.0062 0.00619842 0.605862 0.846196
17.1918 23.0055 19.7517 -0.517905 -1.08196 0.789306
19.4125 24.6283 19.7608 1.88304 -0.940183 -0.0519402
20.0801 22.9725 17.5619 -1.0572 -0.214888 -0.310636
18.2333 21.269 17.9856 0.282941 -1.15018 0.602369
22.3408 21.9463 16.8402 0.285349 0.0837169 1.04325
22.0313 22.9932 19.415 0.934141 -1.09797 -0.633258
23.7913 21.0203 18.9959 -1.08265 1.15497 -0.231933
18.3932 17.0692 21.923 0.697257 0.293309 -0.215216
19.2893 19.4428 22.6186 -1.31499 -0.689515 0.767258
16.6349 18.9526 21.9254 -0.798741 1.27074 -0.968665
23.2181 18.0541 22.3223 -0.688932 -0.289817 -1.95437
21.8528 20.4192 21.5263 1.25893 0.452568 -0.785727
24.7793 19.6497 21.0018 -1.28856 -0.0736173 0.0626141
21.6974 19.678 24.0837 -1.0333 0.172425 -1.24978
24.1744 20.2304 23.4468 -0.38241 0.613863 -0.189395
20.82 17.8536 20.7686 -0.0697653 0.501053 0.231069
20.8313 17.3349 23.3206 -1.05688 -0.665617 0.170028
20.01 21.9798 23.312 -0.330518 -0.930852 0.240798
19.6269 22.0167 20.5265 -1.46723 -1.29296 0.160756
18.3435 23.7469 22.1069 0.19757 2.22382 0.856179
17.2214 21.347 21.943 0.626961 0.490017 0.652382
22.5057 22.2619 23.6164 0.640059 -1.04878 0.486875
21.2395 23.8024 21.9183 -0.744582 0.700698 -2.27271
23.8529 22.227 21.31 1.55986 1.15479 0.820503
ITEM: TIMESTEP
7000
ITEM: NUMBER OF ATOMS
34
ITEM: BOX BOUNDS ss ss ss
1.6302776784619773e+01 2.4755430675546105e+01
1.6754881603070103e+01 2.4649704965862107e+01
1.6276521370747361e+01 2.4076566913931245e+01
ITEM: ATOMS x y z vx vy vz
18.692 16.8305 19.353 -0.0857768 0.208515 0.448427
18.6493 19.4898 19.8309 -0.799397 1.3869 -0.0595125
18.4007 18.3461 17.0913 0.822141 0.817393 -0.457239
16.0951 20.7507 19.7991 0.183099 -2.06695 0.958347
16.481 18.4308 18.9778 -1.25541 1.12043 -1.17039
20.2056 20.2013 16.4602 1.16578 0.219085 0.928927
20.7663 17.7083 18.056 -2.25002 0.521965 0.421464
21.1156 20.3265 18.9751 0.254299 1.75597 0.629782
23.1375 18.3153 19.299 -0.224578 0.428781 -1.48138
22.6722 19.4657 16.9062 -1.33321 -0.964186 0.507506
17.3486 23.1068 19.6272 0.772949 0.209742 0.208008
19.5092 24.5116 19.7116 -0.666368 -0.910153 0.958512
19.5574 22.532 17.8906 -0.459697 -1.51923 -1.05668
17.6629 20.9421 17.6788 -0.312853 -1.23598 -0.424729
22.1508 22.0004 16.9108 0.967933 0.466924 -0.273587
21.8479 23.1232 19.5003 0.480117 1.44359 0.0189734
23.5841 20.9885 18.9667 2.3471 0.419461 0.516117
18.508 17.1108 21.9839 0.103404 -1.22535 1.25491
19.3991 19.4974 22.6796 -1.23419 1.56638 -2.28816
16.7718 18.9249 21.6083 -0.355797 -1.13758 0.301418
23.2542 18.0061 22.2617 0.282301 0.328795 0.841871
22.0532 20.2829 21.6207 -1.5679 -0.0115187 -0.318665
24.73 19.7907 20.8778 0.997693 -0.882969 -0.0176151
21.5867 19.712 24.2707 0.584358 0.248032 -1.60512
24.119 20.2867 23.3646 -1.24304 0.0552236 -0.103698
20.9088 17.7691 20.7733 0.479749 -2.37169 -0.384539
21.0825 17.4716 23.4748 -0.00480827 0.366499 0.636249
19.976 21.9298 23.6245 -0.706417 -0.843516 1.04754
19.6842 21.8512 20.8228 -0.179762 -0.0398743 1.00598
18.4795 23.9411 22.0132 0.342604 -0.0432078 -0.650125
17.531 21.4384 22.162 0.738689 -0.0730144 0.0991547
22.5524 22.2198 23.631 1.41149 0.498683 -0.973567
21.1489 23.8247 21.8846 -0.31643 0.916687 -0.331238
23.7687 22.303 21.342 1.06195 0.346163 0.813062
ITEM: TIMESTEP
8000
ITEM: NUMBER OF ATOMS
34
ITEM: BOX BOUNDS ss ss ss
1.6105464630867562e+01 2.4785285131878410e+01
1.6845436493012659e+01 2.4467898635737946e+01
1.6504053176682774e+01 2.4200767097181494e+01
ITEM: ATOMS x y z vx vy vz
18.2697 16.9895 19.6712 -0.960174 -0.316461 0.868334
18.722 19.616 19.4389 1.92207 -0.0657694 1.83537
18.2029 18.2161 17.1015 1.2162 -0.203219 1.02858
16.1946 18.5433 18.7405 -0.743114 -0.377261 -0.110287
20.1108 20.0133 16.5069 -1.89278 0.159769 0.369479
20.5803 17.8326 18.0572 0.0335547 -1.52996 -0.48527
21.3424 20.3145 18.9114 1.014 -0.463526 0.472335
23.1492 18.395 19.5075 -1.07568 1.35356 0.794137
22.8624 19.2711 16.9465 1.32374 1.97477 0.898712
16.1258 20.8041 19.8007 0.00794213 -0.0287707 -0.185825
17.37 23.0279 19.7429 0.280122 -0.181199 -0.476232
19.6093 24.4411 19.8068 0.282801 -0.243357 0.638327
19.3777 22.3073 18.1639 -0.809696 0.374092 1.63587
17.3839 20.674 17.3457 1.78727 -0.152355 0.102674
22.1047 21.923 16.9342 1.03792 0.500255 -0.75109
21.8863 22.9054 19.5203 1.01007 0.636144 0.789307
23.8434 21.0977 18.8781 0.473637 0.00956806 -0.831929
18.7239 17.0401 22.1183 -2.47412 -0.179377 0.849473
19.3956 19.5974 22.3992 0.181602 0.725013 -1.44329
16.9653 18.8287 21.3429 0.03617 -0.935315 -1.20877
23.2758 18.2345 22.2681 -0.0359174 -0.738128 -1.08287
22.093 20.3337 21.5315 1.22785 -0.241334 -2.41256
24.8553 19.9459 20.9171 1.12454 -0.787214 -1.21234
21.7202 19.758 24.184 0.393492 2.70761 0.504097
24.1703 20.4396 23.4511 -0.0756854 0.142897 -1.15353
20.8638 17.8305 20.6359 -0.759096 -2.3828 -1.22925
20.9315 17.4696 23.2307 -0.73633 -0.227193 -0.678253
19.9459 21.8432 23.6146 -1.03517 1.52367 1.10153
19.6983 21.8028 20.9053 0.263647 -1.49377 1.33348
18.5744 23.9205 22.1998 1.13726 0.341815 0.540896
17.4211 21.6461 22.2228 -0.0106629 0.281081 0.775062
22.6798 22.2711 23.9232 -1.8437 -0.26142 0.244811
21.2854 23.6776 21.9754 -1.46999 0.106186 -1.14475
23.6953 22.4189 21.4361 -0.831771 -0.0279909 -0.376248
ITEM: TIMESTEP
9000
ITEM: NUMBER OF ATOMS
34
ITEM: BOX BOUNDS ss ss ss
1.6105464630867562e+01 2.4785285131878410e+01
1.6845436493012659e+01 2.4467898635737946e+01
1.6504053176682774e+01 2.4200767097181494e+01
ITEM: ATOMS x y z vx vy vz
18.4577 16.778 19.4752 -1.5909 -0.31403 -0.10531
18.6523 19.6714 19.734 -0.244433 -0.684795 0.771766
18.3532 18.6544 17.1957 -0.717504 -1.19214 -0.0997497
16.421 18.4802 18.7967 -1.89439 0.136028 -0.204473
20.1338 20.3375 16.3106 1.81355 -0.555185 0.722973
20.632 17.8282 18.0631 -0.196189 -0.235964 -0.0930785
21.1112 20.3987 18.7196 0.4781 -0.68479 0.510036
23.0193 18.388 19.5031 1.30211 0.503898 0.328041
22.767 19.2716 16.9937 1.02181 0.182675 2.3943
16.0648 20.7829 19.9705 -0.745025 -0.0322757 -0.496881
17.4577 22.9058 19.6766 0.89814 0.704602 -0.0954667
19.8036 24.5013 19.7826 -0.0244782 1.16462 0.754692
19.5488 22.5149 18.0382 -0.641721 -0.280397 0.809388
17.3782 20.8929 17.7909 0.442868 -1.52692 0.474275
22.2194 21.9725 16.7831 -1.45062 1.288 -0.323198
22.0093 23.0504 19.1541 2.5674 -1.06753 0.892466
23.7217 20.9863 19.0167 0.148072 -0.0180966 0.00897428
18.6017 16.8423 22.168 -0.461918 -0.467752 0.874225
19.3854 19.4804 22.5352 0.360465 1.24792 -1.54853
16.9357 18.5504 21.3761 0.464848 -0.211057 -1.28601
22.9468 18.2954 22.3352 0.102449 0.468437 -1.81058
22.0206 20.5917 21.5134 0.339811 0.203482 -1.08944
24.9495 19.8456 20.9224 -0.179625 -0.90459 -1.3844
21.7532 19.7764 24.306 0.666438 -0.1926 0.0796433
24.1085 20.3938 23.4327 -1.18442 0.346696 -0.495639
20.5837 17.8724 20.7108 1.84212 0.209559 -0.303673
20.8588 17.4646 23.4872 -1.30051 -0.278925 -1.16127
19.9098 21.7953 23.5344 -1.19422 0.255989 0.971064
19.7582 21.8413 20.7623 -0.57902 -0.821899 1.00585
18.6017 23.6452 22.0058 -0.115651 0.614745 1.58857
17.4947 21.1678 22.3104 0.631144 0.547873 0.272544
22.405 22.2999 23.7819 -1.20333 1.75782 -1.04745
21.4821 23.7737 21.7672 0.537541 -0.883858 -0.024374
23.8836 22.3784 21.4766 0.107085 0.720466 -0.889289
ITEM: TIMESTEP
10000
ITEM: NUMBER OF ATOMS
34
ITEM: BOX BOUNDS ss ss ss
1.6105464630867562e+01 2.4785285131878410e+01
1.6845436493012659e+01 2.4467898635737946e+01
1.6504053176682774e+01 2.4200767097181494e+01
ITEM: ATOMS x y z vx vy vz
18.3416 17.0986 19.5596 0.245469 -0.603844 0.832856
18.5563 19.8036 19.3265 0.209765 0.362521 0.363292
17.961 18.4905 17.0555 -0.666313 -0.134052 0.870073
16.1557 18.3232 18.7383 0.46539 -0.109405 0.366477
20.0392 20.1452 16.4926 1.24474 -0.350388 -2.13905
20.5277 17.9975 18.0044 -0.0348777 -0.440674 -0.21426
21.2808 20.5655 18.8492 -0.458173 -0.644735 -0.148702
22.927 18.4248 19.4462 -0.458718 -1.54526 -0.658496
22.8956 19.4843 16.9151 -0.632617 0.665182 0.85051
15.8874 20.4758 19.7104 -0.025408 -0.0828633 0.443774
17.4609 22.6443 19.7534 0.118161 0.0757752 0.928976
19.6676 24.3297 19.7982 -0.118917 2.25184 -0.180312
19.6049 22.4573 17.9416 2.15981 0.994359 0.449299
17.3616 21.0414 17.3514 0.738114 -1.33663 1.63418
22.1659 21.9729 16.84 -0.465761 0.540031 1.49321
22.0252 23.0616 19.3721 0.943571 1.09432 -0.195362
23.9321 21.045 18.7501 0.473509 -0.172848 0.434862
18.8277 16.8238 22.344 -0.967286 -1.05082 -1.94467
19.3314 19.4949 22.7428 -0.591633 -1.05819 0.339546
17.2353 18.6295 21.358 -0.101903 0.919724 -1.32894
23.1382 18.2421 22.6002 -0.664397 -0.328978 2.28699
22.0441 20.4213 21.675 -0.0575772 -0.276519 0.884722
24.6878 19.7662 20.886 0.973223 -0.48731 -3.14513
21.5176 19.7631 24.3188 -1.86072 -0.0903379 0.345419
24.3128 20.4369 23.482 0.560737 -0.644379 -0.161744
20.6073 18.1729 20.7427 1.31704 -0.220134 0.383238
21.0032 17.4035 23.6202 -0.611963 0.0239064 -0.370852
20.0092 21.9469 23.5583 0.968613 0.678054 -0.194452
19.8072 21.7269 20.9143 -0.967695 -0.149135 0.0827734
18.6755 23.8525 22.1096 0.420149 0.205955 0.991562
17.5133 21.2608 22.0276 0.357959 -1.47818 0.11904
22.5626 22.2582 23.9293 -0.459218 2.683 -1.91781
21.4434 23.6495 21.9259 -2.55772 0.872274 -0.409003
23.9229 22.2197 21.2906 0.504637 -0.162265 -1.09201
ITEM: TIMESTEP
11000
ITEM: NUMBER OF ATOMS
34
ITEM: BOX BOUNDS ss ss ss
1.6105464630867562e+01 2.4785285131878410e+01
1.6845436493012659e+01 2.4467898635737946e+01
1.6504053176682774e+01 2.4200767097181494e+01
ITEM: ATOMS x y z vx vy vz
18.4681 16.6865 19.2606 -0.287509 -0.994325 -2.58517
18.4758 19.4387 19.7811 -0.435792 1.36808 -0.28575
18.0742 18.2072 17.1912 -1.14866 0.0490034 0.681572
16.3444 18.1211 19.3199 -0.278685 -1.75982 0.604725
20.0304 19.9965 16.4271 0.362375 0.361735 -0.536448
20.5291 18.0302 18.0623 0.758339 0.33693 0.603513
21.0352 20.5076 18.9184 0.433562 -0.299879 0.24513
23.1571 18.7207 19.4437 -0.84277 0.454218 0.0142338
22.6041 19.3295 17.1193 0.28751 -0.480808 -1.25662
16.1792 20.8134 19.9616 -0.0457486 -0.966842 0.458527
17.533 23.1003 19.4814 1.67092 -1.21605 -1.09301
19.7888 24.35 19.7194 0.408072 2.01209 -0.098043
19.7101 22.5997 17.6927 0.751586 2.07492 1.45144
17.7163 20.9075 17.7489 0.284285 -1.06771 0.628568
22.1521 21.8757 16.779 -1.0707 0.0961983 1.96699
22.0742 23.0532 19.2961 0.849779 -1.04944 -0.575677
23.7852 21.2197 18.928 0.881576 -0.234221 -0.00292694
18.6294 17.0445 21.6793 -0.207434 -0.696981 -0.838127
19.2231 19.4432 22.6159 -0.0354907 1.25094 0.680277
16.6128 18.8264 21.875 -1.20217 -0.678651 0.613985
23.3269 18.2168 22.1297 -0.673278 -0.43927 -0.348689
22.1395 20.6436 21.3939 -0.37582 1.32399 0.694606
24.9613 20.0296 21.2198 0.729664 0.212349 0.872194
21.6541 19.6083 23.9478 1.4999 0.347667 -1.41899
24.2223 20.3794 23.637 1.39206 -0.796477 0.95911
20.9316 17.9874 20.7253 -0.583811 1.0438 0.313222
20.8121 17.2813 23.2318 -1.56722 -0.174074 1.3613
19.8361 21.8356 23.4543 0.75732 -0.659091 -1.31355
19.5312 21.8462 20.7156 0.301754 0.346972 -0.180267
18.6884 23.8519 22.083 -1.14481 0.33301 0.302077
17.2063 21.5628 22.1573 1.42389 -0.268392 0.760678
22.489 22.2262 23.9261 -0.829739 0.6018 0.348126
21.4869 23.2658 21.8222 -0.539073 -0.468293 -1.58691
24.0214 22.4236 21.6856 -1.52389 0.0366016 -1.44011
ITEM: TIMESTEP
12000
ITEM: NUMBER OF ATOMS
34
ITEM: BOX BOUNDS ss ss ss
1.6286361897170679e+01 2.4640717055491962e+01
1.6522845697853743e+01 2.4542597579122688e+01
1.6544514927976312e+01 2.4180695768985874e+01
ITEM: ATOMS x y z vx vy vz
18.9592 16.674 19.2083 0.23049 -0.0321954 0.100229
18.7923 19.2973 20.2102 0.709112 1.47691 -0.0751752
17.9591 18.5376 17.5512 0.591869 1.13862 0.402317
16.5899 17.9042 19.6844 -1.78169 0.576217 -0.460937
20.1041 20.3662 16.2247 0.0527968 -1.48832 -0.372382
16.4368 20.4976 19.8346 -0.994681 0.984072 0.145472
20.6859 18.0338 17.8705 -1.03089 0.715214 1.88834
21.0452 20.4647 18.788 -0.311063 0.275265 -0.354969
23.1005 18.3987 19.5794 0.666929 2.20712 1.77689
22.5073 19.4381 16.7462 0.37899 -1.36069 1.10675
17.463 23.0017 19.5096 1.19673 -0.208717 -0.864099
19.875 24.4615 19.7608 1.57588 -0.924013 -0.654038
19.9545 23.0025 17.6442 -0.129946 -0.0203867 -0.534425
18.1902 21.1626 17.8282 -1.09374 -1.8286 -0.34119
22.1683 22.076 16.776 1.00353 1.22234 -0.459208
22.1811 23.1873 19.3533 -1.07135 0.964536 0.320933
23.7453 20.9941 18.7651 -0.778846 0.531368 -0.552275
18.4814 17.0058 21.7258 -0.739864 -1.63205 0.559339
19.1548 19.4164 22.8291 -0.660485 0.419074 -0.6873
16.4949 18.8326 22.166 -0.659453 0.438168 -0.122305
23.1252 18.0754 22.4962 0.278829 0.247809 0.0155665
21.7762 20.3155 21.5133 1.13647 1.20933 1.23414
24.808 19.8913 20.9491 -1.92031 0.0507112 -1.34356
21.4394 19.7243 24.1485 0.170679 -0.865367 -2.27031
24.1473 20.3273 23.3051 0.532823 -0.202946 0.915234
20.8831 17.788 20.7879 -0.0504231 -2.33923 0.0632741
20.6434 17.292 23.2485 2.63234 -0.964659 -1.53421
19.8861 21.9583 23.1756 -0.206962 -0.822331 0.168761
19.4655 21.9604 20.5195 1.0558 -0.454794 0.307388
18.312 23.9223 21.9151 0.953817 -0.474945 0.641164
17.329 21.4177 22.1657 -1.17369 -0.385275 -0.0196803
22.4884 22.1915 23.8403 0.193392 0.468707 0.0839813
21.3728 23.5659 21.8941 0.877533 1.19464 0.604801
23.8648 22.2476 21.4153 -1.63463 -0.115562 0.311475
ITEM: TIMESTEP
13000
ITEM: NUMBER OF ATOMS
34
ITEM: BOX BOUNDS ss ss ss
1.6286361897170679e+01 2.4640717055491962e+01
1.6522845697853743e+01 2.4542597579122688e+01
1.6544514927976312e+01 2.4180695768985874e+01
ITEM: ATOMS x y z vx vy vz
19.0549 16.4908 19.189 0.677392 1.1211 0.762353
18.5672 19.3428 20.1772 -0.0710339 -1.50103 0.664627
18.2881 18.4336 17.4996 0.224766 0.730163 0.624205
16.598 17.5623 19.4649 -0.231597 -0.182907 0.39342
20.1614 20.133 16.2274 0.301224 1.40158 -0.0154166
16.1767 20.6002 19.7431 -1.6232 0.730656 -1.12622
20.8101 17.8338 17.631 -0.44346 0.744685 -0.0290322
20.8875 20.298 18.7016 0.400292 0.950436 0.0566983
23.0575 18.4582 19.4808 -0.91104 0.821857 1.36404
22.7537 19.6019 16.6845 -0.894641 0.302457 -0.760951
17.3887 23.1963 19.7955 0.349538 -0.00456732 1.96312
19.8189 24.469 20.0526 -0.687902 -0.0594847 -3.17734
19.9045 23.011 17.9045 0.183569 -1.25174 -0.67531
18.1425 21.0426 17.9613 1.16304 -1.62427 0.813733
22.0287 21.9819 16.7444 0.840319 0.78367 -1.00048
21.9939 22.7789 19.4096 2.73124 1.0842 -0.0105041
23.8478 20.8491 18.8523 0.573404 0.0800362 -0.635754
18.4238 17.0715 21.7237 0.0363379 0.884131 2.31999
19.101 19.5094 22.8153 0.629081 -0.973655 0.513586
16.5513 18.9696 21.9357 -0.28548 0.803936 -1.4035
22.8935 18.0813 22.2088 -0.733407 -0.426658 -1.20822
21.8633 20.7133 21.4839 0.559151 -1.39896 0.786749
24.7275 19.5612 21.0708 0.925812 0.0399309 -0.119249
21.7195 20.1671 24.1237 0.204294 1.4286 0.150118
24.1683 20.2665 23.3329 -1.15864 0.0105168 -0.456806
20.697 17.9197 20.6354 0.438943 0.0403567 0.00287172
20.706 17.6501 23.4 -0.407097 0.192946 -0.538653
19.7319 21.9899 23.4067 -0.32882 -1.15113 -0.7917
19.4835 21.8137 20.5958 -1.18499 -1.67658 0.261695
18.5124 23.9941 22.1887 1.37518 -0.486218 1.47917
17.2756 21.4963 21.9371 -0.836396 -1.02725 -0.246166
22.6803 22.4345 23.7071 -1.20131 -0.706423 0.284495
21.3692 23.5398 21.9522 -0.279587 0.949508 0.15486
24.0458 22.1685 21.393 -0.334977 -0.629882 -0.40043
ITEM: TIMESTEP
14000
ITEM: NUMBER OF ATOMS
34
ITEM: BOX BOUNDS ss ss ss
1.6286361897170679e+01 2.4640717055491962e+01
1.6522845697853743e+01 2.4542597579122688e+01
1.6544514927976312e+01 2.4180695768985874e+01
ITEM: ATOMS x y z vx vy vz
18.9077 16.4452 19.1742 0.961479 -0.656176 0.388012
18.8246 19.1585 20.1681 0.0623929 -0.23506 1.14661
18.1244 18.5912 17.4918 0.313796 -1.0924 0.298604
16.5801 17.7496 19.6179 0.658598 0.811875 -1.09993
20.0419 20.2752 16.3323 0.542568 0.208941 -1.14013
16.2849 20.3383 19.8738 -0.741689 -1.88595 -0.33262
20.6021 17.7747 17.895 -0.133876 -0.448922 1.29299
20.9895 20.4341 18.7853 0.973991 0.251231 -0.53291
22.9833 18.6104 19.4764 0.506507 -1.47697 -1.75724
22.5292 19.4297 16.9347 -2.14136 0.817001 -1.73624
17.6552 23.2173 19.5297 -0.370727 0.792041 1.58147
19.9314 24.6883 19.7527 0.946716 -0.607452 -0.096369
19.8813 23.1462 17.58 -0.0891365 -0.253893 -0.717152
18.0442 21.1014 18.0482 0.850089 -1.17371 -0.370128
22.0273 22.0016 16.7231 -0.318698 0.94462 -0.0959198
21.9307 22.9964 19.3366 0.742888 -0.0789548 1.64946
23.659 21.0034 18.9376 -0.720823 0.903457 -0.926403
18.4607 17.0012 21.8403 -1.52175 1.41576 -0.134801
19.2598 19.4057 22.619 -1.85945 0.92661 0.107101
16.5882 18.9257 22.0927 -2.21946 -1.31682 -1.38214
23.1102 18.0037 22.2358 0.867197 -0.962784 0.0918842
21.8824 20.3435 21.4819 1.57344 1.91957 -1.0742
24.6682 19.7927 21.0759 1.07454 -1.32871 0.532766
21.4015 19.8427 24.0839 1.1617 1.22775 -1.01094
23.8766 20.3211 23.4381 -0.0216761 1.32957 0.000689641
21.0295 17.5429 20.7375 -1.13524 -0.429257 0.867644
20.9547 17.177 23.2215 0.222714 1.64867 -0.583117
19.7786 21.9701 23.1875 -0.624585 1.34105 1.24494
19.6796 21.985 20.4545 -0.146861 -0.600986 0.246809
18.8279 24.1231 21.949 0.495632 -0.678004 1.04755
17.433 21.6429 22.0419 -0.975123 -0.035741 0.560635
22.2986 22.2847 23.83 0.397897 0.769668 0.686811
21.4261 23.7664 21.9624 -0.0207416 -0.458777 -0.387266
23.7575 22.3399 21.5206 0.689042 -1.58726 1.63352
ITEM: TIMESTEP
15000
ITEM: NUMBER OF ATOMS
34
ITEM: BOX BOUNDS ss ss ss
1.6286361897170679e+01 2.4640717055491962e+01
1.6522845697853743e+01 2.4542597579122688e+01
1.6544514927976312e+01 2.4180695768985874e+01
ITEM: ATOMS x y z vx vy vz
18.6981 16.6788 19.3537 -0.325771 -0.107298 1.10521