ITEM: TIMESTEP
0
ITEM: NUMBER OF ATOMS
34
ITEM: BOX BOUNDS ss ss ss
1.6504188999034906e+01 2.4126792145924700e+01
1.5567265151105932e+01 2.4338286453962770e+01
1.6285957022482272e+01 2.4251256075853952e+01
ITEM: ATOMS x y z vx vy vz
18.8721 19.7163 20.1061 1.24066 0.537143 1.18308
17.4734 17.7326 18.7531 0.568774 -0.0711759 0.047322
19.6108 18.9461 17.4833 0.0594047 0.0364723 -0.468756
20.0953 17.1628 19.5607 0.706086 -0.906591 1.10067
22.2771 18.5177 18.4449 0.696656 -0.0175863 -0.471896
20.1481 23.9189 17.7155 0.045544 0.638023 0.223907
19.4401 21.5488 16.6303 0.859876 0.664911 1.32612
18.4735 22.4195 19.2426 -1.51068 -0.656174 -2.25698
17.2831 20.3364 17.9518 -0.750325 -1.16322 0.239632
21.7771 20.0337 16.29 1.62539 -0.995153 -0.683776
22.1413 22.5936 16.5881 0.323582 0.37632 -1.46956
23.6126 20.9356 18.2736 0.746023 -0.381574 0.140523
20.9889 21.1603 18.825 2.33159 -0.51056 0.421927
22.4685 23.4999 19.1012 -1.7561 -1.63416 1.0512
17.9702 16.0459 20.8026 -1.15818 2.46492 -2.66188
16.7147 18.4115 21.2459 0.0807485 0.541456 1.69874
19.2525 17.8825 22.2957 -1.99658 0.355803 -0.315142
23.33 19.7499 22.9689 0.168948 1.3799 -2.27583
22.6725 16.7919 20.5812 -2.12869 1.1674 -0.0457254
20.6734 19.8298 23.6807 -0.704548 0.885036 -1.25641
20.5167 15.5713 21.6909 0.811442 0.381571 -1.32457
24.1227 19.1077 20.3748 1.27343 -0.958106 -0.276057
21.457 19.2376 21.0245 -1.28795 0.152185 0.27902
21.9026 17.4247 23.0828 -0.0271873 -0.1017 1.46141
17.9749 23.0295 21.9265 2.17247 0.629741 0.844593
16.5083 21.0493 20.5323 0.280873 0.0163696 1.7406
18.0355 20.3721 22.6974 1.58866 -0.168032 1.10439
19.354 22.1185 24.2472 0.745085 -0.709817 0.621058
20.1792 24.289 23.0715 0.115997 -0.18326 -0.190441
20.0901 24.3342 20.3816 -2.0187 -0.540533 -0.362629
23.12 21.57 20.9527 1.50322 0.774666 -0.044605
22.0873 22.1802 23.6146 -0.822394 0.979068 0.754639
22.4537 24.0855 21.7354 -0.986234 -0.768061 0.287534
20.3529 21.8266 21.557 -2.79689 -2.21528 -0.422101
ITEM: TIMESTEP
1000
ITEM: NUMBER OF ATOMS
34
ITEM: BOX BOUNDS ss ss ss
1.6504188999034906e+01 2.4126792145924700e+01
1.5567265151105932e+01 2.4338286453962770e+01
1.6285957022482272e+01 2.4251256075853952e+01
ITEM: ATOMS x y z vx vy vz
19.0158 19.7792 19.9267 -0.166226 0.347439 1.67273
17.4255 17.7575 18.8191 0.231694 0.187711 0.112603
19.5059 18.924 17.276 -0.965713 0.834555 -0.527476
20.1019 17.1853 19.4721 -0.676357 -0.0805225 0.196808
22.3032 18.2813 18.3192 0.348735 -0.303476 -1.03672
20.1612 23.9244 17.7977 0.115771 -0.146326 -0.776285
19.3936 21.5279 16.5976 0.218387 -0.763248 1.14797
18.4855 22.3117 19.1197 1.42764 -0.0721205 -0.982223
17.2684 20.2541 17.9173 -0.515819 0.476547 -0.213651
21.6754 20.1811 16.401 0.610637 0.591317 0.416417
22.0275 22.7365 16.5026 0.251122 0.326862 -0.298146
23.5249 20.8564 18.3319 -0.393082 -0.421337 -0.0880822
21.0099 21.2084 18.773 0.993361 -0.250962 1.50544
22.3568 23.4316 19.2361 -0.336303 0.299015 -1.20172
18.0192 16.06 20.7614 0.172958 -0.19718 0.622005
16.7812 18.3606 21.2806 0.745364 0.170648 -0.921715
19.2362 17.9243 22.3699 -0.540529 0.576477 -1.33985
23.256 19.7488 23.0165 -0.738621 1.14487 -0.786425
22.6787 16.8326 20.5251 -1.15705 -1.12126 -0.271065
20.4665 19.8587 23.7981 0.231892 0.382085 0.757732
20.4732 15.7181 21.8168 1.10353 -1.2411 -0.574339
24.0984 19.0109 20.3612 0.283671 -0.161694 0.953096
21.5363 19.278 21.0102 0.586424 -0.517273 -0.244256
21.8916 17.589 23.1318 -1.48923 -0.381058 0.496111
18.0268 23.0519 21.7293 -1.11046 -1.34076 0.48089
16.5787 20.8665 20.5056 0.264638 -0.630544 0.247531
18.0592 20.3418 22.8285 -0.0524391 0.0701381 1.59857
19.302 22.2253 24.2341 1.07315 -0.825761 -0.932672
20.3007 24.1729 23.1433 -0.938954 1.22115 -1.01916
20.0373 24.3925 20.4724 0.0339471 0.0314984 0.457868
23.3849 21.6243 20.9142 -0.665174 0.814867 -0.43972
22.1532 22.0709 23.7074 0.279421 -0.695653 -0.328797
22.4089 24.0403 21.8465 -0.17074 0.221065 0.544836
20.4855 21.9032 21.4871 0.944353 1.45403 0.771692
ITEM: TIMESTEP
2000
ITEM: NUMBER OF ATOMS
34
ITEM: BOX BOUNDS ss ss ss
1.6504188999034906e+01 2.4126792145924700e+01
1.5567265151105932e+01 2.4338286453962770e+01
1.6285957022482272e+01 2.4251256075853952e+01
ITEM: ATOMS x y z vx vy vz
18.7762 19.7603 20.0734 -1.71534 -0.154869 -0.161346
17.4711 17.7061 18.6867 2.27614 0.939154 -1.91199
19.5352 19.0233 17.4563 0.458699 -0.731849 1.69435
20.0891 17.1182 19.4131 -0.247362 -0.148966 0.370359
22.1925 18.602 18.4018 -0.373171 -0.634481 0.155813
20.0247 23.9497 17.7936 1.05998 0.384666 1.17586
19.5765 21.61 16.6082 -0.772818 -0.281302 -1.04251
18.4647 22.3644 19.2004 -0.795278 0.65318 0.32233
17.3106 20.2816 17.9014 -0.543434 -0.503751 0.776735
21.6414 19.9898 16.2179 -0.450853 -0.615248 1.63551
22.0817 22.4384 16.7692 0.19516 0.0130825 -0.172139
23.6373 20.8954 18.1586 -1.00605 0.575176 -0.643921
20.9971 21.1265 18.8809 0.0308839 -0.324692 -1.23326
22.3947 23.4583 19.1754 0.378059 0.645789 -0.875698
18.0013 16.1567 20.7725 -1.36338 0.26381 0.232235
16.8072 18.3883 21.2777 -0.811756 -0.641098 -1.24983
19.2539 17.9562 22.4024 -0.821701 -0.907696 0.71537
23.1595 19.9157 22.929 -0.177892 0.12028 -0.384324
22.6756 16.7651 20.5839 0.582272 -0.879684 -0.919821
20.637 19.8327 23.6834 0.674129 0.42728 -1.29826
20.6339 15.8148 21.7239 0.839301 1.00784 1.21836
24.1002 19.0197 20.264 0.146888 -0.387785 -0.474535
21.4196 19.1196 21.0206 0.618563 -0.557167 0.133968
21.909 17.4967 23.2155 -1.12278 -1.61098 0.168194
17.9416 23.0709 21.9057 -0.273547 -0.718215 -0.733323
16.4447 20.9787 20.347 -0.733028 -0.908341 -0.945146
18.2085 20.3926 22.6276 2.11089 -0.284785 -0.600727
19.3189 22.1556 24.1882 0.309095 0.747542 1.19489
20.1682 24.1533 23.0939 0.44894 0.371227 -1.28349
20.0854 24.1988 20.4264 -0.599373 0.595102 1.28006
23.2964 21.4886 20.7535 0.304146 0.350915 -0.655868
22.0461 22.2735 23.8879 -0.360894 0.0159015 1.64417
22.5793 24.0318 21.8964 0.603208 1.55559 1.32184
20.5511 21.8966 21.6938 1.13231 1.62437 0.546149
ITEM: TIMESTEP
3000
ITEM: NUMBER OF ATOMS
34
ITEM: BOX BOUNDS ss ss ss
1.6504188999034906e+01 2.4126792145924700e+01
1.5567265151105932e+01 2.4338286453962770e+01
1.6285957022482272e+01 2.4251256075853952e+01
ITEM: ATOMS x y z vx vy vz
18.7338 19.7338 20.1142 -0.914062 -1.45982 -0.52463
17.3912 17.7497 18.6805 -1.49296 0.388355 0.698576
19.5549 18.8997 17.4858 0.745252 0.104904 -1.21508
20.1399 17.1863 19.4016 -0.505852 -0.231152 -0.891209
22.2261 18.5762 18.4538 0.583002 -0.604042 -1.56039
20.1829 23.7871 17.6972 -0.0819637 0.017867 0.478919
19.368 21.5354 16.7518 1.20015 0.106716 -1.77049
18.4018 22.3853 19.2434 -0.292577 -0.595368 0.395311
17.3081 20.3202 17.904 0.910854 -0.249953 -0.40357
21.6641 20.176 16.4039 -1.01123 0.770088 -0.751223
22.1148 22.6175 16.6144 -1.89404 1.27272 0.333361
23.6484 20.9424 18.1383 1.39887 -0.841867 -1.41259
20.9738 21.2552 18.9326 0.657851 -1.02704 1.08561
22.5618 23.4317 19.1127 -0.711472 1.02061 1.01693
17.9431 16.2713 20.6286 -0.754393 -2.03037 -0.974666
16.6873 18.3841 21.2709 -0.549206 1.88387 0.98983
19.1707 17.7813 22.3607 1.30093 -0.28463 -1.08941
23.1062 19.7078 22.845 0.359366 0.305818 -1.0757
22.8915 17.0929 20.9264 -1.41334 1.19909 0.588341
20.6864 19.6864 23.839 -0.690248 0.736367 1.02639
20.7736 15.828 21.5303 -0.114724 0.474432 1.27713
24.1248 19.1154 20.3089 0.531897 -0.455054 0.221986
21.2806 19.1529 21.0823 0.222449 0.392445 0.1415
21.7675 17.2519 23.3109 0.25561 0.53519 2.51544
18.0869 23.0657 21.8418 0.820065 -0.197403 -0.504113
16.4486 21.01 20.5975 -0.160551 -1.44057 0.0643598
18.0619 20.3653 22.6897 -1.54061 1.17639 0.0952543
19.6519 22.1224 23.9926 0.0739887 -1.22889 1.34136
19.9887 24.4622 22.9167 0.130307 -0.201449 -0.86633
20.1198 24.2265 20.2704 0.58402 0.166033 -0.23636
23.2593 21.525 20.9121 2.14361 0.214958 0.433937
22.3199 22.0649 23.7085 0.760764 -0.050856 -0.999369
22.2691 23.9086 21.839 -0.654924 -0.0875956 1.5088
20.5224 21.8112 21.6246 0.103161 0.220201 0.0620876
ITEM: TIMESTEP
4000
ITEM: NUMBER OF ATOMS
34
ITEM: BOX BOUNDS ss ss ss
1.6504188999034906e+01 2.4126792145924700e+01
1.5567265151105932e+01 2.4338286453962770e+01
1.6285957022482272e+01 2.4251256075853952e+01
ITEM: ATOMS x y z vx vy vz
18.816 19.6831 19.9278 -0.998442 0.705745 0.647624
17.522 17.7299 18.7737 -0.0645314 0.610121 -1.79961
19.5835 18.9428 17.4112 -1.05288 -0.539166 -0.821282
20.1398 17.1936 19.3912 -0.838067 -0.324 -0.430362
22.1923 18.4454 18.2968 -0.939987 0.976435 0.640264
20.2364 23.6961 17.6589 1.04775 0.644346 -1.20813
19.3157 21.4683 16.621 -0.846117 -1.07149 2.86534
18.4855 22.449 19.2505 -0.324207 -0.204993 -0.390242
17.1662 20.4004 18.0219 -1.89803 0.128118 -0.348406
21.7836 20.0503 16.3948 0.19886 -0.699644 -0.897529
22.1759 22.4296 16.6029 1.27559 -0.19147 0.43041
23.5734 20.8279 18.4764 1.418 0.737912 0.386003
21.0553 21.1974 18.8912 -0.987811 0.770059 -0.160348
22.5539 23.4942 19.1391 -0.402917 -0.372454 -1.23005
17.9261 16.1938 20.6784 -0.0244187 -0.13733 -1.16155
16.7725 18.5132 21.2773 1.10789 -1.70417 0.325814
19.2691 17.8469 22.2583 1.16833 -0.930759 0.370018
23.2349 20.0126 22.999 -0.257279 0.2338 -0.341647
22.5819 16.7525 20.4421 0.768892 -1.67884 -0.688164
20.6221 19.8891 23.607 0.557659 0.96555 0.714013
20.5602 15.7946 21.617 0.195891 0.778688 0.281212
24.0236 18.9881 20.56 0.536903 -0.598958 -0.541137
21.426 19.3169 20.8874 0.0943047 0.191696 0.812485
22.0071 17.6249 22.8197 -0.522678 -0.406848 -0.50866
17.9264 22.9362 22.0257 0.757778 -0.2049 -0.681023
16.6543 21.0281 20.725 1.37929 0.68515 -0.144963
18.2444 20.1887 22.9352 0.968778 0.130047 -0.00366325
19.4484 22.303 24.3593 -2.59377 0.926078 0.292745
20.0551 24.2145 22.8495 1.0453 0.646695 1.54225
20.0952 24.2382 20.2921 0.118197 -0.426327 0.0282199
23.1138 21.5183 21.033 0.456931 -0.339875 1.5744
22.0796 22.1889 23.7005 -0.22442 0.794378 0.873053
22.4822 24.0068 21.8963 -0.520189 0.24308 -1.86616
20.308 21.8666 21.6099 -0.600603 -0.336671 1.43908
ITEM: TIMESTEP
5000
ITEM: NUMBER OF ATOMS
34
ITEM: BOX BOUNDS ss ss ss
1.6504188999034906e+01 2.4126792145924700e+01
1.5567265151105932e+01 2.4338286453962770e+01
1.6285957022482272e+01 2.4251256075853952e+01
ITEM: ATOMS x y z vx vy vz
18.8749 19.718 20.3074 -0.727719 -0.574648 -1.08571
17.5088 18.0026 18.6909 0.925562 0.70761 -0.924355
19.7619 18.9269 17.526 0.124031 0.631738 -0.29607
20.1513 17.2231 19.6344 -1.3667 -0.00113592 0.596904
22.4068 18.381 18.3526 0.586525 -0.525422 0.680879
19.9911 23.8519 17.8349 -0.389975 -0.348843 -0.31098
19.6796 21.5167 16.4678 0.00806124 -0.206194 -1.04516
18.4427 22.3759 19.2555 0.00892023 -1.40523 0.323752
17.392 20.4618 17.9925 -1.82784 0.34074 -0.372316
21.8568 19.9672 16.4066 0.309193 -0.909705 0.0265607
22.1045 22.5703 16.6142 0.826518 -0.516122 0.993519
23.5494 20.992 18.1932 -0.491233 0.846722 0.0758116
20.9954 21.1267 18.9617 -0.231627 0.147617 -2.57879
22.2553 23.4715 19.0778 0.711691 0.426102 -0.129908
17.9054 16.1909 20.7576 -0.47738 0.847448 -1.38929
16.7825 18.3735 21.1248 0.287367 -0.539943 0.923182
19.2136 17.8866 22.4005 -0.685232 -0.318849 0.591159
23.2673 19.4751 22.7273 -0.542566 -0.155208 0.398402
22.549 16.7832 20.8373 1.57774 0.12153 0.479103
20.7651 19.8177 23.5203 0.00222265 -1.02616 -0.868491
20.3993 15.6579 21.7451 1.01531 -0.550086 0.3329
24.1213 19.1509 20.1619 -1.34548 0.821887 2.02103
21.6263 19.2078 20.8488 0.171323 0.518386 0.269413
21.8225 17.3623 23.2578 0.256475 0.470762 0.0814959
17.8793 23.1641 21.8414 -1.31759 0.324464 0.602769
16.5582 21.1573 20.612 0.344668 0.348843 -0.351259
17.9917 20.4159 22.8443 0.402146 0.312611 0.505176
19.3678 22.0929 24.079 1.53959 -0.0913293 1.19451
20.2329 24.1768 23.2335 0.531635 -0.523186 1.3652
19.798 24.3022 20.5679 0.443018 0.851876 1.77296
23.1904 21.509 20.8792 -0.809128 -0.186219 -0.840011
22.2559 22.1331 23.5423 0.131344 0.719921 -0.41023
22.2223 24.0758 21.5854 1.34693 -0.00328727 -1.57769
20.5108 21.9115 21.5481 -1.33781 -0.556693 -1.05446
ITEM: TIMESTEP
6000
ITEM: NUMBER OF ATOMS
34
ITEM: BOX BOUNDS ss ss ss
1.6504188999034906e+01 2.4126792145924700e+01
1.5567265151105932e+01 2.4338286453962770e+01
1.6285957022482272e+01 2.4251256075853952e+01
ITEM: ATOMS x y z vx vy vz
18.8106 19.8933 20.205 -0.484283 -0.268836 -0.839842
17.5488 17.6025 18.9818 0.207531 -2.15977 0.127954
19.5984 19.0635 17.5867 0.638714 -2.12228 0.225509
20.1136 17.1325 19.511 -0.858813 -0.252467 -1.39274
22.2506 18.4916 18.4794 0.702714 -0.308927 -0.656607
20.2593 23.9029 17.7241 -0.638271 -0.448726 0.0690509
19.5459 21.7924 16.5054 1.03197 0.13936 -1.60402
18.4033 22.5312 19.1147 -0.859479 0.389699 1.18484
17.2312 20.1566 18.1626 2.96133 2.11551 -0.585815
21.7685 20.1409 16.3163 -0.761237 0.557532 0.950293
22.4094 22.6472 16.7932 0.133305 -1.07764 -0.397591
23.5569 20.8924 18.2457 -0.414825 -0.589081 0.0763002
20.9367 21.3354 18.8792 1.47141 0.176795 1.57494
22.5839 23.4348 19.0907 -0.474054 2.52009 0.774395
17.9895 16.0543 21.0676 -0.182509 0.451843 1.01629
16.6619 18.3938 21.1724 -0.30806 0.0842825 0.260783
19.1653 17.9268 22.1813 -0.917823 0.0284867 -0.450976
23.2341 19.9083 22.7306 0.079423 -0.157797 1.07435
22.5059 16.6604 20.4604 0.258214 0.0631942 -0.68771
20.6193 19.7073 23.5973 0.808315 -0.65837 -1.22089
20.5938 15.6746 21.878 -0.66711 -0.292989 0.247203
24.0279 18.8416 20.4333 0.268771 0.234553 0.82766
21.3938 19.2293 20.9139 -0.146247 1.33231 -0.44911
22.1175 17.5349 22.8507 -0.25555 0.249327 0.00134306
17.9456 23.0137 21.9532 -1.29597 0.418129 0.526266
16.458 21.0613 20.432 -1.34175 0.814061 0.814576
17.9873 20.2943 22.7288 -0.975711 0.612804 0.830583
19.4215 22.0323 24.1848 1.25338 -1.03949 -0.148782
20.1754 24.1882 23.129 -0.659617 -0.0762602 0.894697
20.0896 24.2684 20.3592 -0.63076 0.127539 -0.726775
23.2408 21.5775 20.9076 0.721002 -0.0110592 -0.272923
21.9799 22.1204 23.659 0.863388 0.396849 -1.23684
22.4327 24.0621 21.6474 -0.52176 -0.690136 -1.5601
20.3733 21.8634 21.5477 0.994365 -0.558535 0.753686
ITEM: TIMESTEP
7000
ITEM: NUMBER OF ATOMS
34
ITEM: BOX BOUNDS ss ss ss
1.6504188999034906e+01 2.4126792145924700e+01
1.5567265151105932e+01 2.4338286453962770e+01
1.6285957022482272e+01 2.4251256075853952e+01
ITEM: ATOMS x y z vx vy vz
18.874 19.589 20.0753 -0.713486 0.999735 1.61822
17.3788 17.7044 18.7658 1.21032 -1.25118 0.637066
19.4867 19.0018 17.3799 -0.846292 0.313354 1.29398
20.1145 17.205 19.5574 1.19723 0.23288 0.965939
22.1691 18.5769 18.3349 -0.338337 -0.277996 -1.43811
20.2885 23.8813 17.7631 0.397197 -0.822845 -0.0922814
19.2572 21.6014 16.6356 -0.951511 0.357644 1.15663
18.5821 22.431 19.2772 0.0922899 1.31343 -1.07217
17.2948 20.4404 17.9147 0.528275 -0.0768081 -1.15887
21.5578 20.0729 16.1339 2.96985 0.734117 0.657773
22.084 22.3502 16.6265 -1.46341 -1.3701 -0.243183
23.6449 20.6892 18.4339 -0.150637 -0.890896 0.0788851
20.9102 21.1104 18.7629 1.1044 1.01202 1.19423
22.3815 23.275 19.2841 -0.434569 0.821123 -0.510724
18.0939 16.0405 20.7824 -1.28578 -0.564003 -0.0662056
16.6664 18.455 21.2828 -0.133764 1.28724 -0.524696
19.0435 17.8401 22.3024 0.034873 -0.537347 -0.542793
23.3012 19.571 23.0026 1.55829 0.185848 -0.680014
22.7895 17.05 20.5407 -0.1582 0.415859 -0.735251
20.5879 19.7406 23.6861 -0.484046 -0.266255 -0.784466
20.6952 15.8303 21.5239 -1.62452 -1.03849 0.306632
24.1995 19.0721 20.4646 0.378768 -0.0602382 -1.26368
21.5565 19.4022 21.0684 -0.0496214 2.06716 0.655167
21.8635 17.4554 23.0921 0.487835 -0.196522 0.586911
18.0184 22.9378 21.8877 -0.373604 0.432838 0.132331
16.5499 20.8947 20.4751 -0.32534 -0.468825 0.105172
18.0665 20.4293 22.6858 0.287072 -0.444018 -1.16305
19.5812 22.2102 24.198 0.763772 0.251877 1.16224
20.09 24.3802 22.9886 -0.12918 -0.193541 1.15444
20.1763 24.395 20.347 -0.472846 -0.976218 -0.186924
23.1614 21.6305 21.1295 -1.05483 -0.590779 -0.31507
22.1328 22.005 23.6585 -2.33286 0.491416 -0.615872
22.4702 24.1798 21.9332 0.730299 1.05405 0.546575
20.3618 21.9812 21.4355 1.58237 -1.94453 -0.858826
ITEM: TIMESTEP
8000
ITEM: NUMBER OF ATOMS
34
ITEM: BOX BOUNDS ss ss ss
1.6504188999034906e+01 2.4126792145924700e+01
1.5567265151105932e+01 2.4338286453962770e+01
1.6285957022482272e+01 2.4251256075853952e+01
ITEM: ATOMS x y z vx vy vz
18.952 19.6598 20.0245 0.564525 0.281155 0.678681
17.4665 17.7 18.5257 -1.06601 1.67471 1.93975
19.2475 18.8307 17.3376 -0.99584 -1.478 -1.39811
20.1715 17.1586 19.349 -0.525531 -0.127497 -1.8298
22.2278 18.6973 18.4555 -0.0781265 1.0999 -0.383635
20.309 23.7667 17.7356 0.582761 -1.08245 -0.381405
19.3586 21.3841 16.7159 -0.0972363 -1.29295 0.429785
18.3842 22.4975 19.2973 0.425065 1.06191 -0.319933
17.2982 20.3263 18.1396 -1.51029 1.19036 0.521368
21.5343 19.9866 16.402 0.738348 0.208015 1.25804
21.9897 22.5764 16.5813 0.236956 -1.15243 -0.49156
23.4889 20.935 18.1642 1.08059 0.137492 -0.321754
21.0319 21.1845 18.8444 0.969137 0.766009 -0.330482
22.6568 23.4155 19.1895 -0.813885 0.675201 -1.42403
18.1591 16.2108 20.666 -0.113372 -1.0651 -0.952458
16.7374 18.482 21.0114 0.956531 0.12048 -0.490074
19.3397 17.9258 22.3556 1.48167 -0.849339 -0.231867
23.2761 19.8749 23.2293 -0.430621 -0.821609 0.718852
22.7297 16.8642 20.5199 0.120484 0.428178 -0.675015
20.6739 19.7872 23.6869 1.28554 0.18221 1.40071
20.5846 15.7889 21.5813 1.44241 -0.0190181 0.924831
23.9783 19.1486 20.4827 -0.214543 -1.22547 -0.884693
21.3762 19.0617 21.125 0.126495 0.128236 -0.336334
22.0541 17.4729 23.0156 -1.04532 -0.344566 0.753498
18.0335 23.1279 21.7464 1.90061 0.966785 -1.6508
16.4324 21.0999 20.7703 -0.00753851 -0.446328 -0.25482
18.0073 20.3599 22.6594 0.63739 -0.699555 0.878963
19.2131 22.1862 24.1727 -1.90587 1.40347 -0.395426
20.2125 24.2467 23.0637 -0.480926 0.190684 1.70618
20.3063 24.1464 20.3529 -0.703181 1.35724 1.46119
23.0944 21.4598 21.0589 0.707202 -0.788795 -0.207432
22.1104 22.2329 23.7008 -1.18845 -0.311058 0.631621
22.6076 24.0313 21.8761 -1.22067 0.124021 -0.24354
20.3864 21.8032 21.5932 -0.858294 -0.291906 -0.100297
ITEM: TIMESTEP
9000
ITEM: NUMBER OF ATOMS
34
ITEM: BOX BOUNDS ss ss ss
1.6504188999034906e+01 2.4126792145924700e+01
1.5567265151105932e+01 2.4338286453962770e+01
1.6285957022482272e+01 2.4251256075853952e+01
ITEM: ATOMS x y z vx vy vz
18.8641 19.769 20.2316 0.574393 0.233427 -2.25238
17.5225 17.9723 18.8556 -1.45326 -0.628937 0.780997
19.7948 18.9158 17.6254 -0.788482 0.75294 -0.922651
20.1045 17.1701 19.6773 0.876307 0.421089 -0.392196
22.3129 18.3591 18.3028 0.316573 -1.11712 1.1473
20.0869 23.9812 17.7231 -0.796568 -0.777061 -1.27823
19.4415 21.5606 16.5636 0.942041 1.74885 -0.754712
18.3788 22.4505 19.1565 -0.181889 -0.110349 0.637089
17.4088 20.435 17.8547 -2.0358 -1.43389 0.520705
21.9344 20.0918 16.4578 -1.11886 -0.0252911 0.303968
21.9689 22.5716 16.6979 1.17667 -0.281148 -0.227049
23.6844 20.9945 18.4429 -0.811357 -0.721338 -0.560379
20.8783 21.2513 18.7322 0.931615 -1.61841 -0.620381
22.2197 23.4265 19.1804 0.395957 -0.607452 1.44
18.0148 16.1579 20.8464 -1.31727 0.250116 -1.07377
16.7021 18.4708 21.4296 0.677796 -0.172074 0.642564
19.26 17.957 22.3093 0.758529 -0.0157331 -1.13309
23.3671 19.6151 22.7516 0.306476 -0.0271532 1.75427
22.5828 16.8483 20.7461 -0.682131 0.351509 -0.490052
20.628 19.8088 23.4685 -1.82183 -0.423071 0.205158
20.3358 15.706 21.6948 0.847853 -0.309673 -0.675416
24.0325 18.9461 20.208 0.637928 1.9208 -0.251829
21.5335 19.3737 20.7843 1.25354 0.429868 0.834429
21.9704 17.5406 23.0479 1.2606 -0.375138 1.02234
18.0615 23.001 21.76 -1.16722 1.24001 -1.30112
16.558 20.9619 20.499 -0.523234 0.283883 0.062414
17.9579 20.3345 22.8404 0.895465 0.589883 1.012
19.3071 21.9851 24.2407 0.344401 0.940135 0.872019
20.3239 24.1542 23.0213 0.182482 -2.18302 -0.607973
19.7972 24.3292 20.2685 1.01776 -0.204331 1.343
23.3673 21.5562 20.9426 0.241206 0.954143 -1.45669
21.9811 22.0481 23.7047 -0.994256 0.861168 1.09167
22.491 23.8368 21.9169 1.54367 -0.0403609 0.670012
20.5574 21.8493 21.4478 -1.48911 0.0937196 -0.342009
ITEM: TIMESTEP
10000
ITEM: NUMBER OF ATOMS
34
ITEM: BOX BOUNDS ss ss ss
1.6504188999034906e+01 2.4126792145924700e+01
1.5567265151105932e+01 2.4338286453962770e+01
1.6285957022482272e+01 2.4251256075853952e+01
ITEM: ATOMS x y z vx vy vz
18.8547 19.7862 20.2454 -0.868936 0.593972 0.00826219
17.5507 17.726 18.762 0.218051 -0.431638 -0.445253
19.8171 19.1779 17.5728 1.31594 -0.088974 0.179257
20.0134 17.1419 19.5853 -0.428838 0.286036 1.91414
22.3386 18.4023 18.5078 -0.025908 -0.716111 0.158311
20.1827 23.8754 17.8344 -0.746064 0.535679 -1.35863
19.4811 21.5184 16.532 -0.396729 -0.322973 -1.0962
18.5922 22.2434 19.213 -0.331753 0.878781 -0.133058
17.194 20.1857 18.1531 -0.616409 0.0904136 -1.68211
21.9826 20.2592 16.3231 -0.14076 1.10987 -1.23703
21.9659 22.8213 16.5787 -0.38851 -0.789032 -1.23024
23.7339 20.6665 18.1928 -0.49674 -0.201016 0.970297
21.1906 21.2342 18.7238 -0.521235 0.443119 1.53897
22.4894 23.456 19.0932 -0.923266 0.395473 0.25063
17.9087 16.241 20.9124 0.619836 -0.881875 2.32801
16.5378 18.5941 20.9659 -1.40947 0.232051 -0.490665
19.2246 18.0608 22.2338 -1.22586 0.153238 -0.228746
23.5072 19.8324 22.812 0.124103 -0.553398 -0.81095
22.7086 16.7456 20.5999 0.844614 -0.405176 -0.934077
20.6856 19.7954 23.6674 0.354899 0.358027 -0.581431
20.3863 15.6691 21.6844 -0.139571 0.0396528 0.237219
24.108 18.7392 20.4504 1.62829 0.302214 -0.455669
21.4569 19.2425 21.0348 -0.456806 -0.334632 -1.06857
21.9249 17.5998 22.9113 -0.748689 0.2082 1.26063
18.0466 23.0542 21.9755 0.077733 1.16906 0.341565
16.4362 21.1904 20.741 -0.16445 -1.06754 -1.17257
17.8165 20.358 22.7558 0.130186 -1.56407 -0.540574
19.4861 21.939 24.1283 1.37708 0.106013 -0.830958
20.1124 24.2971 23.2749 -0.0130533 -0.508154 1.20832
19.8828 24.2695 20.3916 1.25788 1.05912 -0.521239
23.1831 21.472 20.8968 1.51274 0.590939 0.371505
22.2495 22.1189 23.4385 -0.00796471 -0.80181 0.620705
22.1364 23.9216 21.699 0.0199123 -0.805281 1.83579
20.2449 21.7948 21.5391 0.569751 0.919818 1.59435
ITEM: TIMESTEP
11000
ITEM: NUMBER OF ATOMS
34
ITEM: BOX BOUNDS ss ss ss
1.6504188999034906e+01 2.4126792145924700e+01
1.5567265151105932e+01 2.4338286453962770e+01
1.6285957022482272e+01 2.4251256075853952e+01
ITEM: ATOMS x y z vx vy vz
18.9607 19.7409 20.0589 -1.44845 -1.083 0.526562
17.4321 18.0188 18.6983 0.368584 -0.33359 -0.284375
19.5182 19.0212 17.4343 -0.458315 -2.11792 1.4343
20.0872 17.2238 19.4255 0.973651 -1.72637 0.290088
22.3506 18.5808 18.4589 -0.702443 -0.463225 -0.045823
20.1495 23.7735 17.7562 1.20647 0.91151 0.201501
19.5074 21.4486 16.763 -1.07829 -1.02717 -0.243774
18.4892 22.5075 19.3976 -0.908205 1.82377 -0.392251
17.2725 20.5122 18.0605 -0.103151 -0.308737 -2.52721
21.8867 19.8989 16.4527 0.838214 0.0563738 -0.777676
22.0844 22.4986 16.7804 0.882493 0.140691 -0.826968
23.7678 20.8961 18.2402 -0.407713 0.160254 0.517996
21.0564 21.1164 18.8166 -0.746336 0.745089 0.0547129
22.4107 23.5452 19.0424 -0.763748 0.349245 -0.08937
18.025 16.2344 20.5607 -0.442739 0.752951 -0.838881
16.978 18.3906 21.3531 -0.188118 -0.0300198 0.117201
19.3326 17.9911 22.5469 -0.493796 1.8771 0.918546
23.2072 19.8016 22.9376 1.22209 1.16312 -0.599288
22.5649 16.8121 20.554 1.43101 -2.14399 -0.596835
20.5894 19.7556 23.8585 0.369878 -1.7204 0.370233
20.3665 15.7744 21.5295 -1.64732 0.260327 0.6592
24.0995 19.0522 20.2682 1.32018 -0.126067 -0.996898
21.3748 19.1482 21.1304 -0.0874477 0.32159 0.41913
22.0087 17.322 23.0143 0.89555 -0.993572 -1.40581
17.8443 22.8991 22.045 -0.645451 0.725073 -0.774142
16.3376 20.9478 20.5751 1.09308 1.40196 1.21719
18.0833 20.4537 22.7032 -1.06848 -1.23344 0.222094
19.5361 22.1643 24.2724 -0.526522 0.639907 0.221096
20.1969 24.1328 22.765 -1.04678 -1.93597 -0.111507
20.018 24.4188 20.2388 0.880946 -0.100135 1.18572
23.0714 21.4831 20.9168 0.683429 1.29846 0.429775
22.152 22.0861 23.5208 -0.161631 0.258046 0.744886
22.3726 23.9386 21.7411 1.35801 2.29652 -0.114852
20.298 21.8413 21.5129 -0.598649 0.161614 1.09543
ITEM: TIMESTEP
12000
ITEM: NUMBER OF ATOMS
34
ITEM: BOX BOUNDS ss ss ss
1.6504188999034906e+01 2.4126792145924700e+01
1.5567265151105932e+01 2.4338286453962770e+01
1.6285957022482272e+01 2.4251256075853952e+01
ITEM: ATOMS x y z vx vy vz
18.8967 19.7402 20.0443 -1.04801 -1.1029 -0.349175
17.3003 17.8494 18.7269 -1.69762 0.552532 -0.754506
19.5979 18.866 17.5566 0.0494727 0.27385 0.887259
20.1141 17.2706 19.5824 -3.0148 -1.34966 -1.95847
22.3769 18.7064 18.4399 1.16297 -1.11955 -1.47246
20.2271 23.8181 17.7771 -0.144601 -0.348303 0.18303
19.3804 21.3665 16.7971 0.0410952 0.115017 -1.44265
18.4978 22.377 19.1818 0.917212 1.11491 1.00411
17.2026 20.3497 18.1197 1.35932 -1.50506 -0.794027
21.6543 20.0295 16.3919 -0.228633 0.145603 0.077827
22.0531 22.6037 16.7188 0.0984595 0.258866 -0.941868
23.7194 20.9622 18.2192 0.276885 1.41506 0.260469
21.0446 21.1887 18.8765 -2.90818 0.0603887 0.384859
22.6782 23.4072 19.0107 1.44316 -0.829459 0.00638953
18.074 16.0562 20.4569 0.325412 0.588902 -0.080041
16.8409 18.3417 21.3043 0.770322 -0.699035 0.29219
19.3074 17.8525 22.2553 -1.13704 -1.83136 0.131421
23.303 19.8917 23.0417 0.890874 -0.346726 -0.414299
22.4729 16.659 20.4474 0.569849 1.71163 2.15546
20.5487 19.8859 23.515 -0.725734 -0.396723 -0.586279
20.3363 15.6608 21.6768 -1.05698 -1.6122 0.54252
24.0727 18.8645 20.555 1.02237 -0.342235 1.22094
21.4622 19.2628 20.9468 1.0265 0.740887 -1.29136
21.9469 17.6021 22.974 1.04227 1.34671 1.02118
18.0038 23.0721 21.8828 0.844081 0.673251 0.236887
16.5239 21.0433 20.6931 -0.485012 0.336132 -0.625336
18.2552 20.3482 22.6358 0.572196 -0.588742 -0.120884
19.4584 22.2173 24.0663 0.779729 -0.377847 0.874438
20.1915 24.4444 23.1415 -0.282212 0.857243 0.718041
19.9876 24.2148 20.3535 -0.905765 -0.41583 -0.105554
23.0797 21.4249 20.9185 -0.798528 1.68444 0.801502
22.084 22.149 23.6784 1.0518 0.209368 -0.526768
22.2575 24.0004 21.9394 0.972978 0.222613 -0.150363
20.4799 21.9027 21.5044 -0.783854 0.55823 0.815528
ITEM: TIMESTEP
13000
ITEM: NUMBER OF ATOMS
34
ITEM: BOX BOUNDS ss ss ss
1.6504188999034906e+01 2.4126792145924700e+01
1.5567265151105932e+01 2.4338286453962770e+01
1.6285957022482272e+01 2.4251256075853952e+01
ITEM: ATOMS x y z vx vy vz
18.9925 19.6307 20.0235 0.295633 0.746327 -2.40541
17.3667 17.7414 18.8989 0.320209 -0.334796 -0.142912
19.4742 19.0258 17.42 -1.82471 -1.39246 -0.0532278
20.2084 17.0715 19.6085 -0.143482 -0.017672 0.0709456
22.099 18.5517 18.3757 -1.32894 -1.14077 0.195774
20.2449 23.8504 17.7193 -1.24179 2.14789 -0.749855
19.5087 21.6394 16.749 0.146298 -0.0734534 0.782663
18.4845 22.3271 19.3957 0.132711 -0.42761 2.01179
17.1437 20.4081 18.1163 -0.554011 1.84824 1.16736
21.6841 20.0286 16.3778 0.587849 -0.0976155 0.252004
22.2567 22.5304 16.699 0.0565995 -0.124861 1.24079
23.6858 20.858 18.4161 1.6723 -0.385724 0.424476
21.1657 21.3416 18.8955 -0.725848 1.35816 0.594957
22.6533 23.6817 19.2017 2.53397 -0.0674097 0.0665946
17.8667 16.1943 20.8124 0.949817 0.204819 1.97061
16.5955 18.4195 21.2654 -0.554396 -0.907011 -1.48954
19.2302 17.923 22.2403 -1.209 -0.539564 -0.272768
23.3817 19.546 22.9713 -1.33955 -1.70137 0.261772
22.6993 16.8355 20.5766 1.20981 1.39104 0.0692239
20.6715 19.8094 23.6385 -0.207608 1.06143 1.68555
20.4122 15.6683 21.6701 -0.930952 -1.76442 -0.825055
24.0759 19.097 20.3589 -0.666598 -0.618223 0.708824
21.3881 19.3315 20.889 1.07691 -1.0879 -0.375462
21.8752 17.5126 22.883 1.38317 -0.382051 -0.730366
17.8085 22.9153 21.8934 -0.356959 1.06936 -0.44677
16.5354 20.8795 20.5492 0.127735 -0.345458 -0.797309
18.1376 20.4637 22.6857 0.83331 -2.05188 0.349936
19.567 22.1917 24.2036 -0.315739 -0.648374 -0.134438
19.9939 24.3359 22.7644 -0.108445 0.267341 -0.938613
20.1886 24.2095 20.1952 -0.354627 0.266698 -0.997371
23.1474 21.6371 21.0482 -1.44592 2.67731 -0.431832
22.2731 21.9503 23.5072 0.575406 2.42292 -1.34621
22.2162 24.0381 21.7732 0.970692 -0.293538 -0.832508
20.3978 21.7852 21.6073 0.436146 -1.05937 1.11638
ITEM: TIMESTEP
14000
ITEM: NUMBER OF ATOMS
34
ITEM: BOX BOUNDS ss ss ss
1.6504188999034906e+01 2.4126792145924700e+01
1.5567265151105932e+01 2.4338286453962770e+01
1.6285957022482272e+01 2.4251256075853952e+01
ITEM: ATOMS x y z vx vy vz
19.0036 19.6595 20.2332 -0.980447 0.749464 1.42017
17.3453 17.6972 18.7713 -0.438561 0.591556 0.623387
19.6591 18.9032 17.539 0.775435 -1.05071 -0.425306
19.9876 17.0902 19.3949 -0.36797 0.442212 -0.0220953
22.2827 18.3234 18.2448 0.391369 -1.14733 -0.966024
20.1767 23.9486 17.9683 1.33663 -0.275608 -0.89047
19.3924 21.5218 16.8815 -0.542917 0.0509962 -0.470869
18.3317 22.5195 19.3327 -0.47633 -0.524098 0.601314
17.3366 20.2738 17.9188 0.146129 -1.08647 0.0823711
21.9353 20.0844 16.4241 -0.159372 0.992725 -0.970388
22.0481 22.6771 16.6201 -0.399824 -0.4912 -0.67625
23.6583 20.8426 18.3323 0.901741 1.27308 0.454045
21.0074 21.1313 18.8559 0.397987 -1.03745 -0.510317
22.4489 23.3354 19.167 0.766101 0.764578 0.167598
17.9196 16.3671 20.7268 -0.877094 0.855232 -0.01898
16.7275 18.6345 21.035 0.416664 -0.833676 1.44532
19.2957 17.9283 22.5694 -0.225927 -1.93294 0.148934
23.3822 19.6546 22.7114 -0.353218 -0.170994 0.868373
22.81 16.8182 20.7331 1.08732 0.149284 1.73125
20.7181 19.9461 23.5337 0.283801 0.109963 -0.419947
20.5411 15.9425 21.5025 -0.665438 0.668953 -0.403142
24.0533 19.1008 20.1769 -0.904408 -0.0634749 -0.721374
21.45 18.8886 20.9497 0.772005 -0.86963 0.58287
21.9486 17.6398 23.1928 1.22252 0.0393854 -1.06764
17.8942 22.9423 22.0397 -1.3778 -0.843494 0.0339946
16.5476 21.1578 20.3788 -0.226259 2.59358 -1.47362
17.9543 20.5025 22.7241 0.889374 -1.84552 -0.833237
19.309 22.0068 24.2285 -0.42928 1.49015 -0.546624
20.0933 24.2235 22.9721 0.9458 -0.905346 1.42046
20.138 24.273 20.4421 0.20922 0.794629 0.756358
23.1496 21.4858 21.0468 -1.81608 -0.0995636 2.07269
22.157 22.2009 23.5679 1.18221 -0.62259 -2.3578
22.4059 23.9292 21.6254 -0.344969 0.840909 0.505531
20.3216 21.7796 21.5893 -1.13842 1.39341 -0.140598
ITEM: TIMESTEP
15000
ITEM: NUMBER OF ATOMS
34
ITEM: BOX BOUNDS ss ss ss
1.6504188999034906e+01 2.4126792145924700e+01
1.5567265151105932e+01 2.4338286453962770e+01
1.6285957022482272e+01 2.4251256075853952e+01
ITEM: ATOMS x y z vx vy vz
18.8465 19.6049 20.1173 -0.483656 -2.11607 0.964988
17.5063 17.7737 18.6571 -1.06665 -2.16907 0.962956