ITEM: TIMESTEP
0
ITEM: NUMBER OF ATOMS
344
ITEM: BOX BOUNDS ss ss ss
6.3184216065379433e+00 3.4471578393462003e+01
7.5591235954164118e+00 3.3230876404583583e+01
7.4364270389756841e+00 3.3353572961024305e+01
ITEM: ATOMS x y z vx vy vz
20.8698 15.5465 11.4537 -0.488736 0.653701 -1.56206
18.1428 19.7224 11.3636 0.367844 -0.541785 -1.297
20.4156 18.2076 10.4504 1.45442 0.0974605 -1.29195
22.1635 20.359 11.2319 -1.46397 0.222861 -1.26659
15.4157 23.8983 11.2735 0.212255 0.247841 0.574256
17.6885 22.3835 10.3603 -0.538295 0.555542 1.93092
19.4364 24.5349 11.1418 -0.128299 -1.30369 -2.18087
19.9614 20.8687 9.4471 -0.314668 0.244135 -0.616753
21.7092 23.0202 10.2286 0.271685 0.482168 -0.0899237
19.5072 23.5298 8.4438 -1.01649 0.722673 -1.0134
17.2343 25.0446 9.35699 -0.328336 -0.57599 1.72081
18.9822 27.196 10.1385 -0.571493 -0.250098 0.562247
21.255 25.6813 9.22529 0.22206 -0.915931 -0.380706
19.0529 26.1909 7.44051 0.846459 -0.569701 0.915379
23.4571 25.1716 11.0101 1.07936 -1.23996 -0.159649
19.9596 9.078 15.3768 -0.6103 0.434491 -2.04531
22.2325 7.5632 14.4636 0.38494 0.564332 1.50006
19.5054 11.7391 14.3735 0.690116 0.699858 1.05722
21.7783 10.2243 13.4603 1.03359 0.380515 0.82897
23.9804 9.71464 15.2451 -0.226514 -0.610511 -0.696518
17.2326 13.2539 15.2867 1.47093 1.00108 0.32493
16.7783 15.915 14.2834 -0.592614 1.55904 -0.812946
18.9804 15.4053 16.0682 -0.995938 -0.476889 1.88675
21.2533 13.8905 15.155 1.08787 -0.122201 -0.12889
19.0512 14.4002 13.3702 1.30841 1.99385 -0.540091
21.3241 12.8854 12.457 0.0508849 1.71124 1.98106
25.7282 11.8661 16.0266 -1.71439 0.0423434 -1.05581
23.0011 16.042 15.9365 -0.460643 0.159401 -0.119919
23.5261 12.3757 14.2418 -0.140147 2.27931 0.146312
25.274 14.5272 15.0233 -1.10642 -1.28161 1.0424
23.0719 15.0368 13.2385 0.766644 -0.28469 0.30935
14.0513 20.0909 14.1933 0.652031 2.03975 -1.99311
14.5055 17.4298 15.1966 -1.18612 -0.088951 0.4831
16.2533 19.5812 15.9781 -2.13227 1.44375 -0.342146
16.3241 18.5761 13.2801 0.550231 -1.09405 1.00414
18.5262 18.0664 15.0649 -0.811015 -0.446592 -0.695934
20.2741 20.2179 15.8464 -1.50099 -1.33483 0.129699
20.7991 16.5516 14.1517 -0.0681457 -1.68739 -0.351792
18.597 17.0613 12.3669 1.20667 2.42668 -0.732386
20.3448 19.2127 13.1484 -1.44744 -0.0990549 -3.28844
22.5469 18.7031 14.9332 2.2037 -1.28295 2.2217
24.8198 17.1883 14.02 0.776854 -1.25573 0.343033
22.6177 17.6979 12.2352 3.07615 -0.745675 0.30168
24.3655 19.8494 13.0167 0.463566 0.886384 0.173747
27.0219 16.6786 15.8048 0.490907 -0.733761 0.791914
26.5676 19.3397 14.8015 0.727901 2.03869 -0.568903
11.7784 21.6057 15.1065 -0.138851 -1.3196 1.20989
13.5263 23.7571 15.888 -0.822214 -1.2753 -1.28173
13.597 22.752 13.19 -0.366576 -2.5641 1.11423
15.7991 22.2423 14.9748 0.559327 0.23382 0.128153
17.547 24.3938 15.7563 -2.52744 0.558656 0.697045
18.072 20.7275 14.0616 1.29999 -1.0481 -0.841173
15.8699 21.2372 12.2768 0.419433 0.826985 0.55052
17.6178 23.3886 13.0583 0.897966 1.9097 0.530559
19.8198 22.879 14.8431 -0.417145 1.683 -0.147573
22.0927 21.3642 13.9299 1.34671 0.0350075 1.75958
19.8906 21.8738 12.1451 1.89615 1.07708 1.59666
21.6385 24.0253 12.9266 1.52536 -0.560512 -2.1075
24.2948 20.8545 15.7147 1.5487 -1.67373 0.913507
23.8405 23.5156 14.7114 0.221572 0.489002 -0.986547
26.1134 22.0008 13.7982 -0.421093 -2.53918 -2.51547
23.9113 22.5105 12.0134 1.18456 0.796306 -0.379689
25.6592 24.6619 12.7949 -2.13118 0.839768 0.517673
28.3155 21.4911 15.583 -0.928357 0.544596 -1.33161
27.8613 24.1522 14.5797 -0.504044 -0.90548 -0.491205
15.3449 24.9034 13.9715 -0.125169 -0.504905 1.077
17.0927 27.0549 14.753 -0.0159551 -0.897534 1.37066
17.1635 26.0497 12.055 0.749532 -0.845456 -0.763237
21.5677 25.0304 15.6246 -0.226589 -0.619283 0.300285
19.3656 25.5401 13.8398 -0.822864 -1.84659 0.13419
21.1135 27.6915 14.6213 0.390903 0.0511799 -0.0972971
18.9114 28.2012 12.8365 -0.903589 0.93343 1.67029
21.1842 26.6864 11.9233 -0.636857 2.2392 -0.593392
25.5884 25.667 15.4929 -0.387929 -2.37445 -0.889851
23.3863 26.1767 13.7081 0.186444 0.338318 -0.741493
18.8406 29.2063 15.5345 0.55038 0.243169 -0.853913
17.6868 10.5928 16.29 1.01961 1.60253 -1.95796
17.616 11.5979 18.988 0.359435 0.45095 -2.66962
21.7075 11.2294 16.1583 -1.49446 -0.529876 -0.716932
19.8889 10.0831 18.0748 1.23884 -0.184886 -0.318723
22.1617 8.56833 17.1616 0.667817 -0.479785 -0.998969
22.091 9.57345 19.8596 0.80435 -0.859839 -1.06361
23.9096 10.7198 17.9431 4.40392 -1.03517 0.438192
10.8682 15.1372 19.0296 0.986332 -0.117864 0.641087
13.1411 13.6224 18.1164 -1.52704 -0.613411 -2.31338
14.8889 15.7738 18.8979 -0.00851421 0.33706 1.10342
15.4139 12.1076 17.2032 -1.26912 0.385767 0.377984
17.1618 14.259 17.9847 -0.234568 0.239406 1.54166
14.9597 14.7687 16.1999 -0.382691 -1.04424 0.686337
15.3432 13.1127 19.9012 -0.698553 0.490061 1.53347
19.4346 12.7442 17.0715 -0.561366 0.300913 1.98916
21.1825 14.8957 17.853 -0.365929 -0.849271 -0.321219
19.3639 13.7493 19.7695 0.0602102 0.178296 0.983128
21.6367 12.2346 18.8563 2.5201 -0.42784 0.365549
23.4554 13.3809 16.9398 0.909681 -1.52209 -1.7883
25.2032 15.5323 17.7213 -1.3555 -0.590297 -1.97473
23.3846 14.386 19.6378 0.861354 0.213041 -2.14934
25.6574 12.8712 18.7246 1.59107 0.31593 2.04795
27.4761 14.0175 16.8081 -1.87678 1.93875 0.361984
27.4053 15.0226 19.5061 1.12553 0.401271 0.838732
8.59536 16.652 19.9428 -1.40524 1.2746 0.73611
8.14113 19.3131 18.9395 0.180653 -1.26009 0.558476
12.6161 17.2886 19.8111 0.846093 -0.689032 0.978529
10.414 17.7983 18.0263 0.225505 1.29274 0.54477
12.1618 19.9497 18.8078 1.22336 0.583279 1.10485
12.6869 16.2835 17.1131 -0.6075 1.49371 -0.697831
12.2326 18.9446 16.1098 1.50767 2.19866 0.474052
16.6368 17.9252 19.6794 -0.517743 -1.21852 -0.150496
14.4347 18.4349 17.8946 0.612935 0.238972 -1.43335
16.7076 16.9201 16.9814 -1.25284 -0.246585 2.02024
18.9096 16.4105 18.7662 1.0738 -0.543876 -1.22118
20.6575 18.5619 19.5477 0.774218 2.00266 -0.370767
18.4554 19.0716 17.7629 -0.263702 1.41215 0.999452
20.7283 17.5568 16.8497 -0.737991 -0.000550852 0.396689
22.9304 17.0471 18.6345 -0.0699704 0.863478 -0.919307
24.6782 19.1985 19.416 -0.78456 -0.103975 -1.84914
22.4761 19.7082 17.6312 -0.99287 0.162215 0.453068
24.749 18.1934 16.718 1.34648 -1.26928 -2.19577
26.9511 17.6837 18.5028 0.16669 0.727677 -1.09338
28.6989 19.8352 19.2843 -1.25778 0.478928 0.542272
29.2239 16.1689 17.5896 0.549004 2.29377 -2.89666
26.4968 20.3448 17.4995 -1.00336 -0.0192459 1.3406
28.7697 18.83 16.5863 -1.13083 -0.639572 0.371113
29.1532 17.1741 20.2876 -1.8379 -0.598367 0.179256
30.9718 18.3204 18.3711 0.195301 1.15302 0.566715
9.88899 21.4645 19.7209 0.00983611 -0.132798 -0.541704
9.95977 20.4594 17.023 -0.161339 -0.849306 0.00533867
13.9097 22.1011 19.5892 -0.362114 -0.505106 -1.64047
11.7076 22.6108 17.8045 -1.04519 -0.813511 1.31465
13.9805 21.096 16.8913 -0.122123 -0.963818 -2.15091
15.6576 24.2526 20.3707 0.823411 1.49711 -0.170834
16.1826 20.5863 18.6761 -0.361895 -0.66223 -1.54355
17.9304 22.7378 19.4575 -0.401258 -0.0298136 0.778346
15.7283 23.2475 17.6728 -1.38203 -0.794898 -0.817235
18.0012 21.7327 16.7596 0.836503 -0.150295 0.104015
22.4054 20.7133 20.3291 0.704133 -0.957305 1.69526
20.2033 21.223 18.5444 0.638081 -0.506337 1.68924
21.9511 23.3744 19.3258 0.895918 0.0877092 0.911934
19.7491 23.8841 17.5411 -0.0460781 -1.2633 -0.814428
22.0219 22.3693 16.6279 0.0787055 -1.80186 -0.644488
26.4261 21.35 20.1974 1.53005 0.0229701 -0.898074
24.224 21.8596 18.4127 -0.862096 -2.17953 -0.332723
25.9718 24.0111 19.1941 1.00343 0.944587 -0.147577
23.7698 24.5207 17.4094 -0.495522 0.483005 0.914807
26.0426 23.0059 16.4962 -0.244133 -0.755109 2.63947
30.4468 21.9866 20.0657 -1.24542 -0.667388 -1.19255
28.2447 22.4963 18.281 -0.273282 -1.23915 0.841639
29.9926 24.6477 19.0624 -0.348441 -0.430953 0.284155
30.0633 23.6426 16.3645 -0.735011 -0.328616 0.864278
32.7196 20.4718 19.1526 -1.01767 -0.127246 1.05003
34.4675 22.6232 19.934 1.74759 -0.596067 -0.292834
30.5176 20.9815 17.3678 -0.430233 -0.239218 2.94337
32.2654 23.1329 18.1493 -0.358717 1.96077 0.184223
13.4555 24.7622 18.5859 -0.773775 -0.588993 0.140909
15.2033 26.9137 19.3674 -1.01505 -0.320968 0.737108
17.4762 25.3989 18.4542 -0.0101298 0.75621 1.29134
15.2741 25.9086 16.6695 1.75652 -0.966903 0.58029
17.022 28.06 17.4509 -2.84072 0.656071 -1.77496
19.6783 24.8892 20.239 -1.18383 -0.444593 -1.54088
19.2241 27.5503 19.2357 0.0122711 -0.303897 1.99313
21.4969 26.0355 18.3225 0.608474 0.60639 -1.60099
19.2948 26.5452 16.5378 0.111974 0.175781 -1.66225
21.0427 28.6966 17.3192 -1.03576 0.322673 -0.606992
23.699 25.5259 20.1073 3.55088 -0.730307 0.392771
23.2448 28.187 19.104 -0.932605 -1.34444 1.55285
25.5176 26.6722 18.1908 -0.755374 0.365953 0.0471219
23.3155 27.1818 16.4061 -1.58471 0.0524775 -1.04125
27.7197 26.1625 19.9756 0.055708 -0.833581 1.3982
27.7905 25.1574 17.2776 1.11951 0.332039 -1.04815
16.9512 29.0651 20.1489 -0.322173 -1.54403 0.262378
20.9719 29.7018 20.0172 0.851709 0.476212 0.861474
18.7698 30.2114 18.2324 1.12007 -0.447806 0.691824
19.8181 11.0882 20.7728 1.30446 0.627671 -0.0809137
22.0202 10.5786 22.5576 0.0944821 -0.298133 1.4381
23.8388 11.7249 20.6411 0.771257 0.150346 -0.175604
13.0703 14.6275 20.8144 -2.41087 -2.0574 1.05307
12.9995 15.6326 23.5124 -0.235229 0.775692 1.01972
17.091 15.2641 20.6827 0.403189 0.587625 -1.33794
15.2724 14.1178 22.5992 0.104569 1.29068 0.731401
17.5452 12.603 21.686 -1.42035 2.57395 0.786817
17.4745 13.6082 24.3839 0.241251 -0.0907904 1.17485
21.1117 15.9008 20.551 2.1377 1.22639 0.120055
19.2931 14.7545 22.4675 0.730351 0.289957 -1.92711
21.5659 13.2397 21.5543 0.547144 -2.28524 1.40685
19.7473 12.0934 23.4708 1.07331 -0.707203 -0.245972
21.4952 14.2448 24.2522 0.420405 -1.64313 0.493235
23.3138 15.3911 22.3358 0.366604 -0.119871 0.249134
25.5867 13.8763 21.4226 -1.57105 -0.570444 0.810736
23.768 12.73 23.3391 1.34632 -0.0580681 3.50623
25.5159 14.8814 24.1205 1.55628 -0.759965 2.29095
27.3345 16.0278 22.2041 -0.536742 -2.37583 0.999151
6.3225 18.1668 20.856 1.03551 0.53614 0.783907
8.07036 20.3182 21.6374 0.853847 0.278529 -0.234278
8.52458 17.6571 22.6407 -2.48774 1.36801 0.390551
10.2724 19.8085 23.4222 -0.758007 1.38083 0.333852
10.3432 18.8034 20.7243 -0.0930997 0.647703 0.01688
10.7974 16.1423 21.7276 -1.42615 -1.28254 -0.686078
12.5453 18.2937 22.509 -1.8084 -1.09558 0.591518
10.7267 17.1474 24.4255 -0.801178 0.00602998 0.164459
14.3639 19.44 20.5926 -0.0761639 -0.469945 0.361869
14.8182 16.7789 21.5959 0.328549 0.0844745 -0.0575784
16.566 18.9304 22.3773 -0.709181 -2.08159 -1.725
14.7474 17.7841 24.2938 1.37121 -0.618492 -1.09586
17.0202 16.2693 23.3806 -1.20125 -1.08105 -0.57563
18.3846 20.0767 20.4609 -2.86721 -1.81041 -0.397336
18.8389 17.4156 21.4642 2.68537 -0.872888 1.27151
20.5867 19.567 22.2456 -1.39202 0.409888 -0.26425
18.7681 18.4207 24.1621 -0.236215 2.03936 1.14332
21.0409 16.9059 23.2489 -0.434773 2.38448 0.877009
22.8596 18.0522 21.3325 -1.45537 1.73741 -0.203614
24.6074 20.2037 22.1139 -1.90006 0.305403 0.438943
25.1324 16.5374 20.4193 1.1159 0.471858 2.30924
22.7888 19.0573 24.0304 0.744599 -1.29986 -0.916738
25.0617 17.5425 23.1172 -0.550586 -2.34252 -0.902544
26.8803 18.6889 21.2008 -1.03499 0.401025 0.439263
26.8095 19.694 23.8987 1.76217 -0.0368205 0.0961834
29.0824 18.1792 22.9855 0.32444 1.13358 -3.18231
30.901 19.3255 21.0691 -1.33396 0.559105 -1.25997
30.8302 20.3306 23.767 -1.26999 0.91672 1.70869
9.81821 22.4696 22.4189 1.80353 -0.694914 -0.498575
11.5661 24.6211 23.2004 -0.231425 1.69527 -1.69954
12.0911 20.9548 21.5057 -1.48143 -0.311257 0.356589
13.8389 23.1063 22.2872 0.781812 -0.202154 -0.253173
11.6368 23.6159 20.5024 -0.890179 -0.125695 1.62463
12.0203 21.96 24.2037 0.111409 1.65688 -0.656773
14.2932 20.4452 23.2905 -0.380004 0.555556 0.225378
16.1118 21.5915 21.374 2.04361 -0.305424 0.419826
17.8596 23.7429 22.1555 0.842554 0.505199 -1.01812
16.041 22.5966 24.072 0.595138 0.875086 -0.728291
18.3139 21.0818 23.1588 -1.39507 1.05044 -1.30543
20.1325 22.2281 21.2423 -2.24809 -0.392579 -0.419242
21.8804 24.3795 22.0238 -1.90147 0.366751 -0.290662
20.0617 23.2332 23.9403 1.29086 0.0839175 -0.162144
22.3346 21.7184 23.0271 -2.74384 -0.603735 0.350737
24.1532 22.8648 21.1106 1.66243 -0.701414 -0.010035
24.0824 23.8699 23.8086 0.0121987 2.69884 -0.379923
26.3553 22.3551 22.8954 0.0719733 0.720949 -0.887641
28.1739 23.5014 20.9789 0.0464062 -0.315453 -0.360464
28.1031 24.5065 23.6769 0.942449 1.53728 0.356166
28.6282 20.8403 21.9822 0.0228408 0.893316 -0.761055
30.376 22.9917 22.7637 -1.84311 1.64806 0.524223
28.5574 21.8454 24.6802 -0.00201008 -2.73795 1.31375
32.1946 24.138 20.8472 0.547339 0.098413 1.84541
32.6489 21.4769 21.8505 -0.997596 -1.52482 1.06858
13.3139 26.7725 23.9819 -1.73171 1.37944 0.291943
13.3847 25.7674 21.2839 0.236706 -0.564468 -0.305566
15.5868 25.2577 23.0687 0.72982 0.016947 0.480891
17.3346 27.4091 23.8502 0.0518484 -0.184186 1.08788
15.1326 27.9188 22.0654 0.225655 0.898984 1.19342
17.4054 26.404 21.1522 -0.273269 -0.431762 -0.0580225
19.6075 25.8943 22.937 -0.831138 2.09927 -2.48931
21.3554 28.0458 23.7185 -0.656963 -0.0111807 -0.236163
19.1533 28.5554 21.9337 0.623556 -0.903526 0.933523
21.4261 27.0407 21.0205 0.668479 -0.676843 2.30252
23.6282 26.531 22.8053 -1.78564 -1.21546 1.16865
25.3761 28.6824 23.5868 1.12227 -0.457226 0.318183
25.9011 25.0162 21.8921 2.40698 -1.15567 -0.555956
25.4468 27.6773 20.8888 0.37241 0.669218 0.428433
25.8303 26.0213 24.5901 0.0222911 0.848974 0.723937
27.6489 27.1676 22.6736 0.28682 -1.96296 0.205012
29.9218 25.6528 21.7604 -2.04839 -0.379557 -1.95134
16.8804 30.0702 22.8469 0.256425 -0.18425 0.780717
19.0825 29.5606 24.6317 0.393003 0.00593334 -0.432867
18.6283 32.2217 23.6284 0.994806 -0.150907 0.124373
20.9011 30.7069 22.7152 -1.58504 0.908062 1.38656
18.699 31.2165 20.9304 -0.0369194 -1.68231 -0.334963
23.1032 30.1972 24.5 0.986015 0.50134 1.10907
23.174 29.1921 21.802 0.0603647 -0.435335 -0.528881
21.9494 11.5837 25.2555 0.0539318 0.552112 -0.243847
15.2016 15.123 25.2971 1.05722 0.703489 0.117466
17.4037 14.6133 27.0819 -1.23204 -1.33664 0.0165156
19.2223 15.7596 25.1654 -0.864123 -0.264588 1.43212
19.6765 13.0985 26.1687 0.663476 -1.58473 -0.972622
21.4244 15.2499 26.9502 1.54112 -0.215012 -0.758673
19.6058 14.1036 28.8667 1.684 -1.25502 0.446615
21.8786 12.5888 27.9535 -0.494451 -0.262004 -0.317429
23.6973 13.7351 26.037 0.73846 0.845495 -0.33276
25.4451 15.8866 26.8185 1.13678 0.267911 -0.951937
23.6265 14.7403 28.735 0.298443 -1.62244 -1.31102
12.4745 19.2989 25.207 0.00530384 0.151253 0.580733
12.9287 16.6378 26.2103 0.589256 1.10708 -0.129503
16.4952 19.9355 25.0753 1.90414 -1.5625 -1.83895
14.6766 18.7892 26.9918 -1.76436 0.44381 0.416804
16.9495 17.2744 26.0786 -0.690969 0.656722 0.372976
15.1308 16.1281 27.9951 -0.933835 -0.592364 2.09825
16.8787 18.2795 28.7766 -0.511778 0.612483 -0.0476226
18.6973 19.4258 26.8601 0.515945 -0.0512448 0.824674
20.9702 17.911 25.9469 2.29245 1.65813 1.18304
19.1515 16.7647 27.8634 -0.493764 2.57315 -0.408354
20.8994 18.9162 28.6449 -1.17018 -2.00074 -0.411076
22.718 20.0625 26.7284 -3.42777 -1.12234 0.343651
23.243 16.3962 25.0337 -1.12099 -1.17902 -0.828831
24.9909 18.5477 25.8152 0.717515 1.20048 1.26237
23.1722 17.4014 27.7317 -0.515736 0.397713 -0.615455
24.9201 19.5528 28.5132 -0.335571 3.48312 -0.624267
27.2637 17.0329 24.902 0.103006 0.0508115 -1.11966
29.0116 19.1843 25.6835 -1.816 0.1759 -1.54146
27.193 18.038 27.6 -0.473485 -0.272663 -0.954973
13.7681 24.1114 24.9852 -0.80768 -2.23187 -0.428151
14.2224 21.4503 25.9885 1.63621 1.62598 -0.0270138
15.9702 23.6017 26.77 -1.66739 0.35516 -1.28393
18.2431 22.0869 25.8568 0.565785 -0.0613469 1.73474
16.4245 20.9406 27.7733 -0.727359 -1.19299 -0.963126
18.1723 23.0921 28.5548 0.416385 -0.488173 1.27616
19.9909 24.2384 26.6383 -0.137332 -0.416489 -0.708514
20.5159 20.5721 24.9436 0.921854 -1.98078 -1.40121
22.2638 22.7236 25.7251 -0.497969 -0.223543 -1.92954
20.4452 21.5773 27.6416 0.619398 -0.804443 -1.07749
22.193 23.7287 28.4231 -1.29857 0.939925 1.84125
24.5367 21.2088 24.8119 -1.27823 -1.92465 -1.30635
26.2845 23.3602 25.5934 0.864409 -0.0703572 1.92196
24.4659 22.2139 27.5099 1.49864 1.61656 -1.64405
26.7387 20.6991 26.5967 -0.592225 -1.09727 -0.113935
15.0618 28.9239 24.7634 0.418037 0.521594 -1.15713
15.516 26.2628 25.7667 1.36359 -0.290367 0.287369
17.2639 28.4143 26.5482 0.632512 -0.162633 0.873273
17.7889 24.748 24.8535 1.45728 2.10012 1.06002
17.7181 25.7532 27.5515 1.42218 -1.7496 1.35518
19.5367 26.8995 25.635 1.60876 -0.955821 0.657998
21.8096 25.3847 24.7218 1.07305 1.5007 0.928033
19.4659 27.9046 28.333 1.80976 -0.187654 -0.565125
21.7388 26.3898 27.4198 -0.0140967 -0.55574 -0.939236
23.5574 27.5361 25.5033 -0.567111 2.54412 0.600804
24.0117 24.875 26.5066 0.836816 0.714053 0.14684
16.8096 31.0754 25.5449 1.04632 1.05582 0.262993
18.5575 33.2268 26.3264 1.40771 0.506946 0.434514
20.8304 31.712 25.4132 -1.07183 0.992128 -1.00889
19.0117 30.5657 27.3297 0.0454721 -0.987787 0.609159
21.2846 29.0509 26.4165 -1.05449 -0.668944 -0.375711
17.3329 15.6184 29.7799 0.792991 0.434459 -1.25153
19.535 15.1087 31.5647 -0.740147 0.910201 0.718266
21.8078 13.594 30.6515 -0.170496 -0.497744 0.353241
21.7371 14.5991 33.3495 0.879323 1.17608 -0.237126
23.5557 15.7454 31.433 -0.226321 -1.52824 -1.06974
19.0808 17.7698 30.5614 0.0849306 2.31095 -2.03914
20.8286 19.9213 31.3429 1.01457 0.0291834 -1.93546
21.3536 16.2551 29.6482 -1.07202 -0.158763 1.11283
21.2828 17.2602 32.3462 -0.883063 0.695341 0.577612
23.1015 18.4065 30.4297 -1.44126 0.186068 0.29061
25.3743 16.8917 29.5165 0.862702 0.863774 -0.894471
18.6265 20.431 29.5581 -2.36336 0.187748 -0.698162
20.3744 22.5824 30.3396 -0.197892 0.702325 -1.63346
22.6472 21.0676 29.4264 -0.101701 -2.23461 -0.446652
19.9202 25.2435 29.3363 0.0441869 2.13721 -0.958156
ITEM: TIMESTEP
1000
ITEM: NUMBER OF ATOMS
344
ITEM: BOX BOUNDS ss ss ss
7.6065422307234209e+00 3.3061944323175268e+01
9.2754882381856110e+00 3.2096972147229458e+01
8.6680177645927969e+00 3.1995954840137053e+01
ITEM: ATOMS x y z vx vy vz
20.8866 15.8296 11.5626 2.44446 -1.47981 1.38878
17.984 19.5302 11.5034 0.334496 2.71775 0.0840673
20.4178 18.4713 10.6681 1.60635 1.00122 0.891073
22.1594 20.2446 11.2795 -0.388593 0.212385 1.11778
15.1946 23.6088 11.608 1.52989 0.745463 -0.105686
17.5217 22.2572 10.628 0.368024 -1.06221 0.773356
19.2864 24.3527 11.4728 1.20593 -0.949814 -0.237749
19.7744 20.6919 9.79081 0.627653 0.697495 0.439084
21.5914 22.7421 10.7909 0.175196 1.22586 -1.95484
19.4731 23.1548 9.09951 -2.30843 1.19487 -0.984786
16.9555 24.8084 9.98207 -0.500643 0.795175 -1.78658
19.1108 27.061 10.7421 1.00508 1.10973 -0.366518
21.3699 25.4434 9.89828 -0.00273262 0.503099 -2.63376
19.0653 25.7662 8.47186 1.02064 1.39289 -1.89208
23.499 25.0351 11.326 0.0530196 -0.334446 -0.159536
19.5721 9.65352 15.4051 0.758085 -1.79482 -3.42636
22.0039 8.59604 14.9002 1.32352 -0.154463 0.315403
19.2612 12.1449 14.4927 1.38974 -1.36911 0.0907025
21.5912 10.8395 13.5821 0.514997 -1.08954 0.0884613
23.7724 10.531 15.2737 0.530086 -1.16803 -2.7848
16.9489 13.1581 15.1584 1.09671 -0.369985 0.583113
16.8019 15.8464 14.2319 0.117428 -0.0461564 -0.964226
18.8902 15.1455 15.9191 1.08603 1.09985 -0.0742664
21.3422 14.0012 14.9999 0.11151 0.695175 1.95867
19.0116 14.5082 13.1617 -1.65715 0.564804 -0.0285767
21.3838 13.5199 12.5758 -1.33785 -2.67266 1.052
25.702 12.2471 16.1622 -0.935795 -1.42395 -0.772958
23.064 16.1166 15.8087 1.16796 -0.0546241 -1.46021
23.6295 12.9427 14.0801 1.21368 -0.978906 0.40866
25.5167 14.7873 15.0332 -1.75523 -0.310092 -0.506752
23.2108 15.3262 13.0919 0.437063 0.673015 1.96779
14.2377 19.9821 14.444 2.01067 -0.0430638 0.828061
14.6158 17.4773 15.3525 -1.0695 -2.16238 0.433358
16.3892 19.4238 16.1479 -0.0950403 0.0956899 0.252528
16.4002 18.3924 13.3047 -0.899451 -0.61556 0.731347
18.482 17.9097 15.0561 -0.669884 -0.250479 1.07296
20.2628 20.146 15.7797 -0.277787 -0.126997 -0.191994
20.7462 16.552 14.1256 0.359058 1.60697 2.24882
18.6293 17.1009 12.4107 -1.41143 -2.24013 1.5223
20.301 19.1135 13.1536 0.22622 0.264672 2.50098
22.5344 18.7366 14.9194 0.924887 0.906746 2.21629
24.7434 17.3497 13.9667 -0.355027 -0.105212 -0.343545
22.6025 17.8665 12.3317 -0.865814 -0.299645 0.45291
24.4115 19.8986 13.1711 0.892537 0.267285 -0.301809
27.1788 16.7398 15.4874 0.00667758 -0.64797 1.80669
26.6318 19.3242 14.7376 -0.656584 1.0018 -0.83178
12.0139 21.5537 15.1987 0.21015 1.62043 -2.09789
13.7117 23.5918 15.9571 -0.358134 0.811301 0.314099
13.874 22.4719 13.5206 -0.466943 1.60665 1.23433
15.8923 22.0984 15.193 1.93134 0.0451072 0.367737
17.3901 24.4209 15.7463 -0.790361 -0.0827926 -0.690836
17.9789 20.5267 14.047 -0.634085 -0.223579 0.508607
15.7255 21.0274 12.2531 0.0587439 1.34001 0.522769
17.3227 23.2328 13.0823 0.962208 -0.205821 0.402904
19.9302 22.8717 14.894 0.360953 0.637603 0.160549
22.032 21.3485 13.9642 0.674708 -0.495278 1.42811
19.7099 21.7567 12.3148 -0.292429 0.152705 -0.788691
21.7375 24.0712 13.0267 -2.76644 1.41886 0.54668
24.3784 20.7564 15.7035 -2.27767 -2.7973 0.991135
23.9862 23.5328 14.7258 -1.76755 -1.08679 2.49058
26.1953 22.0735 13.8072 0.606011 -0.516728 1.99935
23.9568 22.522 12.1372 -0.308812 -1.01195 -1.15282
25.5237 24.7104 12.9547 -0.850954 -1.1296 -1.61763
28.3829 21.5486 15.5152 -1.61407 0.380246 -0.18666
27.5591 24.1876 14.6072 1.70464 -1.01048 1.54152
15.1926 24.7308 14.1399 0.656317 -1.06355 0.897245
16.9773 27.0093 14.8719 0.723802 -0.445252 0.316248
16.8481 26.0059 12.4394 0.245695 0.435728 -1.40607
21.6561 25.0919 15.7144 -0.575378 1.19125 0.717161
19.3554 25.6223 13.9398 -0.420591 -1.25054 -3.35281
21.052 27.7257 14.8901 -1.32053 -0.353831 -1.55202
18.7063 27.99 13.2821 0.785411 -0.89189 -0.750895
21.1506 26.5996 12.356 -2.58021 0.154264 -0.190214
25.5268 25.7975 15.4872 -1.1382 -0.308006 0.313643
23.3669 26.2839 13.8842 -0.212564 -0.363448 0.765303
18.7841 29.0315 15.763 0.220583 -1.3546 0.146733
17.5099 10.7763 16.5082 -0.91795 -0.504705 0.356561
17.3072 11.5597 19.003 1.82147 1.43578 1.23209
21.4695 11.7367 16.3857 0.278554 -1.16348 0.173743
19.7964 10.2828 18.278 1.6524 0.122805 -1.76081
22.118 9.21132 17.3373 -1.80547 -0.691383 -1.25767
21.9709 9.97137 20.0409 1.68527 -0.275321 0.701185
23.7197 11.2278 18.1161 -1.06231 -0.692759 -0.720175
11.2231 15.2337 18.8332 -0.800717 1.48933 -1.436
13.2244 13.6109 17.9931 1.9489 2.74048 0.251472
14.8476 15.4994 18.7278 -0.652901 -0.111801 1.7771
15.3843 12.2349 17.2238 -0.736353 0.197745 -0.660781
16.979 14.2067 17.9919 0.104391 1.46612 -1.33783
14.8995 14.7072 16.1566 0.437352 0.893121 -1.26494
15.2663 13.2049 19.8996 0.651655 0.48086 -0.0966701
19.1284 12.6442 17.159 -0.219968 -0.609304 -0.510779
21.277 14.7358 17.6453 -0.752819 -0.799186 0.169726
19.2265 13.6578 19.7814 0.515393 -0.16251 2.23425
21.5905 12.2132 19.0399 -0.906487 -0.310659 -2.09022
23.5249 13.536 16.7792 -2.37611 -0.814205 1.47724
25.4013 15.7151 17.7437 -1.37567 2.43467 1.29121
23.3572 14.3553 19.6612 1.23699 0.207379 2.26235
25.6525 13.0686 18.7846 -1.87276 2.52372 1.0853
27.3302 14.2036 16.9887 -1.30744 -1.00663 -1.95373
27.3536 15.0458 19.5855 -1.29501 1.107 -0.36414
8.96222 16.6087 19.8008 -1.2523 0.00603084 -0.521179
8.69447 19.4685 18.9121 -3.06282 -1.40159 -1.24819
12.7045 17.1166 19.845 -0.794166 0.751781 0.133902
10.7363 17.8064 18.0631 1.00452 -0.359878 0.793705
12.3075 19.9929 18.796 0.978099 -0.818994 -0.655564
12.7986 16.2252 17.0255 0.249994 0.328504 -0.46652
12.2953 19.0076 16.1076 0.825541 -2.2298 0.435687
16.5245 17.8325 19.703 -0.762227 -0.142268 0.737525
14.414 18.4879 17.8936 1.55202 0.262633 0.729734
16.6788 16.7128 17.0247 -0.329359 -0.147299 -0.303776
18.9794 16.151 18.638 0.850077 1.39233 1.01494
20.7802 18.3174 19.5042 0.599268 1.97325 -0.0548873
18.5011 18.8792 17.8028 -1.26767 -0.396133 0.0277474
20.6978 17.4194 16.8391 0.466162 1.30158 0.898354
23.0411 16.9666 18.5627 0.285103 0.680892 0.658096
24.8793 19.0826 19.4399 -1.7473 0.658322 -0.599164
22.7271 19.6042 17.6016 -0.148098 -0.582218 -0.571554
24.94 18.0948 16.5408 -2.27045 2.17414 0.832276
27.0753 17.5293 18.5881 -1.42885 0.670114 -1.10334
28.6366 19.742 19.3926 1.16023 0.194354 -2.1464
29.0565 16.2508 17.4893 -1.9864 -1.38462 0.546025
26.5514 20.2473 17.4928 0.0866444 -0.106303 -1.29174
28.6716 18.7558 16.5661 0.170901 0.0349189 0.45924
29.1723 16.9306 20.36 0.292344 0.871224 0.41262
30.5579 18.324 18.5112 0.839661 2.08591 -0.823365
10.2219 21.6281 19.63 -0.62301 0.138009 0.303045
10.2958 20.5032 17.0449 1.55466 -1.14647 1.12965
13.9762 22.0948 19.6238 0.0644412 0.700986 0.136697
11.8062 22.6346 17.7264 1.8932 0.631803 2.66232
14.0843 21.0508 16.9196 3.1659 0.34423 1.0217
15.8994 24.2093 20.3914 0.589989 -0.41315 -0.820842
16.2715 20.4766 18.7943 0.783041 1.52381 -1.00378
18.0923 22.8648 19.5245 1.20507 0.859061 0.916698
15.832 23.1823 17.8229 -0.232396 -0.382873 1.59183
18.0599 21.5219 16.7134 0.573456 2.34369 2.22134
22.7296 20.6522 20.2378 -1.70711 -2.26009 -0.132463
20.2621 21.1748 18.3439 0.897886 -1.48026 0.377278
21.9864 23.3089 19.1978 1.01669 -0.384979 0.457849
19.7551 23.8759 17.4416 1.20651 0.134626 0.957898
22.0684 22.288 16.5741 0.978793 -1.05943 0.859238
26.6224 21.3176 20.2804 0.911709 0.72 -0.436798
24.5386 21.9447 18.3989 -0.384461 1.06018 0.219938
26.1128 24.1059 19.09 -0.257251 -0.371098 -0.376294
23.798 24.4429 17.3732 -1.02749 0.182281 1.75847
25.9849 23.0503 16.3125 -1.6256 0.791895 -0.233272
30.2658 21.9141 20.0584 -0.120513 0.00657979 1.03416
28.2063 22.5876 18.147 -0.17992 -0.933076 0.799235
29.6716 24.6738 19.0846 -0.367207 -0.332402 0.140167
29.6382 23.6329 16.2219 0.115345 -2.10289 0.613201
32.2902 20.2825 19.2315 1.64684 -0.515368 1.13772
33.6268 22.4822 19.7417 3.39701 1.40851 0.0786348
30.2944 20.8894 17.4932 -1.60535 1.46672 -0.197884
31.6424 23.2749 17.9351 2.45264 2.07968 -1.42762
13.6533 24.5596 18.6602 -0.402473 -0.487727 -0.508522
15.277 26.7437 19.4284 -1.46188 0.429763 1.60759
17.4909 25.2842 18.4044 -1.2858 -1.11882 0.218289
15.2759 25.8897 16.7572 -1.48218 1.39882 0.0929455
16.9355 27.9841 17.4665 0.00740747 -1.30291 0.646142
19.8377 24.9323 20.2778 0.777915 -0.836428 -0.378368
19.2842 27.5227 19.188 -0.163508 -2.29486 -1.07002
21.5994 26.011 18.3225 0.118279 -0.417272 0.490313
19.258 26.6117 16.687 1.11215 -1.53123 0.00244217
21.0153 28.7684 17.4099 0.167427 -1.83567 1.08031
23.7222 25.5179 19.9487 -0.0745451 -1.58987 -0.384999
23.3064 28.1493 19.1075 -0.395299 0.988998 1.62496
25.512 26.5848 18.1116 0.531919 -0.364361 1.32267
23.2111 27.1343 16.6758 -0.564487 -1.16129 -0.773343
27.6172 26.2842 19.9583 0.086597 0.0310885 0.287329
27.8027 25.1442 17.2355 -1.46768 -0.496609 -0.0140471
16.9527 29.126 20.078 0.681036 0.732186 -0.185742
20.9157 29.7654 19.9688 -0.902677 -1.79556 0.577242
18.7098 29.9202 18.2391 0.561754 -0.606414 0.401581
19.6097 11.1629 20.8249 -0.304514 -1.22598 -1.77002
21.9582 10.8351 22.5392 0.914974 0.234944 0.356764
23.9123 11.8792 20.8003 -0.639976 -0.0967407 -0.393789
12.9107 14.5646 20.711 1.19195 1.15233 -1.58053
13.0013 15.6096 23.5341 -0.146286 0.686498 0.306251
17.0538 15.2417 20.6645 -0.392439 0.896267 0.517586
15.3798 14.1485 22.5793 0.419693 -0.186067 -0.269938
17.4772 12.6944 21.5815 -1.03484 -0.287768 -0.313974
17.4381 13.7124 24.2538 0.0665748 0.973526 0.0424487
21.1574 15.6167 20.4921 -0.539472 1.81328 1.50615
19.1813 14.7446 22.4535 -0.591663 1.58926 -1.41264
21.4848 13.2218 21.8573 -0.117905 2.59673 -1.6066
19.6833 12.1617 23.3926 -2.80299 3.4312 0.33735
21.5845 14.2882 24.1966 -0.429925 1.28258 -1.55087
23.5019 15.2247 22.3421 2.39541 1.89351 -1.79453
25.6164 13.909 21.463 0.267915 -1.00471 1.57337
23.7821 12.7071 23.3644 1.07859 0.929109 0.55934
25.5595 14.8899 24.16 -0.62943 0.49866 0.657844
27.3225 16.0345 22.2042 -0.988491 0.248539 0.0736739
7.09773 18.3079 20.6942 -2.17548 -0.680891 -0.354335
8.81035 20.4207 21.5015 -1.52404 -0.911951 0.0531721
8.93398 17.7811 22.6042 -1.42186 -0.624594 0.858132
10.8163 19.8742 23.4831 -1.59435 -0.595316 0.884129
10.8232 18.8525 20.7262 -1.61686 -0.312523 0.816626
10.9757 16.1239 21.6246 -0.999382 1.03897 0.395322
12.5766 18.1792 22.4432 0.281772 -0.755568 -0.831435
11.1757 17.28 24.3353 -1.28236 0.0419101 1.84444
14.4241 19.3866 20.7419 -1.89427 0.214707 -0.0445585
14.836 16.646 21.7178 -0.00389882 -1.42306 1.54091
16.5254 19.0269 22.3528 -0.00021293 1.28342 0.0254688
14.8613 17.8236 24.3245 2.11765 0.157847 -1.59845
17.0151 16.2581 23.3916 0.366277 -1.08553 -0.98713
18.4022 20.1108 20.5225 1.40758 0.641949 1.26352
18.8207 17.3794 21.4694 0.374351 1.60374 0.271863
20.8513 19.381 22.4133 0.918664 -0.329889 0.306498
18.7758 18.3997 24.2045 -0.902046 -0.267507 0.389175
21.0176 16.7919 23.1558 0.669823 1.5696 -0.907799
22.9791 17.7102 21.3536 -0.443828 1.49712 1.15533
24.806 20.156 22.0523 -0.437592 0.878041 -1.26076
25.0965 16.4276 20.4949 -2.41513 0.612041 1.05109
22.9523 18.934 24.0216 -0.775306 -0.742586 -0.980099
25.1742 17.3976 23.222 -2.80899 -0.406123 -3.26748
26.9836 18.5668 21.277 0.461972 -0.540353 -0.850619
26.8094 19.5851 23.9689 -2.66892 -0.436299 -1.90196
29.0265 18.1263 23.0472 0.713711 -0.49797 -1.93457
30.6785 19.075 21.123 -1.10608 1.45409 1.61584
30.5111 20.4699 23.9173 -0.926714 -1.68775 0.126397
10.4243 22.6495 22.4438 -0.428478 1.27187 -0.462896
11.943 24.6731 23.1184 -0.519406 -1.12341 -0.496278
12.0861 21.0557 21.4852 1.10986 -1.31967 0.220543
13.9952 23.1633 22.3095 2.08519 1.33373 -0.847928
11.7415 23.6425 20.4746 2.15919 -0.261734 0.460189
12.1602 22.0592 24.2877 -0.145573 -0.718093 -0.117862
14.3731 20.5528 23.3333 0.736277 -1.21083 0.544909
16.1741 21.5873 21.3344 1.7068 -1.19372 -1.20314
18.0268 23.7721 22.1677 1.19738 -1.31606 -0.46646
15.9935 22.5889 24.0303 0.143084 -3.52973 0.525788
18.3912 20.9892 23.1924 0.321261 0.815578 -1.5343
20.2282 22.2895 21.3603 -0.475988 -1.0419 -0.572491
22.1424 24.3733 22.0488 -0.606207 -0.864871 -0.536695
20.2417 23.3899 23.9895 0.675101 -0.788944 -0.217613
22.3706 21.6835 23.131 -2.34301 -1.05582 -0.140659
24.2869 22.7637 21.0412 -1.79535 -0.952322 0.628803