ITEM: TIMESTEP
0
ITEM: NUMBER OF ATOMS
34
ITEM: BOX BOUNDS ss ss ss
1.6347979694755569e+01 2.3952522914495251e+01
1.5592540347491186e+01 2.4703540926831689e+01
1.6608383348877830e+01 2.4174009836773870e+01
ITEM: ATOMS x y z vx vy vz
17.3623 19.0021 18.2696 0.970967 0.242065 -0.0711224
18.7396 16.7349 18.9187 0.921875 0.505737 -1.18598
19.9128 19.2298 19.2671 0.0751925 0.258596 1.22134
19.4659 19.7757 16.6125 -3.19524 -1.97792 -0.433753
22.4784 17.9355 19.4775 0.85008 -0.146613 0.350845
21.1677 15.5966 19.2362 0.404692 -0.0960381 -0.716397
22.0245 19.9315 17.5662 -0.555825 -1.42825 -0.255445
20.7712 17.47 17.3119 -2.53778 -0.457608 -0.619892
16.3521 20.6485 20.3031 1.30871 0.465273 1.17477
18.4061 21.5141 18.4174 2.07183 -0.84407 -0.346916
17.0242 23.2458 19.9905 0.103469 0.610881 0.343861
19.4421 23.9855 19.0468 1.37677 -0.520361 0.411464
23.4167 22.2057 17.8493 1.2028 1.04318 0.191783
22.0191 24.342 18.3562 -1.48301 -0.485019 0.498311
20.6947 22.2943 17.0117 2.28161 -0.37668 0.51603
23.695 20.4078 19.8467 -0.801517 2.1321 -2.93404
21.1692 21.8834 19.6279 1.20773 0.462525 1.15089
17.7739 18.3841 20.9189 1.07429 -0.894016 1.17804
19.406 18.9738 23.2006 -0.489597 -0.197744 -0.323983
16.9146 19.9346 22.9579 0.0159624 0.104742 1.84632
23.9484 18.4679 21.8025 1.03444 -0.512272 -0.486009
22.7123 16.0941 21.4423 0.150123 -0.427376 0.922944
21.9012 17.7796 23.4101 -0.968846 0.843089 -1.33182
21.4959 19.7401 21.5005 1.29177 -0.379927 0.699775
20.247 17.1564 21.2428 -1.9844 0.267788 -0.486258
19.0257 21.6451 23.8166 -1.57313 1.26578 0.454632
18.88 21.0865 21.1888 0.650189 0.427816 -1.17376
18.9745 23.7919 21.8285 -1.2357 1.18217 1.08389
16.7178 22.4905 22.5075 -1.36555 -0.840777 -2.25444
23.6649 21.0895 22.5125 0.0101172 1.54329 -1.95204
23.4475 23.0553 20.5233 1.73878 0.36001 0.386326
21.3352 24.6995 20.8868 0.190441 -0.717099 0.526142
21.3065 22.4503 22.4113 -1.69197 -1.5234 1.22876
21.537 20.3873 24.1699 -1.04928 0.110129 0.385729
ITEM: TIMESTEP
1000
ITEM: NUMBER OF ATOMS
34
ITEM: BOX BOUNDS ss ss ss
1.6347979694755569e+01 2.3952522914495251e+01
1.5592540347491186e+01 2.4703540926831689e+01
1.6608383348877830e+01 2.4174009836773870e+01
ITEM: ATOMS x y z vx vy vz
17.2843 19.0408 18.2532 -0.488989 0.639834 0.833657
18.7951 16.6499 19.0459 0.890283 -0.261537 -1.29569
19.8524 19.2859 19.109 -0.655782 -1.78732 -1.84486
19.5532 19.9664 16.4633 0.688509 -0.0721684 0.464625
22.521 18.009 19.5096 0.362966 -0.245685 -1.11033
21.3261 15.714 19.0428 0.234025 -1.79251 -0.548519
22.0518 19.9432 17.5439 0.02808 1.0162 0.263021
20.5109 17.478 17.3412 0.0268363 -1.41034 -0.586364
16.4464 20.6364 20.2326 -0.326179 0.323727 -0.286287
18.4162 21.4395 18.2565 0.150021 -0.301749 0.705977
17.1649 23.2345 20.2338 1.30559 -0.357288 0.0654514
19.3655 23.9414 19.0235 1.40039 -0.30515 -0.658079
23.3502 22.0933 17.8232 -0.190652 -0.321122 0.584405
21.8698 24.1974 18.2715 0.41632 -0.570705 1.24919
20.7101 22.2609 16.8909 0.0364039 -0.126688 0.476731
23.7619 20.359 19.8605 -0.127339 0.476958 -0.568788
21.195 21.8454 19.6167 -0.247603 1.07885 -0.258876
17.7801 18.2969 20.8654 -0.100745 -0.475713 1.4429
19.3082 18.958 23.0125 -0.275486 0.39931 0.456364
16.9111 19.9433 22.886 -0.627715 0.449775 0.0556651
23.6834 18.4969 22.2546 -1.36446 -0.427824 0.62789
22.6167 16.25 21.5324 0.625046 -1.44103 -1.26221
21.634 17.7813 23.6678 0.511106 -0.63503 -1.00897
21.467 19.7948 21.525 0.554463 1.98644 1.58951
20.3512 17.198 21.1946 -0.76922 0.880094 0.0831305
19.2069 21.6205 23.8148 0.668165 0.14509 -0.515575
18.9855 21.1416 21.1835 -1.06856 -0.993696 0.99586
19.0572 23.8008 22.1287 0.707142 0.545212 0.199421
16.7375 22.3463 22.5444 -0.448569 0.93349 -0.622989
23.677 21.1432 22.3908 0.939407 -0.744814 0.671806
23.3557 23.1261 20.4193 -0.950905 -0.649419 0.647966
21.2496 24.569 20.8141 -3.05017 1.36828 -0.960786
21.4512 22.5193 22.5454 -0.282937 1.14162 0.746138
21.783 20.3492 24.1329 1.43056 1.53491 -0.631399
ITEM: TIMESTEP
2000
ITEM: NUMBER OF ATOMS
34
ITEM: BOX BOUNDS ss ss ss
1.6347979694755569e+01 2.3952522914495251e+01
1.5592540347491186e+01 2.4703540926831689e+01
1.6608383348877830e+01 2.4174009836773870e+01
ITEM: ATOMS x y z vx vy vz
17.335 18.9798 18.3061 0.396321 -0.956572 -1.57193
18.8019 16.8063 18.7653 -1.25673 -0.0985675 0.713438
19.9311 19.1201 19.1093 -0.332961 0.287021 -1.06005
19.4732 19.9287 16.6174 0.467002 0.0811991 -0.730382
22.5763 17.9003 19.409 0.11373 0.299326 0.0170165
21.0858 15.8135 19.2381 1.10897 -2.12874 0.373364
22.127 19.9169 17.5148 -1.11518 1.11774 -0.439969
20.8429 17.5564 17.1465 -1.07981 0.124889 0.309674
16.3868 20.6008 20.2725 -0.150011 -0.898866 0.408189
18.2475 21.5268 18.4691 -2.10568 -0.114232 -0.921823
17.1404 23.2454 20.3828 0.25661 0.383418 0.548302
19.3618 23.9958 19.0308 1.18882 -0.548007 -1.28621
23.4555 22.0166 18.0087 0.890031 0.176368 0.141997
22.0032 24.0369 18.2388 0.531059 -0.34485 0.602499
20.6217 22.2484 17.0226 0.650384 0.0694559 0.58479
23.8288 20.289 19.7465 0.523372 1.39802 -0.119535
21.0494 21.9261 19.5936 1.54548 0.30701 -0.902374
17.8336 18.3169 20.97 -0.426756 0.596651 0.905549
19.3387 19.2234 23.0879 -0.0980726 1.72011 -0.504451
16.8213 19.9545 22.8287 -0.024964 -0.224088 -0.472977
24.0464 18.4379 21.8574 -0.453369 -1.61899 0.93179
22.5813 16.3542 21.4335 0.75858 -0.143803 -0.123608
21.9532 18.1718 23.2995 1.51699 -1.68549 -0.966575
21.69 19.8954 21.3736 0.796372 -0.257068 -0.355542
20.1484 17.2266 21.3626 -1.53657 -0.00379115 1.23842
19.0671 21.7519 23.8051 0.83238 0.784561 -0.0621297
18.8661 21.0046 21.1266 -0.469253 0.231397 -0.161778
19.0267 23.6598 21.9259 0.394146 0.734703 1.0016
16.4625 22.2498 22.6706 -0.887489 -1.35039 0.473982
23.7495 20.8868 22.6561 -0.993956 0.128952 0.201928
23.3982 22.8293 20.6521 -1.154 0.955821 -0.284263
21.3212 24.496 20.7396 0.0975566 0.34809 0.384231
21.3508 22.469 22.5419 -0.895095 -0.00821456 1.36407
21.5069 20.5944 24.2267 0.912098 0.636944 -0.237253
ITEM: TIMESTEP
3000
ITEM: NUMBER OF ATOMS
34
ITEM: BOX BOUNDS ss ss ss
1.6347979694755569e+01 2.3952522914495251e+01
1.5592540347491186e+01 2.4703540926831689e+01
1.6608383348877830e+01 2.4174009836773870e+01
ITEM: ATOMS x y z vx vy vz
17.4519 18.9671 18.2405 -1.21947 -0.304782 -0.521896
18.8473 16.8091 18.9143 -0.286061 0.419568 -0.71431
19.865 19.2015 19.2266 -0.352883 0.433005 -0.66921
19.4111 19.7831 16.4853 -0.283516 -0.0363712 0.702775
22.5442 18.0038 19.4317 0.171908 -0.309511 1.56415
21.1565 15.7816 19.3242 0.068781 -0.771515 -0.433377
21.9411 20.0105 17.4935 0.604328 1.30518 -0.828695
20.6581 17.5763 17.2765 1.20239 0.299463 -1.00516
16.4594 20.6593 20.2727 0.665502 -1.31308 1.94697
18.4434 21.4855 18.4722 0.196735 1.28811 -1.67011
17.0733 23.0473 20.0724 -2.69646 1.22804 1.27852
19.5315 24.026 18.9555 -0.125888 0.482439 -0.550655
23.4194 22.2155 17.857 1.15697 0.582205 -0.516477
22.1348 24.273 18.3608 -0.107572 -0.473621 1.35035
20.6827 22.3996 17.0388 -0.871987 -1.20996 -3.12334
23.482 20.521 19.7584 1.53688 0.364678 0.677828
21.0806 21.9469 19.6248 0.00624901 0.0510549 -1.48707
17.6721 18.3576 20.8981 0.0887486 -1.39043 -0.649228
19.431 19.0216 23.2396 -0.0553492 -1.39937 -0.266982
16.9575 19.6651 22.9695 -0.667931 0.187317 1.37391
23.6828 18.3904 21.9997 1.32022 0.260568 1.16966
22.5684 16.1956 21.4353 -0.743378 -0.19798 1.74282
21.7235 17.7994 23.5836 0.426868 0.239562 0.682252
21.5299 19.7423 21.4987 0.976674 0.433719 -0.718801
20.2252 17.3871 21.1663 -2.04551 1.2078 -1.268
19.0345 21.7321 23.8707 1.3549 -0.29777 0.893975
18.9439 21.0302 21.2728 -0.0570005 -0.423165 0.856721
19.0168 23.807 21.669 1.78511 0.41273 -0.125251
16.8725 22.2162 22.594 0.551534 -0.41998 0.163976
23.7816 21.0363 22.5406 -1.01426 -1.39941 1.31026
23.4466 23.0689 20.5151 0.152983 -1.08276 -0.346479
21.3608 24.5563 20.8286 -0.586893 0.586783 -0.668779
21.2964 22.3502 22.4346 -0.519316 0.0552525 0.365056
21.7044 20.3668 24.1085 -0.633317 1.19223 -0.515398
ITEM: TIMESTEP
4000
ITEM: NUMBER OF ATOMS
34
ITEM: BOX BOUNDS ss ss ss
1.6347979694755569e+01 2.3952522914495251e+01
1.5592540347491186e+01 2.4703540926831689e+01
1.6608383348877830e+01 2.4174009836773870e+01
ITEM: ATOMS x y z vx vy vz
17.2741 18.8193 18.2272 1.15416 -0.219804 -0.694154
18.84 16.7141 18.7874 -0.617997 -1.26145 0.340825
19.7672 19.3074 19.1153 -0.614856 -2.18917 0.652389
19.2684 19.5839 16.5704 2.10342 2.13081 -0.471723
22.4321 18.063 19.5116 -0.192686 -0.166071 -0.0442982
21.2687 15.7313 19.2636 1.02133 0.685973 -1.21679
21.9829 19.9858 17.5021 -1.05032 -1.52674 1.57744
20.7723 17.5055 17.3444 -0.955899 0.336164 -1.5595
16.4247 20.6425 20.2579 -0.901114 0.29548 0.050432
18.1898 21.3917 18.2332 -0.648613 0.985804 1.01301
17.2206 23.1082 19.8964 0.940701 -0.382201 0.0717417
19.5783 23.9692 19.0658 0.790556 -0.453945 -0.406957
23.246 22.1092 17.8599 -0.0243521 -0.359168 -1.16015
22.1234 24.2491 18.5853 -0.177771 -0.331926 -1.87926
20.6508 22.361 17.0341 0.375105 1.73833 -0.592506
23.7964 20.4401 19.8186 -1.512 0.315537 -0.315432
21.0724 21.8985 19.6179 0.0957815 0.500774 0.364785
17.8206 18.3517 20.9408 1.69247 0.0980842 -0.193391
19.4982 18.9862 23.2858 -0.032652 -0.180331 -0.202814
17.1151 19.9889 23.0453 -1.49938 -0.904725 0.327583
23.989 18.4035 21.9582 0.879874 -1.19678 -0.0642878
22.6568 16.2344 21.4149 0.448323 0.649312 0.336641
21.8148 17.8163 23.3312 0.531412 0.929623 2.17924
21.5108 19.8024 21.4264 -0.323743 -0.371174 1.30018
20.2194 17.3126 21.0839 -1.23233 0.716663 -0.00603541
19.0267 21.6321 23.9887 0.430934 -0.891575 1.72751
18.885 21.1807 21.1734 -1.57696 1.16962 -1.461
18.9262 23.9187 21.8294 -0.259489 -0.750915 1.26468
16.8664 22.5243 22.4586 -0.416737 -0.283979 -0.269488
23.6602 21.0512 22.4499 -0.712812 0.902977 0.73322
23.4145 22.8984 20.6521 1.07928 -1.4886 -0.421964
21.2917 24.5277 21.091 0.22449 -0.0894048 -0.451224
21.3208 22.4356 22.48 0.304251 0.971795 -0.0691466
21.5058 20.4854 24.1296 0.677624 0.621032 -0.459558
ITEM: TIMESTEP
5000
ITEM: NUMBER OF ATOMS
34
ITEM: BOX BOUNDS ss ss ss
1.6347979694755569e+01 2.3952522914495251e+01
1.5592540347491186e+01 2.4703540926831689e+01
1.6608383348877830e+01 2.4174009836773870e+01
ITEM: ATOMS x y z vx vy vz
17.3748 18.9512 18.3191 0.46531 -0.417971 1.26429
18.7626 16.7258 18.8033 1.03521 -0.153364 -0.918236
19.7863 19.0793 19.4078 -0.0632477 -1.276 0.403512
19.3099 19.4613 16.6706 -1.33215 -0.0497235 1.9422
22.3288 17.927 19.5407 0.682894 -0.423264 1.94552
21.0241 15.6627 19.1628 0.0797316 0.144319 0.915361
21.6336 20.1241 17.6975 0.496192 -0.528452 -1.50888
20.9056 17.4443 17.3021 -0.0991048 0.122481 -0.726244
16.3389 20.5536 20.0861 -0.59268 1.48015 0.336282
18.5536 21.4241 18.2057 0.0904892 0.835424 -1.10268
17.1876 23.0882 19.7303 -0.43972 -0.672206 1.88805
19.5531 24.2053 19.0866 -0.567437 0.398393 0.848676
23.2535 22.1962 17.9716 -0.474692 -0.136484 -0.588184
22.0653 24.3471 18.5037 -0.334189 -0.552992 -1.39888
20.6858 22.4382 17.0685 0.58272 0.386508 -1.10429
23.5276 20.4213 19.8205 -0.772704 0.252873 0.423829
21.1148 22.0717 19.7839 0.184008 1.10507 0.210789
17.8148 18.3305 21.0379 0.405363 -0.65459 -2.89114
19.5044 19.1125 23.061 -0.593463 0.19736 1.54389
17.1854 20.1042 22.9844 -2.34729 -0.768516 0.710014
23.9467 18.4688 21.6913 0.924256 -1.11499 0.415583
22.6424 16.1431 21.2843 1.38696 -1.62476 -0.543135
22.1021 17.7328 23.2944 1.25884 -0.507891 0.155172
21.6018 19.7409 21.6004 0.127527 0.226807 0.674349
20.1807 17.1021 21.3543 -0.746973 -0.343793 -0.805842
19.0497 21.7359 23.766 -0.0505033 -0.276836 -0.450533
18.8657 21.1403 21.0552 -0.575632 1.88416 -1.34274
18.9981 23.7561 21.7987 0.362929 0.378161 0.127358
16.5908 22.3955 22.3335 -0.829565 0.529258 -0.352129
23.6875 21.0999 22.5819 -0.00692915 -0.516235 -0.355545
23.541 22.9621 20.7001 1.47509 0.781612 0.325151
21.2893 24.5735 21.0226 -0.176556 0.26801 0.675667
21.3739 22.4473 22.5248 1.86708 0.25239 -0.471225
21.6497 20.4632 24.1783 -1.42176 0.775095 -0.24602
ITEM: TIMESTEP
6000
ITEM: NUMBER OF ATOMS
34
ITEM: BOX BOUNDS ss ss ss
1.6347979694755569e+01 2.3952522914495251e+01
1.5592540347491186e+01 2.4703540926831689e+01
1.6608383348877830e+01 2.4174009836773870e+01
ITEM: ATOMS x y z vx vy vz
17.2718 19.0414 18.2498 0.963256 -0.696541 -0.0478631
18.4859 16.7619 18.754 -0.11987 0.0925979 0.825556
19.9595 19.0438 19.198 -0.308533 -0.907907 -0.0818573
19.4628 19.7761 16.7053 -0.42909 -0.245248 -0.105786
22.5096 18.0926 19.4326 -0.351776 -0.376185 -0.127144
21.0018 15.9741 19.2343 0.81294 -0.598494 2.31239
22.0523 19.9888 17.5813 0.699576 -1.2891 1.82659
20.6364 17.605 17.1899 -0.359817 0.376887 -0.0940689
16.3817 20.6028 20.1097 0.142853 1.88076 0.265808
18.4299 21.3371 18.4015 -1.65189 -0.250092 -1.82209
17.0298 23.0556 19.8869 -0.239954 -0.897759 -0.714646
19.495 23.8305 19.2554 -0.105138 -0.161186 0.410673
23.4665 22.1706 17.9267 0.318254 0.14023 -1.68177
21.9826 24.1327 18.4945 1.41229 -0.127095 1.38879
20.6762 22.365 17.0956 -0.835548 1.76746 0.564152
23.8866 20.3842 19.8817 0.0301304 0.618056 -1.10109
21.3053 21.6559 19.5673 1.13802 0.266381 -1.04742
17.9363 18.5005 20.9507 0.595323 -0.0512258 0.905547
19.5256 19.044 23.3724 -1.30207 0.471239 -0.260429
17.0414 19.9453 22.8318 0.574386 -0.674775 -1.14428
23.6733 18.4412 21.99 -0.216937 -2.00778 -0.0129001
22.7876 16.2314 21.3463 1.03889 0.365502 -1.34484
21.7144 17.6498 23.5371 0.426735 -1.21439 0.873754
21.4496 19.6894 21.5271 -0.431695 1.16498 0.268309
20.294 17.2231 21.3775 -0.215473 -0.569606 0.0818866
19.2862 21.7776 23.7777 0.476147 -0.526832 0.12039
19.0477 21.1942 21.2014 -1.17623 -0.740406 -0.652062
18.8365 23.7602 21.903 1.77423 0.174944 -0.0231005
16.6595 22.3352 22.4285 -1.81453 0.0354664 1.1428
23.5556 21.0518 22.4552 -0.0929599 0.905248 -2.02514
23.4269 23.0975 20.5582 0.472845 0.631893 1.04291
21.2468 24.7634 20.8411 0.787384 1.50227 1.90883
21.3002 22.493 22.276 -0.501746 0.330001 -0.945115
21.6149 20.4143 24.0915 -1.50999 0.610707 -0.706778
ITEM: TIMESTEP
7000
ITEM: NUMBER OF ATOMS
34
ITEM: BOX BOUNDS ss ss ss
1.6347979694755569e+01 2.3952522914495251e+01
1.5592540347491186e+01 2.4703540926831689e+01
1.6608383348877830e+01 2.4174009836773870e+01
ITEM: ATOMS x y z vx vy vz
17.1257 19.0757 18.5432 -1.28988 -1.73683 1.9756
18.547 17.075 18.3887 0.751958 0.0614312 -1.77038
19.9661 19.1116 19.2417 -0.0721208 0.0834206 -1.1327
19.5922 19.5987 16.7301 1.29375 0.828005 1.71261
22.5979 18.1724 19.4602 0.401966 -0.441226 -1.31478
20.7947 16.0853 19.1493 0.0102895 0.864325 0.396221
22.1582 20.0272 17.3918 0.758163 1.09037 -0.466448
20.9544 17.6047 17.1638 -2.22078 -0.913286 -1.15127
16.219 20.4416 20.507 -2.14888 0.444476 0.337419
18.4259 21.4022 18.3538 0.235096 0.122168 -2.13383
17.3638 22.8986 19.8962 -0.067731 -0.556322 -1.22209
19.5378 23.9216 19.015 -0.00575316 -0.532114 0.512351
23.436 22.1152 18.0923 0.637579 0.720632 0.232117
22.0996 24.1861 18.4498 0.545429 -0.00502458 -0.280664
20.6664 22.155 16.9801 1.88667 -0.272406 0.28722
23.7712 20.5137 20.0484 0.399784 0.936877 -0.758327
21.1107 21.7524 19.5524 0.402566 -0.0104093 0.917492
17.7384 18.3413 21.0638 -1.3936 -0.0560536 0.549149
19.3759 18.9673 23.2281 0.540892 -0.933354 0.11125
16.9871 19.9546 23.121 0.775593 0.0885699 1.25431
24.0031 18.4983 21.8374 0.395359 -0.0907273 0.159763
22.4418 16.3639 21.3996 -0.507975 0.39275 1.54584
21.9864 17.889 23.3535 -0.498316 -1.81576 0.796778
21.5273 19.6907 21.5382 -0.0996168 0.128947 -0.517532
20.0074 17.1449 21.3416 -0.271517 -2.11952 -0.395129
19.2417 21.7212 23.6736 0.34918 0.932554 0.622945
18.9271 20.9452 21.1766 -1.51566 0.796504 -0.187465
18.9854 23.6803 21.6909 -0.270578 -0.675926 -0.650711
16.7194 22.3293 22.5268 0.743728 -0.00171145 0.207294
23.6397 20.9652 22.7004 -0.0942793 0.553187 -1.52899
23.4084 23.0245 20.7098 1.10655 1.40196 0.160548
21.2668 24.7986 20.729 -0.413766 0.141804 0.342438
21.272 22.5519 22.2873 -0.388259 -0.280856 -0.191466
21.5353 20.4266 24.0886 0.0241707 0.853545 1.58043
ITEM: TIMESTEP
8000
ITEM: NUMBER OF ATOMS
34
ITEM: BOX BOUNDS ss ss ss
1.6347979694755569e+01 2.3952522914495251e+01
1.5592540347491186e+01 2.4703540926831689e+01
1.6608383348877830e+01 2.4174009836773870e+01
ITEM: ATOMS x y z vx vy vz
17.2183 19.3322 18.57 -1.6782 -1.09451 0.468161
18.7355 16.7203 18.775 0.214426 0.891596 1.09904
19.8766 19.1784 19.2083 1.09587 -0.785158 0.168531
18.9521 18.9579 16.7356 -0.591669 -1.24521 -0.0961073
22.3466 18.02 19.435 0.00546232 -0.0863544 -0.580482
21.1833 15.6051 19.274 -0.234066 0.7493 -0.600833
21.6865 20.2593 17.5033 0.665701 0.601563 -0.0883815
20.736 17.3929 17.4375 0.226054 0.573181 -0.797408
16.0877 20.5862 20.6479 -1.81017 -1.13287 0.465391
18.8704 21.5113 17.8435 1.17966 -1.2311 0.0362311
17.2013 22.5988 19.6639 0.00252352 0.20633 -0.56701
19.5463 23.8915 18.9016 0.469529 2.52041 -0.789783
23.4963 22.3214 18.2117 0.459436 -0.776567 0.774262
22.2691 24.5102 18.7406 -0.0642103 0.395913 0.0281537
21.0792 22.844 17.0268 0.0213453 -0.272543 1.0813
23.5324 20.3931 19.8791 0.293193 -0.993994 0.0730444
21.166 21.9935 19.7127 -0.543065 0.531543 -0.341005
17.7971 18.3392 20.958 -0.414507 1.2871 1.79773
19.3533 18.7092 23.294 -1.33763 -3.15441 -0.293685
17.0652 20.0629 22.9545 0.289912 1.49128 0.512487
23.8543 18.5676 21.6504 0.753364 -0.0789886 -1.49422
22.4969 16.3766 21.4802 0.25279 -0.150311 0.477376
21.9298 17.941 23.5166 -0.0488296 0.834162 -0.916636
21.2661 19.7762 21.5821 -0.562169 0.00470631 -1.51901
20.0765 17.1901 21.0743 -0.828957 -0.373917 -0.482741
19.3946 21.4922 23.4166 0.17189 0.0823567 -0.785716
18.7833 20.8901 20.9093 0.742372 -0.92784 -0.152484
18.9655 23.6315 21.5883 -1.64022 -1.8556 -0.921864
16.88 22.45 22.6145 0.486868 0.735175 -0.288917
23.6339 21.0051 22.4842 1.54115 0.69512 0.0619473
23.5598 23.0785 20.7711 0.991271 -0.408309 1.52176
21.1998 24.7462 20.9556 -0.00941882 0.687782 0.551855
21.477 22.6399 22.481 -0.141846 1.16795 0.785423
21.7133 20.4176 24.1327 0.0421388 1.11221 0.813596
ITEM: TIMESTEP
9000
ITEM: NUMBER OF ATOMS
34
ITEM: BOX BOUNDS ss ss ss
1.6041964862656410e+01 2.3874194433569059e+01
1.5617676220146993e+01 2.4763840104841847e+01
1.6727851747804671e+01 2.4155675188678320e+01
ITEM: ATOMS x y z vx vy vz
17.1795 19.6849 18.7479 0.452594 2.07055 0.394463
18.5065 17.2498 18.2987 0.994366 -1.46976 -0.229314
20.0014 19.1407 19.2847 0.382347 -0.355791 0.067361
18.9904 19.1226 16.5981 -0.731342 0.289552 0.559897
17.5612 18.24 20.8456 -1.47385 -0.88346 0.0370377
19.5724 18.9998 23.2569 0.881398 -0.40852 -1.18538
17.1316 19.7573 23.1432 -0.527766 -0.529678 -2.00225
22.6861 18.1166 19.1813 -0.19436 -1.41716 0.641676
20.975 16.1286 19.2958 0.513001 -0.895142 0.0778812
20.8356 17.4576 17.0865 -0.813079 -0.315175 0.384335
24.0513 18.6693 22.0379 -0.572998 1.51909 -0.411836
22.4007 16.7989 21.4093 0.474466 -1.28715 -1.12019
22.1288 18.0518 23.7166 0.629946 0.784687 0.601939
21.501 19.5008 21.4723 0.307927 -0.353171 0.263939
19.842 17.1752 21.4034 1.33326 0.192411 -0.846365
16.1274 20.6062 20.9401 -1.00782 0.343348 -1.05515
19.0527 21.4055 17.7469 0.120936 2.3939 1.05093
17.3812 22.3814 19.5778 -0.0111339 -0.819482 0.92724
19.6717 23.7775 18.9166 1.58097 -1.35242 -0.852963
19.1204 21.6142 23.8614 -0.139063 1.33368 -0.332145
18.7747 20.8505 21.0638 0.879051 -0.709647 -0.749846
18.9497 23.6137 21.6632 -0.284157 -0.119006 0.6813
16.874 22.3411 22.6643 0.515431 0.292933 1.14874
21.7365 19.9984 17.293 -0.358593 1.53101 -0.00790369
23.4943 22.0362 17.9738 -0.105142 -2.10494 -0.845271
22.3124 24.3007 18.7092 -0.406511 0.859846 -0.0667279
21.1437 22.7178 16.9877 -0.494736 -0.573824 -0.458862
23.7488 20.4186 19.9822 -0.149388 -0.32643 -0.201734
21.1847 21.5562 19.6005 -2.00706 -0.591695 -1.19577
23.6034 21.1702 22.5726 0.140408 1.17035 1.10527
23.1351 22.9921 20.5957 0.343683 -0.693765 0.846016
21.1058 24.8227 20.9403 0.755074 0.359862 1.31798
21.1203 22.2799 22.282 -0.586403 1.2631 0.166538
21.5296 20.4532 24.2807 -0.441454 0.801877 1.28919
ITEM: TIMESTEP
10000
ITEM: NUMBER OF ATOMS
34
ITEM: BOX BOUNDS ss ss ss
1.6041964862656410e+01 2.3874194433569059e+01
1.5617676220146993e+01 2.4763840104841847e+01
1.6727851747804671e+01 2.4155675188678320e+01
ITEM: ATOMS x y z vx vy vz
17.3716 19.6058 18.8341 -0.963066 2.08345 -1.2601
18.4787 17.0602 18.5271 0.0537104 1.60441 -0.128088
19.9148 18.9287 19.3799 -0.855752 0.912535 0.949656
19.0638 18.846 16.7475 0.210538 -0.18214 0.419113
17.7224 18.2743 21.2005 0.497745 0.396292 -0.46249
19.5558 18.9468 23.2422 0.446503 0.307166 0.0388179
17.2076 20.0318 23.1648 0.0160056 -2.29076 2.03568
22.4664 17.8986 19.311 -0.331625 -1.14711 -1.06269
20.8241 15.763 19.1417 0.559536 0.143805 0.191341
21.1355 17.3222 17.1903 0.661923 -0.577405 2.01827
23.9602 18.4418 21.7422 -1.02841 0.258797 0.145611
22.5382 16.2692 21.2744 -0.818798 1.11611 -0.652424
22.0733 17.9326 23.2696 -1.92298 -0.313259 0.179894
21.4361 19.8218 21.4355 0.484625 -1.56178 1.10289
19.9464 16.9921 21.301 -0.379851 -1.74673 -0.618429
16.0196 20.4077 20.9318 0.665137 -0.273731 -0.325253
19.2439 21.4 17.9499 0.122296 -0.0088466 1.00065
17.2537 22.5372 19.5717 1.1022 0.811812 -1.30526
19.3413 24.1548 18.6694 -1.54387 -0.554161 -0.534869
19.096 21.7288 23.5988 0.341769 -1.31905 -0.0559192
18.8622 20.8356 21.0339 -0.201271 1.12013 -0.936637
18.9716 23.5734 21.2753 0.614892 1.18369 -0.153508
16.8292 22.5091 22.2428 -0.262392 -2.96728 0.26114
21.696 20.0954 17.7503 -0.42171 0.469398 -0.163264
23.4623 22.3436 18.3241 0.0817694 -0.341476 -0.448946
22.0153 24.5043 18.6807 0.0933413 0.947995 -0.975577
21.2023 22.8098 16.9778 -0.37688 0.120435 0.897915
23.5629 20.3526 19.868 2.29679 0.360528 1.36572
21.1013 22.2507 19.7773 -0.129349 -1.43255 -0.276549
23.7208 20.9963 22.4628 -0.350016 -0.114122 -1.4969
23.409 23.0825 20.7883 0.145201 0.787817 -1.41716
21.1123 24.7276 21.1507 1.28948 -0.247176 -1.15791
21.3462 22.4969 22.5005 -0.648982 0.780784 2.45011
21.4892 20.4889 24.1142 0.551497 1.67244 0.375162
ITEM: TIMESTEP
11000
ITEM: NUMBER OF ATOMS
34
ITEM: BOX BOUNDS ss ss ss
1.6041964862656410e+01 2.3874194433569059e+01
1.5617676220146993e+01 2.4763840104841847e+01
1.6727851747804671e+01 2.4155675188678320e+01
ITEM: ATOMS x y z vx vy vz
17.3171 19.5477 18.6139 -0.560663 -0.691931 0.118928
18.583 16.9007 18.6812 -1.0008 -0.852108 0.521129
20.0958 18.9191 19.3504 -0.910019 -0.271915 0.509184
19.2006 19.2507 16.7599 -0.876555 0.177117 0.443275
17.6824 18.3304 20.9339 0.500272 -1.51283 0.0369164
19.4602 18.975 23.12 0.796206 -0.49701 -0.186723
17.2089 20.1268 23.1658 1.58644 1.09657 -2.4502
22.7766 18.0476 18.9494 0.208476 0.593039 -0.453787
20.9916 16.0703 19.1724 -0.163694 0.226247 0.0405145
20.937 17.532 17.0289 -0.383786 -1.21829 0.094525
23.795 18.6856 22.5882 -0.039188 1.31454 0.641882
22.5284 16.9373 21.1578 0.74 1.33029 -0.815014
21.7747 17.5374 23.5602 -0.613123 -1.1085 -0.479521
21.5249 19.7043 21.4735 0.448565 0.133413 0.919292
19.7656 16.9044 21.298 0.270252 -0.698754 0.542403
16.0082 20.4107 20.7356 -2.34172 0.101507 0.129208
18.8546 21.4301 17.9445 2.16473 0.211769 0.21391
17.0817 22.4676 19.8056 0.0537876 0.781403 1.4848
19.6432 23.9252 18.8739 -0.802487 0.0274174 -0.262503
19.3197 21.6071 23.6067 0.628186 -0.0923312 -0.33166
18.9093 20.9104 20.9187 1.55454 -1.56816 1.38579
18.9772 23.664 21.4832 -1.13236 1.20916 0.899761
16.9775 22.3895 22.4926 0.494175 0.556967 -0.564965
21.6645 20.1434 17.5621 -0.386528 -0.763575 0.35568
23.3671 22.154 18.1409 1.94379 0.26882 1.19474
22.132 24.3732 18.3881 -1.12645 -1.42458 0.67798
20.8871 22.6486 16.9588 1.84182 1.93705 -0.123273
23.53 20.4286 20.0295 -0.541955 0.631165 -1.1037
21.1436 21.94 19.6552 -0.555805 0.482836 -0.0761671
23.6272 21.2041 22.6555 0.271797 -1.63065 -0.211316
23.3359 23.0301 20.6989 0.265325 0.669888 0.305301
21.2477 24.6433 20.915 0.183636 1.32809 -1.40836
21.3671 22.4695 22.5603 -0.4635 -0.551816 -1.67462
21.7147 20.1216 24.1514 -2.05337 -0.194834 -0.373407
ITEM: TIMESTEP
12000
ITEM: NUMBER OF ATOMS
34
ITEM: BOX BOUNDS ss ss ss
1.5883337738841357e+01 2.3858065370497613e+01
1.6428528797636098e+01 2.4325282459797251e+01
1.6650105517748081e+01 2.4413160328453088e+01
ITEM: ATOMS x y z vx vy vz
17.4769 19.5961 19.0085 -0.37217 -0.194729 -0.487997
18.6515 17.2642 18.6423 -2.20986 -0.128128 1.50498
18.716 19.1116 16.6494 -0.335339 -0.967954 0.733855
17.6156 18.0946 21.2124 0.045326 0.334629 0.637169
19.362 18.8762 23.6481 -0.379518 -1.50772 0.249162
16.8599 19.6753 23.2707 -0.769823 -0.767955 1.73144
19.9281 17.6191 21.2374 -0.478338 0.706711 -1.9264
20.5036 19.2647 19.0544 1.04453 -0.130075 -0.59506
22.9231 18.5073 18.2005 0.191365 -1.89954 1.44836
21.2043 16.5426 19.1329 1.50337 -0.231981 -0.72226
20.8787 17.6345 16.7759 -0.162643 1.35279 -0.768488
23.6992 18.979 23.0921 -2.04093 0.966517 0.147036
22.7898 17.784 20.9187 1.63564 0.564138 -0.0980571
21.6603 17.5365 23.3337 -0.841572 0.028618 0.160856
21.3891 19.8878 21.8738 1.17995 -0.407407 -0.353904
21.0904 20.0434 16.3463 0.466656 -0.378201 -0.942792
21.5499 20.3299 24.488 -0.26854 0.165382 -0.88568
15.8375 20.3711 20.957 0.294121 1.15316 -1.26423
19.1106 21.4271 17.8854 1.18772 -0.675017 0.181064
17.2563 22.5178 19.6764 -2.40423 -0.777286 0.7621
19.7114 23.9121 18.9249 2.63252 0.0696011 -1.069
18.9977 21.4563 23.6513 -0.0248565 1.21857 -0.80451
18.7283 20.6513 21.0843 -1.09847 0.818237 -0.338921
19.1674 23.2522 21.4013 0.439638 -0.316168 2.4123
16.7454 22.1798 22.33 0.930682 -1.32558 0.152499
23.0108 21.3193 17.9875 -1.79058 0.338 1.4094
22.6485 23.8673 18.4349 1.20577 0.898121 0.274552
21.0714 22.763 16.9014 -0.232158 -0.377479 -0.810955
23.7877 20.1393 20.5202 0.863768 1.25499 -1.04777
21.1027 21.7262 19.7871 -1.11231 -1.1453 -0.928942
23.5012 21.5065 22.8089 -0.344941 -0.317366 -1.15808
23.6563 22.774 20.5481 -1.25314 0.336467 2.1545
21.5778 24.2679 20.7639 -0.402419 0.918893 -0.637071
21.2207 22.5522 22.8824 2.90077 0.423068 0.880843
ITEM: TIMESTEP
13000
ITEM: NUMBER OF ATOMS
34
ITEM: BOX BOUNDS ss ss ss
1.5883337738841357e+01 2.3858065370497613e+01
1.6428528797636098e+01 2.4325282459797251e+01
1.6650105517748081e+01 2.4413160328453088e+01
ITEM: ATOMS x y z vx vy vz
17.3374 19.633 18.7883 1.07098 0.888361 1.54808
18.7219 17.0033 18.6998 -0.232159 0.238175 -0.591368
18.8796 18.7636 16.8639 -1.35934 -0.585206 -0.813883
17.2848 18.0983 21.0912 1.02173 -0.440293 -0.941857
19.3879 18.9577 23.3715 -0.593234 0.578967 1.63819
16.8846 19.67 23.1206 -0.530788 -0.468024 0.152738
19.9888 17.6071 21.1558 0.185797 -1.95031 -1.66605
20.3062 19.3479 19.0329 -1.85385 0.115795 0.482305
22.7851 18.5436 18.3709 1.29546 -0.863731 -0.333196
21.2417 16.435 19.2538 2.89666 1.13737 0.682235
20.9641 17.422 16.6642 -0.645027 1.04493 1.0698
23.6648 18.9661 22.9798 -0.50943 -0.757988 -0.332184
22.7851 17.4782 20.9486 -0.0348778 1.53469 -0.246228
21.4971 17.6663 23.2773 -2.12382 3.12512 -0.788031
21.5971 20.0355 21.6029 0.89351 -1.18616 0.333603
21.1615 20.1366 16.5165 0.234351 -0.139049 0.701686
21.6135 20.4061 24.1163 -1.43163 -0.20532 -0.56005
16.0072 20.5377 20.9382 -0.818787 2.19595 2.92336
18.9745 21.5027 17.9173 0.35392 0.677407 -1.14126
17.4128 22.5765 19.669 0.144655 -0.330027 0.47082
19.6449 24.1133 18.913 -0.692729 -2.17063 0.303549
19.0523 21.5311 23.6646 -0.785344 -0.937639 -0.166213
18.759 20.3277 21.1124 -0.200847 -0.898818 -0.608653
19.1065 23.1937 21.5404 -1.25228 0.337755 0.616316
16.7924 22.2265 22.4042 0.40075 -0.234334 -0.321512
22.9574 21.134 18.175 1.42089 0.270717 -0.547305
22.5392 23.9148 18.6126 0.881844 0.582304 -0.0269947
21.056 22.7708 17.0258 0.849568 0.0801765 0.1522
23.9883 20.0254 20.4162 -0.155328 1.48224 -0.207159
20.8498 22.0147 19.9414 -0.348349 -1.13726 0.904501
23.8431 21.4713 22.9862 1.79768 -0.142439 1.29832
23.49 22.6994 20.71 -1.25197 -0.734099 -1.39109
21.3687 24.5778 20.9325 1.25029 -0.436273 -1.45192
21.4866 22.6421 22.6169 0.121709 -0.672355 -1.14275
ITEM: TIMESTEP
14000
ITEM: NUMBER OF ATOMS
34
ITEM: BOX BOUNDS ss ss ss
1.5883337738841357e+01 2.3858065370497613e+01
1.6428528797636098e+01 2.4325282459797251e+01
1.6650105517748081e+01 2.4413160328453088e+01
ITEM: ATOMS x y z vx vy vz
17.2892 19.5796 18.8297 0.895334 -1.47568 0.129038
18.7739 16.8809 18.594 1.13891 -0.471265 0.861024
18.7073 18.9206 16.6283 -0.650881 0.71994 -0.539163
17.6339 18.1489 20.8953 -1.12125 1.09971 0.625512
19.1539 18.8424 23.0644 -1.49869 -0.549917 -1.33262
16.8099 20.1182 23.2535 0.525513 -0.318546 -0.757757
20.0533 17.1428 21.3097 -1.32616 0.417949 1.05256
19.9345 19.0455 19.2269 -1.77972 0.274689 0.76637
22.6807 18.884 18.6971 -0.324419 0.00742112 -0.360132
21.2463 16.2438 19.2289 0.432241 0.361011 0.709973
20.7744 17.5074 16.9172 -2.19584 -0.789188 -2.45229
23.8752 18.8994 22.9251 -1.45817 0.502416 0.456448
22.9127 17.395 20.9186 1.79665 0.640378 0.906087
21.7018 17.6751 23.3856 -0.792061 1.8506 -0.46049
21.6156 19.6411 21.3787 0.6317 3.16383 0.756519
21.0781 20.118 17.0382 0.346786 -1.08872 0.988592
21.6913 20.3865 24.1078 -0.0362175 -1.86255 0.86055
15.8928 20.4866 20.8277 1.53295 -1.05156 -2.18022
18.8259 21.4511 17.6694 0.544525 1.18419 1.61915
17.4219 22.4576 19.675 0.970113 0.421749 -1.2573
19.571 23.8702 18.8777 -1.22989 -0.536204 1.71126
19.1632 21.4632 23.8881 0.625282 -0.938388 -0.942989
18.7774 20.7366 21.2422 0.198238 0.778892 0.127731
18.9524 23.4026 21.5637 0.282304 -1.83675 2.33182
16.8172 22.4791 22.3353 -1.43462 0.142759 0.529691
23.2934 21.5041 18.2899 1.32344 0.885633 -0.329161
22.4218 24.2392 18.6273 0.0370227 -0.314194 0.1838
21.1666 22.7417 17.0771 -1.38429 -0.476683 -0.475473
24.0789 20.1599 20.5189 1.5407 -0.925889 -0.873179
21.1233 21.875 19.7456 1.91559 -0.447336 0.123441
23.6249 21.3404 22.9078 0.444295 -0.989997 -0.736019
23.6236 22.8835 20.5908 -1.08147 0.740415 -0.69022
21.4095 24.5401 20.7832 1.00226 -0.546104 -0.557686
21.3342 22.37 22.4113 0.129814 1.42737 -0.794864
ITEM: TIMESTEP
15000
ITEM: NUMBER OF ATOMS
34
ITEM: BOX BOUNDS ss ss ss
1.5883337738841357e+01 2.3858065370497613e+01
1.6428528797636098e+01 2.4325282459797251e+01
1.6650105517748081e+01 2.4413160328453088e+01
ITEM: ATOMS x y z vx vy vz
17.3639 19.5991 18.8942 1.42703 0.156032 -1.37016
18.6172 16.9976 18.9161 -0.505198 1.61674 0.467085