ITEM: TIMESTEP
0
ITEM: NUMBER OF ATOMS
34
ITEM: BOX BOUNDS ss ss ss
1.5921164591277527e+01 2.4706455846139413e+01
1.6914132987257648e+01 2.4535419717724000e+01
1.6604100154893935e+01 2.4580496887721988e+01
ITEM: ATOMS x y z vx vy vz
18.4632 16.9534 19.7832 1.44369 0.272942 1.12079
18.628 19.6693 19.7768 -0.0992167 1.59627 -1.73094
19.7025 20.0975 16.6082 1.12294 0.931526 0.309204
17.9874 18.1765 17.3398 0.911661 -0.294372 0.680195
15.9252 20.6568 20.3255 2.38668 -0.699069 0.669074
16.1555 18.2924 19.2135 -0.732325 1.96939 -2.55314
20.578 17.8286 17.9627 -1.75523 1.32501 0.3797
23.2019 18.4764 19.064 0.0891231 0.635784 -0.0122387
22.4156 19.3909 16.6461 -1.63929 -0.813482 -2.58038
21.2032 20.3719 18.933 -0.1614 0.131526 1.66338
17.4367 22.8229 19.8876 0.46001 0.274319 -1.17119
19.619 24.5313 19.7773 -0.0290225 -0.387622 1.15168
19.371 22.4003 18.0201 -0.132083 -0.766291 0.439794
17.1334 20.7397 17.856 1.22915 -0.782337 0.390097
23.7523 21.1451 18.4747 0.970564 -0.806041 0.957395
21.7591 21.9574 16.6812 -0.0922471 0.216009 1.15231
21.8621 23.1787 19.0948 -3.19969 -2.08138 -0.568645
19.1269 16.9182 22.4071 1.93452 0.403453 0.55296
19.5518 19.5813 22.6345 1.15421 -0.391499 -0.201353
17.1014 18.5914 21.7545 -2.18318 -0.690054 -0.321712
23.5727 17.7053 21.612 1.28672 0.272523 -0.271638
22.0766 20.2715 21.6586 2.20762 -0.857136 -0.555479
24.7024 19.9962 20.8167 0.603606 0.0916028 -0.710238
21.5217 20.1682 24.5764 -0.850003 1.09944 -1.22178
23.9214 19.6172 23.4798 1.4357 -0.103096 0.623566
20.9204 17.9356 20.6543 -1.82741 0.322853 -0.368763
21.574 17.8211 23.3477 -0.969524 0.366732 0.425992
20.099 22.2059 23.5519 -1.31867 1.23715 0.887392
19.9038 21.9354 20.8143 -1.529 -0.536471 0.43896
18.6046 23.9757 22.1611 0.98547 0.362484 -1.11334
17.5884 21.4256 22.2907 1.25196 0.350779 1.25196
22.8597 22.2088 23.4793 -0.533952 0.0413967 -0.465163
21.4458 23.9189 21.8106 -0.514195 -1.41925 -0.267192
23.6652 22.4646 20.936 -1.90716 -1.27309 1.01873
ITEM: TIMESTEP
1000
ITEM: NUMBER OF ATOMS
34
ITEM: BOX BOUNDS ss ss ss
1.5921164591277527e+01 2.4706455846139413e+01
1.6914132987257648e+01 2.4535419717724000e+01
1.6604100154893935e+01 2.4580496887721988e+01
ITEM: ATOMS x y z vx vy vz
18.4462 16.8623 19.9529 0.0987445 1.51117 1.04924
18.6321 19.8127 19.8479 1.37442 -0.0657483 0.469765
19.8821 19.9222 16.5828 0.208172 -1.003 0.198082
18.1063 18.2343 17.4079 0.134853 -0.747706 -1.37058
15.9799 20.6762 20.4117 0.244735 -0.751704 0.420819
16.3159 18.3875 19.1762 -0.253495 1.06946 -0.158267
20.7021 17.8823 18.0866 -0.741318 -0.887535 -0.208958
23.1945 18.6154 19.208 -0.421662 0.545449 1.38056
22.3508 19.5051 16.6157 -0.362713 -0.266499 0.429705
21.344 20.4652 18.9543 -0.0424864 0.430866 0.00267588
17.445 22.7758 19.8312 0.372809 -0.354319 0.520533
19.7375 24.5401 19.7588 1.18442 -0.349912 1.33929
19.3986 22.5052 17.9218 0.231153 0.59338 -0.910288
17.2286 20.7034 17.7673 -0.262766 -0.46954 -1.2326
23.7499 21.0846 18.3029 1.00652 -0.174719 -0.412527
21.6562 22.0687 16.7166 0.0797972 0.388497 -0.243817
21.9912 23.5024 18.8979 -1.00335 -0.221392 0.182652
19.1218 16.806 22.4208 -0.0618806 -1.30424 0.247482
19.4561 19.358 23.1008 0.698213 0.0636911 0.522314
17.1705 18.6093 21.6796 1.57682 0.926659 -1.58658
23.5422 17.5836 21.5078 0.557152 0.742046 -0.470677
21.7485 20.0666 21.7136 -1.00017 -0.204597 -0.320354
24.5459 20.0955 20.9487 -1.57631 -0.10325 0.496586
21.4848 20.0293 24.6834 -0.300811 1.20688 -0.115659
23.8327 19.7188 23.3266 -0.973833 -1.12859 -0.41389
20.8289 17.8427 20.6941 -0.506649 0.0166779 -0.178718
21.585 17.7196 23.3073 1.15018 0.900668 -0.485042
20.3858 22.0648 23.4143 1.28641 -0.643161 -0.848987
19.8333 22.0722 20.761 -0.598677 0.436829 0.015415
18.674 23.9507 22.1628 -1.22213 0.255912 0.595496
17.6356 21.5488 22.3645 -0.386302 0.702645 1.2871
22.9326 22.1506 23.3216 0.628634 -0.680347 0.288021
21.3146 24.0398 21.7864 -0.524946 -0.440799 -0.791752
23.1766 22.2301 20.796 -0.59356 0.00622803 0.30295
ITEM: TIMESTEP
2000
ITEM: NUMBER OF ATOMS
34
ITEM: BOX BOUNDS ss ss ss
1.5921164591277527e+01 2.4706455846139413e+01
1.6914132987257648e+01 2.4535419717724000e+01
1.6604100154893935e+01 2.4580496887721988e+01
ITEM: ATOMS x y z vx vy vz
18.3799 17.0127 19.8546 0.621541 -1.18583 -0.0365798
18.6736 19.6829 19.9414 0.470084 -0.618424 -2.41981
19.6892 20.1487 16.6272 -1.24238 -1.32607 -1.67633
18.0937 18.0521 17.4571 -0.296111 0.455843 -0.0904317
16.0486 20.7679 20.52 0.921392 0.939709 0.508051
16.1241 18.6327 19.1399 -1.42418 0.628051 -0.876017
20.5789 17.977 17.9448 0.392363 -0.670683 0.0907473
23.3138 18.5058 19.0184 0.16296 -0.411398 -0.0255843
22.4564 19.4224 16.6877 -0.564037 0.786565 3.0311
21.2242 20.4546 18.9118 0.610324 -0.152123 0.434547
17.5763 22.76 19.7339 -0.49843 0.289835 -0.314287
19.5114 24.4209 19.7302 -0.825334 -1.07625 -0.41726
19.3611 22.5422 17.8564 0.213278 0.839484 -0.850357
17.3225 20.7416 17.8717 -0.175681 -0.445043 1.22794
23.8247 21.1861 18.3812 -0.596896 -0.72875 0.107341
21.829 21.9194 16.6481 0.31329 1.37144 -0.910987
21.7402 23.089 19.067 1.76177 -1.71347 2.29217
19.1517 16.9858 22.5393 0.0289936 0.735811 0.205932
19.6034 19.4488 22.6587 1.51232 -0.300476 0.635176
17.0214 18.5979 21.7773 0.12643 -0.248768 0.402624
23.6186 17.7656 21.7342 -0.273256 -0.870844 -1.66259
22.1265 20.0689 21.6419 0.582698 1.20416 0.629358
24.642 19.8905 20.5996 -0.454516 -0.78806 -0.413857
21.3854 19.9457 24.5533 -0.239928 -1.32129 0.242585
23.8717 19.9843 23.4457 -0.824836 -0.184641 -1.53204
20.8281 17.8266 20.5641 0.197321 -0.0534923 0.0300707
21.6468 17.6659 23.3092 0.55076 0.160306 1.05115
20.0503 22.1893 23.6752 0.417424 0.177432 1.02793
20.0137 21.8539 20.9666 1.07445 -0.0255295 -0.228738
18.6121 23.9978 22.0961 -0.759121 0.270002 -0.368323
17.7861 21.4092 22.2915 -0.520339 0.928262 -0.329201
22.5754 22.1335 23.4555 -0.634199 0.266603 -0.0984663
21.2815 24.052 21.8156 -1.18215 1.09874 0.265378
23.4676 22.2982 20.9147 0.553996 1.96888 0.0687497
ITEM: TIMESTEP
3000
ITEM: NUMBER OF ATOMS
34
ITEM: BOX BOUNDS ss ss ss
1.5921164591277527e+01 2.4706455846139413e+01
1.6914132987257648e+01 2.4535419717724000e+01
1.6604100154893935e+01 2.4580496887721988e+01
ITEM: ATOMS x y z vx vy vz
18.4542 17.044 19.6166 0.0335357 0.14737 -0.315537
18.6727 19.6142 19.5199 0.817656 -0.254095 1.68131
19.7816 20.0617 16.7099 -0.309175 1.00929 -0.118219
18.0006 18.153 17.1974 1.07573 -1.19342 0.457899
15.9488 20.7437 20.4419 0.794401 0.1566 0.577212
16.0833 18.5592 19.1796 1.50806 0.0850542 -0.033221
20.5431 17.7454 18.0814 -1.94617 0.428104 -0.589175
23.0759 18.6128 19.2334 1.20049 -1.49873 -0.567523
22.3686 19.4982 16.7327 0.117697 -1.04037 -0.179104
21.2237 20.4561 18.9614 1.08822 -0.292094 -0.0557832
17.4508 22.6881 19.9554 0.304924 0.369895 0.527434
19.7329 24.4593 19.731 0.843639 0.0675169 -0.812514
19.2718 22.2772 18.0732 -1.05489 -1.09665 0.500337
17.1287 20.8593 17.8031 0.0602938 0.830907 -1.46128
23.7703 21.3207 18.5523 0.181919 1.47129 -0.854568
21.7191 21.8859 16.6491 1.01974 -0.434116 0.401992
21.8258 23.2835 18.8297 -0.735245 1.40101 -0.111179
19.0968 16.8413 22.3514 -0.731565 -0.659194 0.00748318
19.5418 19.4763 22.6964 -0.31398 -2.14523 0.379954
17.1792 18.744 21.6938 -1.21266 0.480444 -0.590371
23.5302 17.809 21.6667 -0.0377432 0.463209 -0.94274
22.1866 20.1929 21.7526 -0.187541 -0.00720673 1.74355
24.5852 20.0879 20.8562 0.96261 -0.457081 0.667721
21.6435 20.2049 24.6273 0.00515582 0.864996 0.263251
23.9407 19.5596 23.5762 0.625385 -0.428221 -1.4931
20.8514 17.8025 20.7733 -2.24243 0.222379 -1.51969
21.6151 17.9082 23.406 1.38085 -0.740208 2.44096
20.0967 22.0907 23.4449 -0.284904 0.825206 1.21235
19.857 21.759 20.8767 -0.634597 -0.293685 0.469051
18.6578 23.8629 22.1464 -0.121692 1.59817 -0.650293
17.5654 21.3568 22.3853 0.678185 -0.164008 -0.433456
23.0487 22.1486 23.3758 -0.272578 -0.611489 -0.0644126
21.4084 23.7657 21.764 -1.44302 0.158937 0.606211
23.5736 22.5572 20.7691 -1.1703 0.735436 -1.14455
ITEM: TIMESTEP
4000
ITEM: NUMBER OF ATOMS
34
ITEM: BOX BOUNDS ss ss ss
1.5921164591277527e+01 2.4706455846139413e+01
1.6914132987257648e+01 2.4535419717724000e+01
1.6604100154893935e+01 2.4580496887721988e+01
ITEM: ATOMS x y z vx vy vz
18.3281 16.9978 19.7768 -0.100322 -0.123815 -0.519958
19.0031 19.6592 20.0575 1.22 2.02868 0.208863
19.902 20.0469 16.7959 1.07353 -0.107314 -1.01645
18.0746 18.2204 17.4181 -1.34682 -0.583957 0.419064
16.087 20.6663 20.4288 -0.516153 -0.387857 0.821977
16.1486 18.5031 19.1074 -0.80599 -0.485283 -0.661185
20.5601 18.0239 18.0906 0.307432 -1.39096 -0.670355
23.2231 18.3879 19.1193 -0.0868259 2.20336 1.20674
22.4434 19.4473 16.6712 0.349352 0.391053 -0.411316
21.5302 20.5216 19.0416 -0.972623 -0.108351 0.151497
17.4106 22.8433 19.8103 0.0271667 -0.0570463 0.467764
19.5886 24.6786 19.7554 -0.396121 0.0661868 0.145038
19.2716 22.559 18.0182 -0.508605 0.25998 -0.610312
17.4333 20.7576 18.0671 -0.638636 -0.508031 0.616846
23.8278 21.1281 18.3944 1.5004 -1.09116 -0.129309
21.6916 22.0585 16.6803 0.907703 -0.443878 -1.19886
21.7795 23.3773 18.9232 -0.833078 -2.29602 -0.160815
19.0277 16.72 22.2272 -1.31448 -0.442167 0.400661
19.4398 19.462 22.9804 1.03257 0.064309 0.366395
17.2617 18.3247 21.747 -0.627857 -0.301294 -1.06447
23.4878 17.6295 21.5638 -1.04512 0.676896 -1.04612
21.807 20.0947 21.7377 1.23407 0.883433 -1.54177
24.4116 20.0037 20.8155 0.375921 -0.574667 0.827852
21.5969 20.0973 24.5793 0.41218 -0.268231 0.844576
23.7934 19.5325 23.3563 0.36705 0.895646 0.327163
21.0254 17.7349 20.7592 1.52445 0.115508 0.930779
21.4902 17.7441 23.4084 -0.504557 -2.20153 -1.15389
20.295 22.0788 23.462 0.486121 1.34633 -0.912331
19.8542 22.0588 20.6331 -0.644313 0.757805 -0.0630106
18.5491 23.9974 22.1176 0.348022 -0.0667747 1.16894
17.7715 21.4849 22.232 -1.08702 0.532884 0.471237
22.8525 22.2259 23.2444 -0.0877252 -0.423033 1.17848
21.3459 24.0383 21.6182 1.27322 0.652413 -0.19191
23.1171 22.3257 20.7917 -0.922947 0.98688 0.798194
ITEM: TIMESTEP
5000
ITEM: NUMBER OF ATOMS
34
ITEM: BOX BOUNDS ss ss ss
1.5921164591277527e+01 2.4706455846139413e+01
1.6914132987257648e+01 2.4535419717724000e+01
1.6604100154893935e+01 2.4580496887721988e+01
ITEM: ATOMS x y z vx vy vz
18.6232 17.0016 19.8013 -0.911282 -0.695052 0.241783
18.6901 19.7088 19.7355 -0.353158 -0.0756637 -0.328914
19.6144 20.2169 16.7583 1.71034 0.278902 -0.89052
18.1039 18.1306 17.3002 0.427595 0.551773 -0.163786
15.8695 20.8258 20.4192 -0.186286 -0.729021 -1.11026
16.2524 18.4524 19.109 0.378045 0.18781 0.416119
20.6463 17.9294 17.9814 1.62417 0.817163 -0.0872253
23.2171 18.4519 19.0546 -0.781197 -0.985529 -0.0102144
22.4381 19.2619 16.7494 -1.01509 0.0899076 1.67133
21.2711 20.3679 19.053 0.543776 -2.64664 -0.0785884
17.4999 22.7264 19.8715 -0.801545 -0.405885 0.582331
19.5051 24.5187 19.8208 -0.703236 0.930426 -0.231382
19.3975 22.4789 18.1149 0.358319 0.076709 -0.0104284
17.0723 20.7445 17.8741 -0.0321223 -0.0270647 1.54747
23.7886 21.2438 18.4857 -0.936689 -0.571879 0.26656
21.7619 21.6187 16.7872 0.870458 1.76055 -0.760187
21.7856 23.3287 19.0797 0.425291 0.127212 0.278212
19.0529 17.0045 22.4033 -0.285939 0.021335 0.163631
19.5538 19.4918 22.5449 -1.14808 0.129775 -0.117743
17.1738 18.7473 21.5991 0.993619 -1.15029 0.183951
23.589 17.6803 21.5846 0.816367 0.751232 0.186938
22.104 20.1114 21.7175 0.00949483 0.0976015 -0.143778
24.6182 19.9055 20.6202 -0.222165 -0.361445 -1.06852
21.3908 20.1132 24.4865 0.0391324 -1.2758 1.12301
24.0061 19.8035 23.3417 1.08022 0.51109 0.158907
21.0026 17.8544 20.6808 -0.836453 -0.596756 -1.00683
21.7319 17.9081 23.2545 -1.63333 0.584893 -0.747137
20.1073 22.142 23.6713 -1.35666 -1.31615 -0.423334
19.9769 21.8233 20.9482 -2.05047 1.08937 0.732928
18.775 23.8964 22.1689 0.629685 -2.08025 -0.797578
17.6066 21.482 22.2345 1.47064 2.71032 1.77856
22.7142 22.122 23.4147 0.532547 2.55397 0.483121
21.3513 24.0333 21.8229 1.22638 -0.169013 -0.744322
23.1387 22.3042 20.9407 0.117618 -0.183611 -1.09411
ITEM: TIMESTEP
6000
ITEM: NUMBER OF ATOMS
34
ITEM: BOX BOUNDS ss ss ss
1.5921164591277527e+01 2.4706455846139413e+01
1.6914132987257648e+01 2.4535419717724000e+01
1.6604100154893935e+01 2.4580496887721988e+01
ITEM: ATOMS x y z vx vy vz
18.3534 17.0983 19.773 1.19699 -0.403422 1.08302
18.5267 19.7716 19.6104 -0.470655 -0.0714668 0.630426
19.7553 20.1289 16.8058 -0.297457 0.890222 -0.229599
17.9669 18.1999 17.4329 -1.10856 -1.0602 0.355572
15.9072 20.6296 20.2619 -0.48115 -0.981653 -0.868385
16.0528 18.1893 19.0622 -0.436873 0.789624 0.503457
20.5126 17.7965 18.0571 -0.100903 3.19316 1.3098
23.1309 18.4333 19.1083 0.900529 -1.3925 1.30588
22.3267 19.3589 16.7143 0.548701 0.0591907 -0.642823
21.1851 20.2993 19.0932 -0.0619282 -1.77536 1.15671
17.4085 22.8073 19.8137 0.537864 2.11347 1.25962
19.6775 24.3674 19.8329 -0.0734675 -0.483729 -1.82879
19.2466 22.3646 18.0492 0.15127 -1.42777 1.39282
17.2518 20.822 17.6464 0.268978 -0.11603 -0.466197
23.6501 21.0558 18.3856 0.105406 0.721914 0.218264
21.7342 21.9054 16.9428 0.655607 -0.322704 -1.92666
21.9271 23.1205 19.2846 -1.46841 0.0503112 1.30734
19.1214 17.0243 22.3695 -0.469649 0.655367 -1.2319
19.5921 19.6105 22.5481 0.472342 1.27441 -1.24836
16.9777 18.7219 21.6469 -0.474737 -0.411886 -1.21027
23.7507 17.8985 21.841 -0.160294 -0.918649 -0.950291
22.1276 20.1477 21.6778 -0.192805 -0.169558 0.180317
24.7587 20.0554 20.6347 1.13391 0.834354 -1.45643
21.6145 19.9733 24.3669 -0.452314 0.107073 -0.795869
24.2032 20.1622 23.3015 -0.502906 -0.352603 0.763054
20.8451 17.971 20.5836 -0.984828 -0.236764 -0.278292
21.6371 17.7385 23.2957 0.059032 -0.863684 0.235825
20.1541 22.0854 23.5964 -1.84641 -0.812497 0.35483
19.8958 21.8842 20.8532 1.39919 -1.74549 2.01954
18.738 23.8722 22.2067 -0.814787 0.846359 0.0418472
17.5646 21.4636 22.1732 0.176822 -0.600846 -0.293896
22.8347 22.2514 23.4631 1.45019 2.22399 -1.12627
21.3495 23.867 21.9073 0.341348 -0.0681067 0.728533
23.6519 22.3544 21.0902 0.999953 0.455465 -0.292802
ITEM: TIMESTEP
7000
ITEM: NUMBER OF ATOMS
34
ITEM: BOX BOUNDS ss ss ss
1.5921164591277527e+01 2.4706455846139413e+01
1.6914132987257648e+01 2.4535419717724000e+01
1.6604100154893935e+01 2.4580496887721988e+01
ITEM: ATOMS x y z vx vy vz
18.6315 16.8707 19.7589 0.0290662 0.271604 -1.50316
18.7178 19.708 19.9629 0.151156 0.4438 -0.767501
19.8546 20.0537 16.5563 -1.50639 -1.44031 1.86377
18.0638 18.2048 17.3674 -0.962752 0.0538449 0.740335
16.1169 20.6024 20.3321 -0.655642 -0.499729 -1.1589
16.3993 18.2237 19.245 0.111446 -0.207614 -0.0902548
20.5815 17.9985 18.1003 0.00215641 -0.728268 0.578315
23.238 18.5725 19.0032 0.12765 1.37182 -0.768176
22.429 19.3889 16.6122 1.73001 1.00075 1.46095
21.2181 20.5002 18.9639 0.470014 0.00966547 0.342687
17.4147 23.0293 19.9051 1.19745 0.446889 -1.80114
19.7817 24.5614 19.856 -0.895716 0.122826 1.308
19.166 22.176 18.0056 0.431713 -0.988363 0.991328
17.1954 20.794 18.0793 0.656872 -0.115359 1.08688
23.7267 21.2558 18.394 -0.274974 -0.257293 -1.23832
21.8032 21.9548 16.7008 -0.120799 0.27201 -1.64685
21.8406 23.3284 18.9644 0.396478 0.855386 -0.10609
19.1315 16.9219 22.3769 -0.391401 -0.450255 -0.755458
19.3818 19.431 22.9176 1.62908 2.01621 1.00148
17.1198 18.5395 21.7949 0.300358 1.46749 -0.390166
23.4445 17.5793 21.4207 -0.359595 -0.511389 0.448058
21.7221 20.1669 21.6903 -0.913151 0.936952 -0.178513
24.3548 20.0674 20.9602 -0.0923706 0.351241 0.401715
21.3467 20.2358 24.5429 -0.992044 -0.944668 -1.83312
23.6545 19.3471 23.3689 0.195463 -0.058436 1.45337
20.9946 17.7488 20.7552 -0.633773 -1.35982 0.243458
21.5275 17.8123 23.5087 -0.723803 -0.602761 1.49878
20.2155 22.2029 23.3824 1.72646 -2.28361 -1.15402
20.0488 22.0484 20.7195 0.0950678 0.579557 0.143039
18.6132 23.9015 22.1455 -1.09084 -0.277211 1.23131
17.7485 21.4377 22.1567 1.04961 -0.33498 0.725856
22.9494 22.1254 23.2392 -0.693424 0.782906 -1.90136
21.4627 24.1112 21.8054 0.671498 -0.253063 0.66474
23.5356 22.5299 20.8374 -0.664869 0.330175 -0.891043
ITEM: TIMESTEP
8000
ITEM: NUMBER OF ATOMS
34
ITEM: BOX BOUNDS ss ss ss
1.5921164591277527e+01 2.4706455846139413e+01
1.6914132987257648e+01 2.4535419717724000e+01
1.6604100154893935e+01 2.4580496887721988e+01
ITEM: ATOMS x y z vx vy vz
18.5471 16.9306 19.8684 -0.318876 -0.0460914 0.95194
18.628 19.6247 19.7988 -1.09869 -0.92738 -0.784685
19.7191 20.1658 16.6723 -3.10283 -0.559858 1.61591
17.9609 18.3466 17.3973 0.252011 -0.999839 -0.613501
15.9871 20.729 20.1746 0.543835 -0.089076 -0.487877
16.3326 18.2237 19.3776 -0.230367 -0.770036 -0.0235852
20.5416 17.7727 17.8029 0.806096 -0.628278 -0.275723
23.1847 18.3672 19.0364 0.9581 -0.281979 -0.329296
22.3581 19.3273 16.6518 -0.796529 3.50748 1.1923
21.1308 20.2119 18.8557 0.885943 -0.851814 -0.439926
17.5899 22.7618 19.8816 0.187529 -1.57297 0.150499
19.7018 24.3319 19.8712 1.60316 -0.582587 -1.34585
19.3154 22.5046 18.0295 0.192385 0.102828 -0.845178
17.1287 20.8571 17.8895 -0.251527 -0.402294 0.992291
23.6284 21.1759 18.5369 1.08773 -0.903355 -0.300635
21.7719 21.894 16.8441 0.476599 -0.186387 0.166209
21.9415 23.1291 19.2651 1.07097 -0.278398 1.21902
19.2439 16.9887 22.2723 1.15203 0.867396 -2.15871
19.5917 19.6999 22.4857 0.274446 2.427 -1.12947
17.227 18.6585 21.7888 0.180974 0.247547 0.904398
23.5217 17.7582 21.713 -0.629735 0.40059 0.383173
22.0751 20.2268 21.5038 -2.12705 1.19066 0.877866
24.6134 19.9529 20.5716 1.17899 -0.532133 -0.650695
21.4333 20.3187 24.6307 -0.406574 0.134406 0.830205
23.8184 19.6797 23.4542 -1.78704 0.731416 -0.237761
20.975 17.9058 20.5923 -1.13427 0.753208 -1.74537
21.6048 17.9008 23.281 0.494088 0.265518 -1.1403
19.8181 22.3063 23.5251 -0.117493 -0.083583 -0.529523
20.0337 21.8674 20.9181 -0.315284 -1.20517 2.60607
18.5361 23.8907 22.0994 0.349994 0.570066 -0.167392
17.524 21.357 22.2658 0.804781 0.218355 0.510389
22.6248 22.2079 23.4008 -0.185582 0.109085 -0.385386
21.5382 23.9647 21.9481 0.418644 0.379209 1.0942
23.7829 22.3923 21.0253 -0.416462 -1.00354 0.0964024
ITEM: TIMESTEP
9000
ITEM: NUMBER OF ATOMS
34
ITEM: BOX BOUNDS ss ss ss
1.5921164591277527e+01 2.4706455846139413e+01
1.6914132987257648e+01 2.4535419717724000e+01
1.6604100154893935e+01 2.4580496887721988e+01
ITEM: ATOMS x y z vx vy vz
18.4683 17.0154 19.6882 1.13509 0.524962 -0.0308181
18.6712 19.7812 19.804 -0.11274 -1.34846 0.324007
19.6962 20.1976 16.5895 -0.633524 0.140319 0.699981
17.9422 18.2019 17.3866 -0.0134212 -1.84876 0.83462
15.8779 20.8126 20.1395 1.11353 0.723456 0.907891
16.1815 18.4303 19.2159 0.449982 0.770209 -1.41506
20.5589 17.9009 17.8666 0.342974 2.21181 0.537997
23.2103 18.538 19.0791 -0.126162 -0.191695 1.28434
22.4282 19.3192 16.6945 -2.20538 -0.0996487 0.0479609
21.2247 20.3466 18.9425 -0.249771 0.800935 1.36226
17.4599 22.7298 19.8662 0.417796 -1.16613 0.794079
19.5202 24.3962 20.088 0.35507 1.18321 -0.386988
19.3637 22.444 18.0826 -0.951557 -1.98191 -0.650421
17.2979 20.8662 17.7929 -1.33395 -1.22947 -0.00109387
23.7598 21.0702 18.5504 1.49658 1.18041 0.577432
21.8922 21.66 16.7653 0.759093 -0.670199 0.326822
21.6599 23.1444 18.8579 1.25708 1.08467 -0.966183
19.1387 17.0043 22.375 -0.93691 1.656 -1.36087
19.3368 19.5259 22.7951 -0.471035 -0.126407 1.18456
17.0545 18.6793 21.6926 0.242572 -0.130971 -0.228706
23.6078 17.8947 21.7921 -0.579089 1.60259 -1.74079
22.0687 20.1386 21.6515 0.628594 -1.73172 0.919282
24.6696 20.1571 20.9861 -0.562408 -0.221492 0.311039
21.678 20.1211 24.4428 -0.492853 -0.545559 -0.490987
24.034 19.578 23.5921 0.150289 -0.924142 0.891337
20.8816 17.8167 20.6938 -0.341617 0.426937 -1.69382
21.5398 17.8625 23.3933 0.673924 1.1377 -0.713891
20.2021 21.9661 23.4376 -1.54578 -0.0315701 -0.205136
20.085 21.9196 20.8452 0.674165 -1.46086 -0.39734
18.5389 23.7853 22.4513 -0.39736 0.357284 0.671543
17.577 21.3636 22.2088 -0.309727 -0.148119 -0.803007
22.8288 22.2744 23.2473 1.64693 -0.217292 -0.0824052
21.471 23.8984 21.8058 -0.0168071 1.61091 -0.178042
23.5048 22.5899 20.6099 -0.0635671 -1.337 -0.329574
ITEM: TIMESTEP
10000
ITEM: NUMBER OF ATOMS
34
ITEM: BOX BOUNDS ss ss ss
1.5921164591277527e+01 2.4706455846139413e+01
1.6914132987257648e+01 2.4535419717724000e+01
1.6604100154893935e+01 2.4580496887721988e+01
ITEM: ATOMS x y z vx vy vz
18.4833 16.986 19.7425 -2.23944 -0.616353 -1.34255
18.9033 19.5847 20.0968 -0.0314882 1.76831 0.897397
19.9381 20.18 16.7503 0.168832 -0.245101 -0.512587
18.0558 18.3188 17.4865 -0.635472 -0.274364 -0.41842
16.1617 20.6427 20.3797 -0.0163532 -0.899864 -0.0268402
16.1497 18.5551 19.0071 -0.264709 -0.139237 -0.94489
20.5313 17.7812 18.0603 -1.9378 -0.53535 0.298624
23.1764 18.3633 18.9922 0.378876 0.595127 -0.117421
22.3846 19.3421 16.6543 -0.615473 -0.399562 -1.89801
21.3608 20.4121 19.1043 1.4456 0.986096 2.39618
17.3618 22.7825 19.9324 0.227869 -0.230771 -0.896631
19.7286 24.4322 19.8476 0.244357 -0.766338 1.07344
19.4205 22.4916 18.0326 -0.0769595 0.438359 -0.344423
17.4616 20.8348 17.9285 1.49801 0.214829 0.206673
23.7708 20.9279 18.3076 0.28979 0.666913 0.811809
21.8906 21.8979 16.7826 -0.935762 -1.49448 1.45874
21.8083 23.3685 18.8944 0.26641 -0.300748 0.0951503
19.2054 16.8398 22.2018 -1.1152 0.443107 -0.134065
19.4837 19.3204 22.9541 -0.875235 -0.202018 1.70377
16.9785 18.6317 21.7533 0.585376 -0.763508 -0.60947
23.5629 17.6183 21.3782 0.718227 1.61549 -1.36612
21.6323 20.3 21.8765 1.53692 -0.675642 -0.26365
24.4928 20.0203 20.7077 0.897553 -0.114319 -0.716427
21.4279 20.2163 24.5688 2.15036 1.87098 0.117645
23.7922 19.8612 23.2427 0.456602 0.175894 0.775354
20.9901 17.8007 20.6818 1.66503 0.713308 -0.244442
21.6909 17.81 23.2897 0.243401 -0.488594 0.960943
20.0552 22.155 23.5011 -0.0256765 0.47778 -1.49662
19.9576 22.0336 20.7085 0.15075 -0.582903 0.674578
18.4089 23.9644 22.1494 -0.137741 0.410318 -0.354132
17.6854 21.368 22.2252 -0.988472 1.52902 0.0106901
22.8109 22.3568 23.4681 -0.654991 -1.6171 1.09266
21.3786 23.9626 21.9569 -1.82256 -0.741758 -0.374177
23.2897 22.2695 20.7666 -0.550621 -0.817523 -0.512789
ITEM: TIMESTEP
11000
ITEM: NUMBER OF ATOMS
34
ITEM: BOX BOUNDS ss ss ss
1.5921164591277527e+01 2.4706455846139413e+01
1.6914132987257648e+01 2.4535419717724000e+01
1.6604100154893935e+01 2.4580496887721988e+01
ITEM: ATOMS x y z vx vy vz
18.3743 16.9866 19.894 0.792143 -1.60118 -1.23221
18.7624 19.5993 19.9382 0.679367 -0.379637 0.314629
19.73 20.1733 16.6298 -0.602262 -0.413274 1.07942
18.0367 18.0778 17.4599 -0.728718 -0.0311595 0.0850761
16.0902 20.7365 20.4799 -0.888495 0.129595 -0.223725
16.0988 18.5229 18.975 0.214343 0.662898 0.611715
20.4947 17.9457 17.7561 -0.589376 -0.302458 0.907843
23.3137 18.6575 19.1282 0.523514 0.140132 0.352717
22.4033 19.3327 16.8073 -1.282 -0.0788466 -0.0677506
21.1453 20.3244 18.9842 -0.255209 -0.489048 0.399768
17.4346 22.7996 19.855 -0.691616 -0.892411 -0.741435
19.4919 24.3044 19.7438 -0.262655 -2.10835 0.808682
19.3313 22.3077 17.9605 0.451338 1.10335 0.416129
17.1973 20.7412 17.9693 1.74373 1.35796 0.873245
23.7527 21.2971 18.5259 0.770179 0.163568 -0.382321
21.918 21.9178 16.8271 1.22276 -0.551417 -0.497744
21.7526 23.2411 18.9713 0.0817644 1.44522 1.12915
19.1703 17.243 22.5103 -0.760895 0.843162 -0.417314
19.5476 19.6458 22.6501 0.134908 -0.643843 0.036491
16.9686 18.4237 21.5144 1.19848 1.88086 -1.05039
23.551 17.4856 21.4751 0.066488 -1.47603 -1.98538
22.1101 20.1422 21.5874 -3.29527 0.907677 1.39154
24.6325 20.189 21.0718 -0.224928 -0.650225 -0.530469
21.372 20.0933 24.5961 0.949205 0.543745 0.814387
23.8632 19.4716 23.5122 -0.809594 2.20897 0.480336
21.0025 17.9124 20.504 -0.18419 -2.42557 -0.598402
21.6671 17.9129 23.2247 1.13372 -0.367279 -0.620071
20.2225 22.2069 23.5808 -0.236229 1.11084 -0.185135
19.8449 21.8959 20.8466 0.551287 -0.58407 -1.12432
18.6422 23.988 22.1167 0.853984 -0.988266 -0.886335
17.6996 21.5215 22.4184 0.315053 0.436718 0.714134
22.8576 21.9996 23.389 -0.466928 0.0769549 1.02233
21.4427 23.7588 21.6954 -0.880525 -1.21959 -0.360932
23.5078 22.5741 20.8316 0.476619 2.191 -0.533656
ITEM: TIMESTEP
12000
ITEM: NUMBER OF ATOMS
34
ITEM: BOX BOUNDS ss ss ss
1.5921164591277527e+01 2.4706455846139413e+01
1.6914132987257648e+01 2.4535419717724000e+01
1.6604100154893935e+01 2.4580496887721988e+01
ITEM: ATOMS x y z vx vy vz
18.5437 16.7079 19.5261 1.07539 -0.443989 -1.42928
18.8121 19.4792 20.1983 -0.345879 -0.457647 -0.358325
19.8734 20.1279 16.4974 -0.546487 -0.13527 -1.60465
18.1074 18.1307 17.3253 0.806073 -0.766336 1.01359
16.0064 20.8318 20.291 -0.0869717 1.11096 0.181097
16.3948 18.2912 19.4046 -0.544096 1.03359 -0.15059
20.6399 17.9052 18.0334 -1.4636 2.04453 -0.396588
23.2044 18.58 19.0429 1.4554 -0.711514 0.263748
22.4207 19.4879 16.719 -0.35881 -0.27429 1.86577
21.2559 20.5009 18.9967 -0.654923 0.341427 0.472634
17.4627 22.8281 19.9495 1.01632 0.814902 -0.944476
19.4682 24.3972 19.8965 -0.195322 1.0745 -0.0345953
19.4683 22.4432 17.9803 -0.421995 -1.34127 1.04963
17.5354 20.5549 18.0308 1.63271 -1.06216 1.2281
23.8087 21.405 18.3774 0.248598 0.801158 -1.9087
21.8923 22.0512 16.6455 0.195285 0.68861 1.22408
21.9236 23.1462 19.0513 -0.223494 -1.19317 1.13812
19.0103 17.1239 22.197 0.25408 1.26582 1.19794
19.2605 19.6398 23.177 0.417474 -0.859414 -1.47453
17.1639 18.9092 21.9783 0.64915 -0.839402 0.734306
23.3505 17.7389 21.5564 -0.308963 -0.680361 -0.953972
21.7593 20.0318 21.6173 -0.280576 -0.545623 -0.77744
24.7316 19.9365 20.5858 -0.114665 0.15445 1.44893
21.6128 20.1486 24.5076 -0.277777 -0.182035 -0.360691
23.8752 19.643 23.0542 0.916927 0.772107 0.326101
20.9457 17.4234 20.4786 -1.32989 -1.10448 -0.631805
21.3568 17.8707 23.3217 0.147698 0.0431697 0.924721
20.1004 22.1698 23.4897 -0.00305508 1.62484 1.10242
19.9246 21.989 20.7947 -0.0241561 -0.169867 -1.30991
18.5359 23.9143 22.209 -1.62557 0.141744 -0.454793
17.4535 21.5968 22.3369 1.71623 0.2096 -0.106533
22.7099 22.3383 23.4538 -0.759765 -1.51845 0.170454
21.4524 24.0754 21.7521 -0.882584 0.799306 0.68155
23.3685 22.0119 20.9538 -0.0827666 -0.635433 -2.12632
ITEM: TIMESTEP
13000
ITEM: NUMBER OF ATOMS
34
ITEM: BOX BOUNDS ss ss ss
1.6146050086766127e+01 2.4324389657967828e+01
1.6942500874705040e+01 2.4689452060131799e+01
1.6471951961218952e+01 2.4631767222248708e+01
ITEM: ATOMS x y z vx vy vz
18.4726 16.9424 19.7554 -0.191802 -0.675339 1.02642
19.0538 19.4446 20.448 1.6761 1.25105 0.945898
19.898 20.0417 16.4874 -0.435916 -0.0278694 -0.353661
18.1852 17.9971 17.4018 0.567797 -2.28354 -1.60176
16.2701 18.575 19.1579 -2.37502 0.858267 0.570399
17.839 20.4912 18.3015 1.07723 -1.35865 0.733761
20.7667 18.0548 18.0946 -0.345885 -0.160783 -0.295227
23.1496 18.6522 19.2417 -0.0331518 -0.0997305 -0.166419
22.5771 19.6207 16.7179 -1.09587 0.779404 1.37835
21.2263 20.6668 18.7553 0.539027 -0.0403296 1.0898
17.5116 22.9035 19.9766 -0.218662 -1.22784 -0.982237
19.7891 24.6794 19.82 0.741743 -1.01152 0.461294
19.3173 22.5945 17.7201 1.23356 0.838817 -1.69756
23.756 21.3964 18.0719 -0.92886 0.618798 -0.320299
21.711 22.2752 16.4704 -0.65039 -0.250322 -0.939069
21.7686 23.5175 18.6366 0.603379 -0.152125 0.807701
22.8824 22.1781 20.3789 -0.665791 -1.03929 0.849459
16.1512 20.6358 20.5587 0.188776 0.507771 -1.43478
18.873 17.0511 22.271 -1.01945 1.26748 -1.38276
19.257 19.4661 23.2939 -0.509711 -1.19299 -0.894366
16.9511 18.5579 21.8409 1.31791 -1.01093 0.349819
23.5832 17.6965 21.5586 -0.35076 0.133083 -0.26517
21.4946 19.9757 21.7236 -1.13209 1.14808 1.3545
24.3126 20.0571 21.1917 -1.29363 0.492832 0.887768
21.5754 20.1747 24.6321 -0.196275 0.341221 0.670911
23.7853 19.2179 23.6663 1.60221 -1.64271 -1.26652
21.0438 17.2696 20.6429 0.777321 2.25012 0.339528
21.4441 17.7413 23.2509 0.48547 -0.0430706 0.16244
20.1481 22.1842 23.4548 1.23135 -0.872397 -1.9509
20.0106 22.1767 20.6715 -1.31495 0.838431 -0.85107
18.5338 24.0682 22.1088 -0.314419 1.84152 1.04914
17.8668 21.4088 22.2911 -0.533121 -0.332661 0.872544
22.9273 21.7149 22.9499 1.51479 -0.0776281 0.597708
21.2977 24.0022 21.8871 0.0491159 0.332838 0.254361
ITEM: TIMESTEP
14000
ITEM: NUMBER OF ATOMS
34
ITEM: BOX BOUNDS ss ss ss
1.6146050086766127e+01 2.4324389657967828e+01
1.6942500874705040e+01 2.4689452060131799e+01
1.6471951961218952e+01 2.4631767222248708e+01
ITEM: ATOMS x y z vx vy vz
18.7308 16.6969 19.4731 0.406801 -2.96829 -0.209817
19.0974 19.2331 20.4291 0.0495447 1.05179 0.943475
19.8846 20.1846 16.5591 0.685757 -1.26833 0.766147
18.2147 18.3087 17.4957 -0.861762 1.19069 0.399702
16.5897 18.2965 19.7229 0.566549 0.346938 0.665107
17.8968 20.5675 18.4874 -0.972292 -0.533279 -1.15229
20.7966 18.1024 18.1819 0.652488 -2.2244 0.426849
23.2877 18.7468 19.1184 1.2038 0.718394 -0.94585
22.4996 19.5127 16.7475 1.92513 1.18367 -0.371685
21.2395 20.6962 18.8823 0.986726 -0.768809 -0.500287
17.4576 23.1296 19.9346 -0.207961 -0.818227 0.445644
19.6286 24.7105 19.6243 -0.757522 1.98986 0.643973
19.4326 22.7729 17.7899 -0.657967 0.247121 -1.35355
24.0194 21.3422 18.3824 0.267592 0.98123 -1.31599
21.9489 22.033 16.6894 -1.35966 1.11632 0.390381
21.7676 23.6379 18.6133 1.0278 0.845074 0.173646
22.6514 22.2228 20.5649 0.668344 -1.99331 -1.25661
16.1967 20.7108 20.5251 0.117872 1.32153 -0.626816
18.8504 17.0116 22.0089 -0.621238 -0.0674791 1.35627
19.296 19.5217 23.2885 -0.687554 1.32575 1.11745
16.8596 18.6796 22.1308 -0.963253 0.59502 0.223469
23.4042 17.4788 21.5569 0.919048 1.08655 1.1722
21.6346 19.713 21.5345 -0.0724573 -0.408253 -0.3256
24.3404 20.1523 20.8932 2.19532 0.594323 -1.25034
21.5413 20.1127 24.4792 -0.781387 -0.729694 -0.0786775
23.6377 19.3499 23.3875 0.394892 -1.6345 -0.355801
20.9788 17.0887 20.7919 -1.44969 0.508198 -0.511494
21.1457 17.6471 23.3129 -1.73013 1.16476 0.0680817
20.3985 22.107 23.0677 -0.817706 -0.36211 -0.670786
19.6277 22.1155 20.5495 -0.0806381 -1.28625 -0.866976
18.4936 24.1706 22.114 0.0426928 0.789827 0.947008
17.5964 21.4128 22.4286 0.56613 -1.27399 0.761009
23.1069 21.8172 23.0627 -0.491879 -0.715551 0.944011
21.178 24.1462 21.6017 -0.163397 -0.00456793 0.348156
ITEM: TIMESTEP
15000
ITEM: NUMBER OF ATOMS
34
ITEM: BOX BOUNDS ss ss ss
1.6076482395153668e+01 2.4253162365242808e+01
1.6556994024820963e+01 2.4665060444600531e+01
1.6379511503826887e+01 2.4657351315892761e+01
ITEM: ATOMS x y z vx vy vz