ITEM: TIMESTEP
0
ITEM: NUMBER OF ATOMS
35
ITEM: BOX BOUNDS ss ss ss
1.6559741093917665e+01 2.4722100124953425e+01
1.6650661278037855e+01 2.4843625539590665e+01
1.6061377826433329e+01 2.4105865396426459e+01
ITEM: ATOMS x y z vx vy vz
18.345 18.1619 17.0199 1.41303 0.855937 -1.61295
20.587 17.4773 18.2976 -1.51968 -0.727402 -2.73727
18.2034 20.5959 16.0655 -2.49331 -1.71429 -0.751613
18.2501 17.9774 19.7456 -2.16035 0.539188 -0.853763
16.6808 19.7943 18.4032 -1.69032 -1.04152 0.685275
19.3408 20.415 18.7522 0.112099 0.340766 1.64895
24.4795 18.6634 20.0745 1.61649 0.177212 0.992461
22.9943 18.6595 17.7799 -1.31107 -0.533549 0.768163
20.6981 19.6017 16.5176 -0.128401 0.145306 -0.304818
22.7983 16.6547 19.6453 1.17711 -0.873269 -1.27952
19.9729 22.4354 17.0162 -0.803483 1.54275 1.05868
17.2695 22.3607 17.7591 0.573709 0.995004 -0.201671
19.0293 23.5607 19.3686 1.77674 -0.410624 0.312326
21.6589 23.8776 18.6991 1.53747 -0.357289 0.216147
22.1599 21.2413 18.1523 -0.910889 0.319419 0.825216
16.5638 19.212 21.5405 1.05532 0.625315 0.39163
20.4547 18.3024 23.473 0.666828 0.862016 0.183893
18.1608 17.1727 22.3523 -0.382396 -0.298858 0.69986
17.9317 19.1113 24.1018 -0.113113 -0.174449 -0.960261
20.4911 16.9335 21.0657 0.850768 0.438199 0.991297
19.2248 19.881 21.6141 -0.693256 -1.52341 -0.342605
24.718 19.7333 22.5235 -0.522151 1.29136 -1.24726
22.0704 20.4156 22.7162 -1.4853 0.745862 -0.923029
21.678 19.2666 20.1363 1.04977 -1.03022 1.32323
22.8828 17.7787 22.1666 1.98523 -0.80187 0.715159
17.3229 21.5934 20.3823 1.20064 0.367396 -0.512281
17.0838 21.3773 23.093 0.613047 -0.051319 0.163453
19.7234 21.1582 23.9763 -0.362877 0.0372233 1.28137
18.9179 23.0753 22.1465 -2.51977 -0.565453 -0.515048
20.9771 22.0068 20.6189 2.27741 -1.03287 -0.254887
23.7232 21.2354 20.4667 -1.81799 1.16634 0.965462
20.702 24.8395 21.0861 0.821164 0.387638 -0.916987
24.0663 22.2772 22.9717 1.0203 -0.776067 1.53506
23.1561 23.8337 20.9854 0.21273 -0.94077 1.14297
21.5082 23.1441 23.1114 -1.04551 2.0163 -2.48664
ITEM: TIMESTEP
1000
ITEM: NUMBER OF ATOMS
35
ITEM: BOX BOUNDS ss ss ss
1.6559741093917665e+01 2.4722100124953425e+01
1.6650661278037855e+01 2.4843625539590665e+01
1.6061377826433329e+01 2.4105865396426459e+01
ITEM: ATOMS x y z vx vy vz
18.2856 18.2606 17.0258 -1.46453 -0.118365 -0.675043
20.4344 17.4498 18.5384 0.164935 -0.292576 -0.415386
18.3089 20.557 15.9997 -0.755307 0.212179 -0.136548
18.0217 17.9575 19.7324 -0.908407 -0.110695 1.04839
16.6773 19.8182 18.4075 -0.590058 -1.81301 0.361531
19.4662 20.2657 18.7852 0.212606 -0.871229 -0.0348516
24.3175 18.9781 19.5873 1.26096 -0.29453 0.127762
22.7379 18.452 17.4578 0.047999 -1.63361 -0.0835066
20.7546 19.4272 16.4044 0.775403 0.0560687 0.803961
22.8486 16.7423 19.7372 -0.771044 1.11475 -0.802486
20.2579 22.1654 17.2236 -0.64975 0.904127 -0.451766
17.4669 22.2435 17.7786 -1.50487 2.3889 0.509443
19.0202 23.5577 19.4461 0.528081 -0.916781 0.147493
21.9095 23.5812 18.9144 2.01465 1.09344 -0.242811
22.5433 20.961 17.9633 0.514965 -0.876497 -0.527179
16.5802 19.4042 21.3659 1.97673 0.390313 -0.792771
20.4276 18.3869 23.418 0.045248 -0.158582 -0.22199
18.1475 17.1839 22.4019 -0.911008 1.23146 0.207773
17.857 19.0928 24.0339 0.157947 -1.57 -0.172531
20.5122 16.9528 21.0997 -0.685602 -0.603603 0.715095
19.2149 19.6967 21.6288 1.03304 0.382288 0.666864
24.6564 19.8627 22.0342 1.08041 1.49137 0.215991
22.2226 20.4322 22.7302 -0.288443 0.15141 0.211697
21.7183 19.3373 20.12 1.0306 -1.40258 0.495194
22.9622 17.9001 22.2228 -0.76451 1.41891 0.127982
17.5623 21.6849 20.3339 -0.0986877 -0.44934 0.49695
17.1325 21.423 23.1753 -0.182321 -1.49979 -0.951065
19.7512 21.1329 23.9504 0.326631 0.668962 -0.462722
18.7479 23.2141 22.3175 0.763996 -0.770447 -1.74839
20.7153 21.9228 20.8159 -2.03125 2.29939 -1.04907
23.4305 21.6828 20.3474 0.0478141 0.673443 0.0790431
20.6568 24.7007 21.2479 -0.59248 0.654861 0.627409
24.0061 22.3064 23.0375 -0.744481 -1.35976 1.08185
23.0641 23.9883 21.3599 0.303519 -0.852111 0.704392
21.409 23.1027 23.1823 0.657235 0.461628 0.139288
ITEM: TIMESTEP
2000
ITEM: NUMBER OF ATOMS
35
ITEM: BOX BOUNDS ss ss ss
1.6559741093917665e+01 2.4722100124953425e+01
1.6650661278037855e+01 2.4843625539590665e+01
1.6061377826433329e+01 2.4105865396426459e+01
ITEM: ATOMS x y z vx vy vz
18.4441 18.2415 17.0212 0.504251 0.295638 0.203379
20.6931 17.4978 18.251 1.02853 -1.01691 0.41523
18.3531 20.5788 16.0322 -1.15814 -0.130339 -1.45357
18.3387 18.0833 19.6884 -0.67021 -0.546361 0.225864
16.628 19.7314 18.6282 -0.0874938 0.11892 -0.263597
19.325 20.5452 18.7118 -0.54907 0.673953 -0.275294
24.5183 18.4894 20.0807 0.59468 -1.38656 1.47517
23.0925 18.8384 17.9071 -0.416388 0.81943 1.70957
20.8615 19.6657 16.5565 0.503355 0.947494 -1.54684
22.7125 16.7371 19.7611 -0.556656 2.20212 -0.126869
19.9211 22.5272 16.9409 0.0798423 0.109978 -0.694721
17.1403 22.2082 17.7436 -0.736277 0.844639 0.257896
18.9524 23.3409 19.3867 0.841705 -1.46843 0.728613
21.4149 23.8245 18.5817 -0.393822 0.363923 0.402109
22.0151 21.3357 18.2417 1.55703 1.21365 -0.0228434
16.5583 19.2259 21.4418 -0.434129 -0.266384 -1.2292
20.5356 18.3126 23.2852 -0.162955 1.61969 -0.106921
18.0639 17.387 22.2648 -2.05166 1.16566 1.89641
18.0804 19.1052 23.9414 1.22526 -0.854992 0.403604
20.3845 16.9319 20.9581 0.0375703 -0.648214 1.45342
19.2038 20.1336 21.6421 -0.6468 0.708265 2.25717
24.7107 19.6559 22.4794 -0.224209 -0.856641 -1.73511
22.1158 20.313 22.9156 1.0036 -0.0218306 0.397493
21.6999 19.2725 20.2992 2.11767 -1.41856 -1.67054
22.898 17.7076 22.2961 0.658375 -0.601745 0.619439
17.2441 21.6476 20.3912 -0.671445 0.408149 -0.140962
17.174 21.3561 23.1027 -0.0586117 -2.38003 0.133425
19.7925 21.2061 24.1314 -0.680243 -1.00918 -1.2983
18.9786 23.0171 22.1523 -0.699357 1.02091 0.965977
21.0873 22.1297 20.6816 -0.261502 1.41303 -0.651086
23.7112 20.9975 20.3083 0.378463 -0.227545 -1.17597
20.6094 24.8041 21.11 0.23528 -0.561276 -0.460161
24.073 22.2047 22.7126 -0.965879 -0.0969231 0.327999
22.9764 23.6727 20.938 1.24526 -0.594992 -0.881702
21.5171 23.0989 23.2403 -0.586025 0.161473 -0.139103
ITEM: TIMESTEP
3000
ITEM: NUMBER OF ATOMS
35
ITEM: BOX BOUNDS ss ss ss
1.6559741093917665e+01 2.4722100124953425e+01
1.6650661278037855e+01 2.4843625539590665e+01
1.6061377826433329e+01 2.4105865396426459e+01
ITEM: ATOMS x y z vx vy vz
18.5366 18.4096 17.0645 -0.582866 -1.11445 -0.790655
20.7635 17.6023 18.2868 0.121069 -0.55052 -0.360531
18.34 20.5918 15.9738 0.60629 0.57576 1.18826
18.2671 17.9413 19.7053 -0.576704 -1.48696 1.84229
16.728 19.7404 18.5232 -1.04651 -0.558973 0.888659
19.317 20.5433 18.8711 0.0769645 0.513254 -2.00316
24.5869 18.2621 20.2273 -0.476337 0.18016 -0.114206
23.2057 18.9374 17.913 0.606788 -0.809569 -0.956892
20.9124 19.7664 16.5931 0.730588 0.467337 -0.588036
22.745 16.7526 19.5999 -0.510309 1.6733 -0.402661
20.0217 22.3708 16.9765 1.3461 -0.180629 -1.76148
17.254 22.2208 17.7147 0.0942471 -0.254589 0.979373
18.8394 23.5348 19.3971 0.477409 2.16192 -1.15325
21.331 23.835 18.6845 -0.373321 -0.163522 -0.735426
22.0774 21.391 18.2066 0.275973 0.0943488 0.00440811
16.5416 19.3079 21.7543 0.505363 1.13958 -0.168748
20.3593 18.2871 23.4073 -0.751813 0.709133 -0.991957
18.1408 17.2677 22.165 -0.297663 -0.261335 0.726697
17.793 19.0778 23.9905 0.9567 0.611767 0.71317
20.6087 16.9092 21.0878 2.01297 0.668333 -1.70729
19.1116 19.7433 21.5724 -1.20579 -1.60582 0.183889
24.6667 19.6727 22.4096 1.41729 -1.67833 -0.18075
22.0231 20.4293 22.7569 -0.224925 -0.49654 1.73023
21.7316 19.2488 20.1399 1.40254 -1.70569 0.778431
22.7858 17.8116 22.2648 -0.445493 1.11678 -0.319114
17.2875 21.6353 20.6304 -1.2059 0.190208 1.77319
17.2851 21.5593 23.247 -0.107945 0.550971 -1.26489
19.7458 21.0771 23.9543 -0.388387 -0.147195 0.574077
18.9498 23.1583 22.1644 -1.32093 -0.569626 0.816972
20.7378 21.9698 20.6708 0.53942 0.307177 -0.306759
23.8189 21.0001 20.25 -1.2722 -0.064053 0.24705
20.7313 24.7719 21.0625 -0.346141 1.02438 -1.54596
24.0112 22.235 22.7185 0.485754 -0.198159 0.28074
23.0233 23.5388 20.7893 0.258443 0.501232 0.913276
21.5464 23.2242 23.052 -0.780674 -0.63967 1.71106
ITEM: TIMESTEP
4000
ITEM: NUMBER OF ATOMS
35
ITEM: BOX BOUNDS ss ss ss
1.6559741093917665e+01 2.4722100124953425e+01
1.6650661278037855e+01 2.4843625539590665e+01
1.6061377826433329e+01 2.4105865396426459e+01
ITEM: ATOMS x y z vx vy vz
18.2971 18.2379 17.0333 -1.17076 0.997529 1.14735
20.626 17.4034 18.1823 0.089235 0.419999 0.610281
18.2818 20.5842 16.2091 -0.492031 -0.590133 -0.0482004
18.3806 17.9921 19.6745 0.559059 -0.21564 0.982765
16.8235 19.8934 18.7428 0.6785 -0.0811656 0.183874
19.5085 20.4164 18.8018 0.595997 -0.104536 -3.04974
24.2845 18.9505 19.7011 -0.828254 0.0570899 -0.759008
22.9706 18.3162 17.6813 -0.247711 2.02904 -0.834125
20.9198 19.4933 16.4381 1.43404 0.713299 1.35008
22.7743 16.7842 19.7414 0.151517 -0.111657 -0.828525
20.0728 22.3906 17.029 1.27538 -0.671657 -1.28483
17.3265 22.3077 17.9498 0.446814 0.0997287 -0.383144
19.1719 23.4142 19.3516 -0.633034 0.466316 -1.30076
21.9451 23.5118 18.8034 -1.0134 -0.38071 -0.00397837
22.2875 20.9867 18.0185 1.96815 -0.937315 -0.339936
16.5473 19.379 21.5329 -1.34261 0.619939 -0.51805
20.277 18.3716 23.3245 0.721443 -1.27765 0.682973
18.0229 17.3424 22.2865 -1.13487 -0.202541 1.50089
17.8034 19.1349 24.0026 0.569475 -0.269936 0.227223
20.5123 17.1273 21.1345 0.52451 1.02944 0.00677372
19.1704 19.8726 21.5412 -2.12766 -0.898257 0.773407
24.7498 19.8567 22.1355 0.0840477 -0.281727 -0.211505
22.0619 20.3384 22.7328 -0.970729 0.401762 -0.187943
21.7369 19.2807 20.0335 1.81425 -2.488 -1.48904
22.9912 17.939 22.2249 1.01012 -0.513761 0.878422
17.4531 21.7791 20.6367 -0.640717 -0.300434 -0.289782
17.0539 21.3841 23.1599 -1.31537 0.990269 1.32456
19.6855 21.0087 23.9257 -0.745496 -1.1014 -0.7532
18.9358 23.0795 22.4093 0.134949 0.516041 2.37145
20.8711 21.9417 20.8045 -0.802776 -0.217878 -0.309573
23.5977 21.43 20.2788 0.429042 -0.81248 -1.60388
20.5296 24.6426 21.0863 0.785389 0.0911081 0.105034
23.8586 22.2764 22.873 -0.169159 0.397676 -0.0785361
22.9066 23.8741 21.1266 0.721557 1.62163 1.06586
21.3897 23.0835 23.2171 -0.358889 1.00601 1.06282
ITEM: TIMESTEP
5000
ITEM: NUMBER OF ATOMS
35
ITEM: BOX BOUNDS ss ss ss
1.6559741093917665e+01 2.4722100124953425e+01
1.6650661278037855e+01 2.4843625539590665e+01
1.6061377826433329e+01 2.4105865396426459e+01
ITEM: ATOMS x y z vx vy vz
18.6526 18.1973 17.1085 -0.112196 -1.40416 1.12998
20.6437 17.2956 18.6266 -0.400452 -0.811421 -0.634958
17.9537 20.6368 16.1922 0.736891 -0.297695 -0.246068
18.237 17.7408 19.6351 -0.168975 -0.402997 -1.05785
16.8233 19.7679 18.6303 1.01503 0.649326 0.310637
19.4796 20.2988 18.7635 -2.40255 0.493403 -1.65225
24.2678 18.825 19.9353 1.48801 0.0347841 -0.100156
22.8311 18.474 17.7491 0.974415 -0.130051 -0.146087
20.6981 19.7215 16.4769 1.62812 1.08269 1.91004
22.8742 16.5881 19.5853 -0.661777 0.310982 -0.545523
19.9735 22.3369 17.2084 -0.0882748 -0.128387 -0.540363
17.4271 22.3781 18.014 -0.0430013 0.0920883 -0.188045
19.1677 23.7571 19.4252 -0.954815 0.854322 -0.609941
21.9481 23.5178 18.8862 -0.480189 0.293754 -0.771922
22.2466 21.1279 18.1014 -1.13507 -0.2231 -1.36685
16.5784 19.2814 21.3483 -1.07919 0.284851 0.332543
20.3516 18.3297 23.2004 0.356329 0.386218 -0.0862388
18.1169 17.3057 22.3381 1.15133 -1.49057 0.0604534
17.9057 19.1189 23.9402 -0.150758 0.135381 0.477255
20.5477 16.8234 21.2102 0.469843 -0.0693337 1.21517
19.0499 19.8382 21.4702 -1.10064 0.491268 0.501303
24.6844 19.9946 22.2563 0.0306171 -1.05754 0.871113
22.1451 20.3118 22.7913 -0.981972 -0.149117 1.61994
21.5527 19.2464 20.1824 0.633185 0.855715 -0.959447
22.8682 17.7939 21.9069 0.471773 -0.587787 0.0950031
17.4805 21.827 20.5566 -0.65901 2.56958 -0.571662
17.1508 21.2984 23.0418 -0.00474969 -0.168463 0.161993
19.7641 21.1911 23.6543 -0.21498 -1.6849 0.227544
18.7584 23.3329 22.2649 0.718661 0.158809 0.0440073
20.7062 21.9323 20.5921 1.04493 -0.164261 1.08255
23.4276 21.4695 20.4992 -1.35399 -1.30299 0.410391
20.7225 24.6855 21.1921 1.33635 0.70891 0.441236
24.0595 22.3011 22.9636 1.21055 1.17382 -1.19139
23.2224 24.0255 21.0943 -0.772198 0.996096 -0.145957
21.5082 23.0541 22.9837 -0.501225 -1.49923 -0.0764349
ITEM: TIMESTEP
6000
ITEM: NUMBER OF ATOMS
35
ITEM: BOX BOUNDS ss ss ss
1.6559741093917665e+01 2.4722100124953425e+01
1.6650661278037855e+01 2.4843625539590665e+01
1.6061377826433329e+01 2.4105865396426459e+01
ITEM: ATOMS x y z vx vy vz
18.4879 18.1896 17.116 -2.24681 0.835577 2.54917
20.6012 17.7712 18.3471 -0.504808 -0.19455 1.14235
18.3958 20.7939 16.2156 1.29217 -0.0254217 0.250172
18.3689 18.1451 19.9265 0.949535 0.91507 -0.723235
16.7141 19.8855 18.5181 0.0692605 0.243607 -0.42555
19.3435 20.4609 18.7912 -0.990321 0.654436 -0.802386
24.4191 18.699 20.0265 2.33029 0.937857 0.325183
22.9387 18.6443 17.8725 0.649207 -0.287509 0.517449
20.7377 19.6732 16.4977 -0.227963 0.215928 0.145963
22.7058 16.7547 19.6496 0.582979 -0.619969 0.0114252
20.0484 22.5993 16.973 -0.0137281 -1.53666 -0.0482791
17.2469 22.4674 17.7767 0.60126 -0.856359 0.229493
19.0424 23.3566 19.325 -1.16066 -0.638556 2.15549
21.6768 23.8299 18.598 0.152537 0.451739 -0.311926
22.1551 21.216 18.1672 -1.36771 1.17768 -0.482643
16.6639 19.0997 21.5474 0.884219 -0.971395 -1.60444
20.3162 18.2508 23.3148 -2.22238 0.599791 -1.28547
18.175 17.1667 22.4826 0.130344 -2.09854 -2.05352
18.0057 19.1189 24.1114 -0.601048 1.50517 0.16626
20.4684 16.9603 21.1116 0.47027 -1.18736 0.63048
19.1797 20.0063 21.6253 1.17967 0.0190357 -0.91128
24.5217 19.616 22.3699 0.0332996 0.160748 -0.434652
22.0512 20.3025 22.8552 0.34965 -0.336679 -0.296982
21.7144 19.3912 20.236 -0.619509 -0.755617 -0.466545
22.6997 17.7841 22.1216 -1.83058 -0.990713 1.41861
17.2233 21.4495 20.4838 1.58841 0.30302 0.684906
17.0647 21.1952 23.0637 -1.17212 0.58271 1.07226
19.8076 21.1519 24.0362 -0.197881 1.11156 -0.988578
18.8744 22.8749 22.0995 -0.00536963 -0.501955 1.23767
21.0991 21.8909 20.6312 -0.299669 -0.923738 -0.713991
24.0253 21.2726 20.2887 1.2635 0.959556 -0.205035
20.6514 24.6776 21.0103 -0.249455 1.44492 0.0644876
23.9068 22.2225 22.7605 1.10378 -0.443391 -0.624373
23.0924 23.7786 20.8182 -0.758511 -0.0201514 -0.316185
21.4019 23.128 23.0565 0.838129 0.27015 0.0937264
ITEM: TIMESTEP
7000
ITEM: NUMBER OF ATOMS
35
ITEM: BOX BOUNDS ss ss ss
1.6559741093917665e+01 2.4722100124953425e+01
1.6650661278037855e+01 2.4843625539590665e+01
1.6061377826433329e+01 2.4105865396426459e+01
ITEM: ATOMS x y z vx vy vz
18.4035 18.4845 17.1118 1.36472 1.35374 1.14017
20.7493 17.7004 18.2462 -0.308422 0.917331 0.552512
18.2424 20.7319 15.9908 0.84848 -0.532882 0.702389
18.3085 18.0602 19.696 -2.69437 0.31853 -0.650515
16.6123 19.8474 18.4928 0.76218 0.369324 -0.101541
19.226 20.6173 18.8591 -0.332975 -1.10818 0.325279
24.5048 18.4403 20.1058 -0.579775 0.221306 -0.962711
22.9974 18.8387 18.0753 0.415901 -2.42796 0.170813
20.8328 19.6753 16.5506 0.0014119 0.211639 0.388169
22.6838 16.5839 19.6457 1.95788 -0.359656 -2.41651
20.1492 22.2776 17.1437 -0.580291 -0.327043 -1.35122
17.2597 22.2434 17.7397 -0.202793 -2.37374 0.029412
18.8487 23.3793 19.3245 -0.203557 0.721054 -0.559334
21.3958 23.8649 18.8538 0.45465 0.145205 0.628503
22.3356 21.3819 18.1428 0.0655198 0.577539 0.13402
16.545 19.1511 21.5093 1.77644 0.70569 -0.103567
20.555 18.2387 23.5637 0.0277177 0.947967 0.606302
18.267 17.3083 22.3629 0.322885 -0.722411 -1.16174
18.2079 19.0847 24.0734 0.446654 -0.787918 0.653925
20.546 17.0481 21.0647 -1.60972 0.329083 1.56761
19.2581 19.8233 21.6203 0.568679 0.934918 -1.60242
24.5227 19.6018 22.3972 -0.564199 0.182242 0.333023
21.9665 20.3704 22.8749 -1.34811 -0.608319 0.578418
21.5739 19.317 20.2642 -0.0195842 0.937727 1.39346
22.9335 17.7024 22.2595 -0.335835 -0.597275 -0.275127
17.1635 21.5162 20.4369 -0.0406499 0.355875 -0.29697
17.1279 21.174 22.9347 1.36799 0.668409 0.261694
19.7234 21.399 23.81 -1.01568 -0.63107 0.669466
18.8973 23.0202 22.1191 0.12845 -0.86857 -0.485132
20.9014 21.9197 20.6869 0.779981 0.77456 0.380101
23.6868 21.0515 20.3343 -0.665385 -1.53709 -0.649028
20.7432 24.9638 21.1654 0.234554 0.352342 1.48034
24.0316 22.1185 22.5966 0.00941341 1.13751 -1.37038
23.0535 23.6972 20.7926 -0.771027 0.658818 -0.12222
21.5711 23.1923 22.9801 -0.261131 0.0613007 0.112812
ITEM: TIMESTEP
8000
ITEM: NUMBER OF ATOMS
35
ITEM: BOX BOUNDS ss ss ss
1.6559741093917665e+01 2.4722100124953425e+01
1.6650661278037855e+01 2.4843625539590665e+01
1.6061377826433329e+01 2.4105865396426459e+01
ITEM: ATOMS x y z vx vy vz
18.3211 18.2508 17.0138 -0.369554 0.0692936 -0.254658
20.7724 17.4137 18.4082 1.54812 1.24676 -1.17892
18.1904 20.7434 16.1807 2.64125 0.174266 1.23043
18.5006 17.9644 19.7015 0.283184 0.400096 -1.63539
16.6685 19.718 18.3218 -1.22249 1.9783 -0.309645
19.2412 20.664 18.6657 -0.597065 -0.222904 -0.405399
24.4396 18.4435 20.2519 -0.560254 -0.663842 0.370101
23.1524 18.758 18.0145 -1.04618 -0.541808 -0.296987
20.61 19.5793 16.7505 -0.399906 -1.93614 0.51756
22.7925 16.6113 19.7518 1.10688 -0.676274 0.0213134
19.8443 22.6879 17.1461 0.703319 -0.830312 0.466226
17.0002 22.3682 17.9031 0.128277 -1.7149 1.47074
18.8668 23.6055 19.2912 -1.39976 0.295536 0.512491
21.5944 23.9152 18.6419 -1.46429 0.0504246 0.605456
22.0105 21.2145 18.3222 0.441436 1.11485 -0.45644
16.7509 19.1892 21.3348 -0.456 -0.0761846 0.899263
20.5991 18.5341 23.382 1.02958 -1.18971 -0.523217
18.2891 17.191 22.2543 -0.762764 1.32606 0.943347
18.068 19.0356 23.9139 0.801174 2.13902 0.463717
20.4353 16.9906 21.1851 0.343431 -0.622202 -0.450091
19.2041 20.0501 21.5153 -0.477698 0.465234 0.223704
24.6667 19.6436 22.535 1.48715 0.647961 0.762537
22.1983 20.5063 22.4981 -0.452804 0.966117 -0.304976
21.5791 19.1845 20.3062 -1.30669 -1.32458 -0.117635
22.8777 17.6765 22.213 0.532575 -1.17177 -0.0077759
17.2108 21.7036 20.4037 0.220646 1.00724 -0.484267
17.112 21.4266 22.9679 0.162068 0.0739643 -0.352856
19.8199 21.0464 23.8469 0.795527 -2.15105 -1.34779
18.8736 23.0504 22.1765 0.642599 0.494874 -0.597812
20.8622 22.0155 20.6535 -0.504744 0.451457 0.0250944
23.8841 21.0922 20.2597 -0.0553487 1.52814 0.857168
20.6331 24.6984 21.1362 -0.789824 -0.373641 -0.378746
24.1622 22.1512 22.8203 -0.913011 -0.630264 0.682749
23.1532 23.5605 20.9613 0.0842539 -1.1055 0.472369
21.4406 23.1409 23.0963 -0.173091 0.801493 -1.42166
ITEM: TIMESTEP
9000
ITEM: NUMBER OF ATOMS
35
ITEM: BOX BOUNDS ss ss ss
1.6559741093917665e+01 2.4722100124953425e+01
1.6650661278037855e+01 2.4843625539590665e+01
1.6061377826433329e+01 2.4105865396426459e+01
ITEM: ATOMS x y z vx vy vz
18.4584 18.4098 17.1155 1.46516 1.08954 -0.664883
20.7155 17.8113 18.3087 -1.23835 1.00147 1.68387
18.0089 20.6591 16.1953 0.565338 0.867883 -0.0120537
18.4124 18.0254 19.7037 -0.15971 -2.44252 1.11032
16.6525 19.7455 18.494 1.81133 -0.333467 0.36656
19.4277 20.5474 18.808 -1.44463 0.839874 -0.494065
24.4509 18.323 20.3753 -0.201794 -0.528063 -0.404203
23.0989 18.9824 18.1118 0.953368 0.860384 -0.230363
20.5629 19.9502 16.4163 -1.64155 1.50219 0.828985
22.9247 16.6944 19.4211 -0.935739 0.384303 1.24069
19.8104 22.5004 17.0653 0.548927 -2.02127 0.916373
17.2027 22.3993 17.8919 -0.221927 -0.243232 -0.325418
19.0603 23.3619 19.5156 -0.600692 -0.622838 1.15198
21.4605 23.7751 18.6135 1.12342 -0.496381 1.2014
22.1661 21.3915 17.9564 0.645272 -0.459882 -1.20213
16.6383 19.2594 21.3955 1.78345 0.706208 -1.69786
20.3286 18.2922 23.7143 -1.46015 0.0170588 -1.25163
18.2811 17.3256 22.2575 -1.32974 -0.258722 -1.02853
17.8669 19.1274 23.945 1.04553 0.116078 1.14405
20.6385 16.8802 21.1346 -0.615609 1.23582 -0.457214
19.349 19.8519 21.5904 1.68007 -1.92644 0.984422
24.5408 19.838 22.4759 -0.16004 -1.43364 1.0893
22.0169 20.2393 23.0565 0.666678 0.0908974 -0.312429
21.7883 19.1426 20.4096 -0.953643 0.736195 0.345726
22.7774 17.8473 22.5171 0.964092 1.74667 0.640408
17.2073 21.5561 20.2763 -1.40047 -0.339669 -0.16049
17.111 21.3518 22.9856 -1.57854 0.0847687 -0.0991101
19.5921 21.0945 24.079 0.319316 -0.215873 -1.33323
18.9167 22.9624 22.2014 1.08545 0.130833 -0.185815
21.1878 21.8473 20.5623 -1.19264 0.709066 0.255221
23.849 21.0479 19.9873 0.0139428 -0.823297 0.0270916
20.7908 24.693 21.0329 -0.148418 -1.03041 0.0681847
23.8977 22.1405 22.5534 1.4992 1.32434 -2.03396
23.2689 23.7106 20.6748 -1.02902 0.458126 -1.06225
21.3651 23.0399 22.9835 0.142108 -0.726007 -0.0989559
ITEM: TIMESTEP
10000
ITEM: NUMBER OF ATOMS
35
ITEM: BOX BOUNDS ss ss ss
1.6559741093917665e+01 2.4722100124953425e+01
1.6650661278037855e+01 2.4843625539590665e+01
1.6061377826433329e+01 2.4105865396426459e+01
ITEM: ATOMS x y z vx vy vz
18.4448 18.39 16.7939 0.455565 1.17349 -0.345763
20.5275 17.4416 18.3 2.23497 -0.414067 0.55956
18.3198 20.735 16.1171 1.14202 0.224972 1.86482
18.2467 18.0579 19.8006 0.172261 -0.569841 -0.573874
16.7175 19.789 18.2395 -1.76545 -0.703216 1.75222
19.2624 20.3761 18.7016 -0.0911203 0.0758626 -1.63786
24.5036 18.7684 20.197 -1.81171 -0.0708183 0.0943451
22.9524 18.6338 17.867 0.0372002 -0.791606 -2.36931
20.8589 19.5887 16.5898 -0.438956 0.653904 0.375462
22.7551 16.7291 19.6345 -0.639544 -1.32033 -0.236336
19.9882 22.5874 16.7929 -0.985812 0.980262 -0.215871
17.395 22.3682 17.6741 0.233643 -0.809234 -0.638413
18.93 23.6779 19.2642 1.10319 0.374056 -0.19853
21.4862 23.8171 18.7669 0.144404 -0.745551 0.499852
21.8871 21.2505 18.2567 -0.735562 -0.167445 -1.68337
16.7716 19.1118 21.8304 0.0516433 0.0292528 -0.955167
20.5565 18.256 23.3683 -0.22642 0.210774 -0.632762
18.3578 17.2381 22.5935 0.552922 2.16624 0.200154
18.2138 19.3081 24.2057 0.554582 -1.72852 0.548926
20.406 16.8907 20.9666 -0.466061 0.903155 0.504799
19.2794 19.9215 21.6921 -1.10186 0.715582 0.750725
24.608 19.5989 22.4689 -1.17773 -1.04755 -0.350447
22.1375 20.2963 22.7082 0.563387 0.335751 2.01725
21.5647 19.2334 20.156 0.141889 0.356423 0.262716
22.9271 17.5341 22.0039 -0.206005 0.466767 1.0067
17.3076 21.5217 20.4008 -1.08438 -1.77249 0.0663146
17.104 21.2867 23.1117 -0.37728 -1.78016 -1.14842
19.7525 21.3597 23.93 0.523559 0.439079 -0.0877798
18.8913 23.01 22.0304 0.983797 -0.162227 1.16235
20.8064 21.932 20.7163 0.586444 -0.0758525 -1.35136
23.6934 21.2903 20.539 0.377929 0.617637 0.128601
20.7081 24.8028 21.1585 1.44844 -0.075688 -0.991595
23.9429 22.1839 22.9857 1.47779 0.284959 0.328751
23.0634 23.7215 20.9809 0.287881 0.443555 1.68198
21.4578 23.1168 22.9823 -1.96562 1.78287 -0.388665
ITEM: TIMESTEP
11000
ITEM: NUMBER OF ATOMS
35
ITEM: BOX BOUNDS ss ss ss
1.6559741093917665e+01 2.4722100124953425e+01
1.6650661278037855e+01 2.4843625539590665e+01
1.6061377826433329e+01 2.4105865396426459e+01
ITEM: ATOMS x y z vx vy vz
18.3267 18.0916 17.288 -1.45263 -0.0884516 -0.507194
20.3916 17.3552 18.5572 -2.04334 -0.148126 -1.07957
18.3132 20.5192 16.1412 -0.00592507 0.424153 -0.255784
18.3496 18.229 19.9854 1.34701 -0.184482 -0.439484
16.6965 19.8189 18.4566 1.97964 -0.412089 0.668326
19.3205 20.395 18.7504 0.693144 0.364822 -1.23571
24.4592 18.9456 19.7768 -0.804679 -0.624188 0.508806
22.6818 18.5299 17.5948 1.0294 1.86724 -1.08917
20.6371 19.5309 16.4629 0.643808 0.87896 0.418321
22.9172 16.8317 19.448 -0.256677 -1.10207 -1.20936
20.0997 22.4425 17.1555 0.854543 -0.377027 0.554745
17.453 22.3251 17.717 -0.496018 -1.20393 0.274732
19.1896 23.5901 19.3806 0.784547 -0.583443 -1.00978
21.7559 23.7123 18.9746 -0.2615 0.105323 0.582911
22.3443 21.0132 18.1289 -1.40999 -0.680988 1.65397
16.4707 19.2113 21.5684 1.24759 -0.17506 -0.0438401
20.3971 18.3458 23.3006 -1.46098 1.69127 -1.63268
18.1723 17.0523 22.2264 0.824037 0.436152 0.271759
17.9502 19.0729 23.8237 1.66904 -0.0797026 -0.909085
20.6473 16.7955 21.1353 -0.277788 -1.39784 1.33007
19.2588 20.0023 21.6509 -1.36033 0.452089 1.47127
24.559 19.7519 22.2343 -0.0293159 -0.567762 -0.964068
22.0093 20.5327 22.6521 -0.316827 1.83547 0.906335
21.6369 19.1743 20.0914 0.452533 -1.27194 -0.019805
22.9448 17.8136 22.1827 0.896163 0.279316 0.454302
17.5072 21.6452 20.3546 0.0676173 -0.0435967 -0.0877072
17.1344 21.3709 23.0128 -0.501689 -1.08924 0.567293
19.733 21.1397 23.9054 -0.10585 0.950146 0.789648
18.9584 23.1501 22.3057 0.428767 0.388473 1.05886
21.0029 21.8897 20.6391 -2.04475 1.33108 1.23979
23.5819 21.394 20.3541 0.469539 0.729755 0.371913
20.5929 24.7839 21.1025 -0.0927782 0.0865783 -1.07156
23.9682 22.2094 22.9564 -0.283635 -1.42492 -0.394635
22.9217 23.9331 21.2824 1.57692 -1.6548 0.119964
21.4419 23.2261 23.2284 -1.75961 1.28882 -1.29357
ITEM: TIMESTEP
12000
ITEM: NUMBER OF ATOMS
35
ITEM: BOX BOUNDS ss ss ss
1.6559741093917665e+01 2.4722100124953425e+01
1.6650661278037855e+01 2.4843625539590665e+01
1.6061377826433329e+01 2.4105865396426459e+01
ITEM: ATOMS x y z vx vy vz
18.3856 18.0921 17.0623 0.782235 1.37999 2.24431
20.4174 17.5995 18.3078 -1.2617 0.83751 0.371518
18.2912 20.4605 16.0614 0.377667 -0.658832 0.189039
17.9732 18.0745 19.667 -0.0296619 -0.271509 -0.299231
16.6494 20.0288 18.4731 0.49632 -1.4423 2.19689
19.3567 20.3497 18.7641 -1.62322 0.250354 -2.96459
24.5184 18.5775 19.9215 0.0959587 -2.54761 0.348375
23.0186 18.717 17.8099 -0.211325 1.11432 -0.924509
20.8443 19.5682 16.6372 1.64088 0.632721 -0.820395
22.5981 16.7338 19.7524 1.21533 0.0455527 -1.67012
20.0871 22.4106 17.0208 -0.952989 0.128218 -0.0681316
17.6048 22.2577 17.7721 1.85024 -0.911834 0.640535
19.1942 23.5047 19.4604 0.0179479 0.460697 -0.311759
21.5897 23.9629 18.7132 -0.264053 0.299724 0.809936
22.1799 21.3151 18.086 0.342782 -1.36753 0.970646
16.6465 19.2527 21.6254 0.818185 0.40454 -0.450904
20.4338 18.4788 23.5966 0.242374 1.05013 0.472975
18.1126 17.027 22.3208 -0.362669 1.58323 0.213236
17.9876 18.8827 23.8846 1.27833 0.227071 -0.996216
20.4064 17.2333 21.1974 -0.626968 0.870508 0.54977
19.2032 19.8078 21.4652 -1.04271 -0.95038 0.849963
24.821 19.9319 22.0887 0.124516 0.381314 0.212914
22.0769 20.4658 22.9109 -1.49617 0.0799087 -0.64811
21.7069 19.3413 20.2382 -0.44881 0.105255 -0.119065
22.8302 17.9214 22.1615 0.132159 1.10698 1.2742
17.2668 21.6888 20.5567 -0.157454 -0.102083 -0.712998
17.1818 21.1686 23.1589 -0.247224 0.252793 -1.22019
19.6781 20.9499 24.0571 0.300579 -0.875927 0.324249
18.9862 22.8618 22.1227 -0.384127 -0.485906 -0.327219
21.0026 21.9523 20.6005 0.599705 -0.848189 -0.259861
23.7166 21.2568 20.3059 -0.966337 0.719006 -0.763904
20.6527 24.8676 21.1363 -0.702952 1.18995 1.66417
23.9957 22.3229 22.7932 -0.778936 0.431036 -1.64247
22.9844 23.8452 20.9342 0.778112 -1.92052 0.0855993
21.4264 22.9158 23.1613 0.463978 -1.1682 0.78135
ITEM: TIMESTEP
13000
ITEM: NUMBER OF ATOMS
35
ITEM: BOX BOUNDS ss ss ss
1.6559741093917665e+01 2.4722100124953425e+01
1.6650661278037855e+01 2.4843625539590665e+01
1.6061377826433329e+01 2.4105865396426459e+01
ITEM: ATOMS x y z vx vy vz
18.0799 18.1452 17.2439 -1.42212 1.61212 -1.56537
20.5213 17.4453 18.2035 -0.0711623 -0.438692 0.400768
18.1623 20.5642 16.0991 1.60588 -0.486468 1.22836
18.5521 18.0957 19.7434 0.820544 -0.333641 1.72838
16.6315 19.906 18.6777 -0.662625 1.65875 0.654786
19.4312 20.6829 18.7958 -1.11572 -0.543923 0.22428
24.6122 18.5327 20.1688 1.54735 -0.707249 2.09408
23.0085 18.9118 17.9354 -0.00450454 0.249028 -1.22677
20.6651 19.5509 16.7396 -0.0786809 -0.696878 0.14549
22.8981 16.6777 19.6462 0.112859 1.20062 0.265408
19.8801 22.4932 17.0086 -1.32173 0.931333 -0.57188
17.3067 22.1437 17.7667 1.05777 -2.54653 0.00274272
19.1346 23.5604 19.3614 1.36417 0.232558 0.0190439
21.5523 23.9963 18.7214 -0.063088 -0.407254 -0.504211
22.1161 21.4079 18.2554 0.431947 -0.405539 -0.728822
16.7001 19.1398 21.4685 0.289691 -0.0246319 -0.741707
20.4094 18.1272 23.1661 0.16828 2.12864 0.757392
18.096 17.0941 22.2665 -0.955283 1.41873 0.757815
17.9943 19.0295 23.8655 0.3706 0.673435 -0.719287
20.4896 16.7659 21.1167 -0.176258 -1.93748 -0.998592
19.2247 19.9664 21.5811 -0.297176 0.722801 0.524081
24.6588 19.9445 22.5305 0.0762608 -0.929996 -1.45371
22.0487 20.3971 22.7265 -0.133571 -1.1211 -1.00397
21.7138 19.1534 20.1787 0.754721 0.0353151 1.02334
22.8235 17.7589 22.1342 -0.253499 -0.000778988 -1.03265
17.4565 21.7803 20.4938 -0.0962554 0.171258 1.8224
17.105 21.3143 23.0298 -0.756108 0.0513627 -1.02744
19.7256 21.1506 23.7998 -1.73699 -2.04159 -1.13594
18.9359 23.1339 22.2402 0.40049 -1.7658 1.74627
21.0417 21.9099 20.7276 1.47685 0.282027 -0.327987
23.8538 20.905 20.2398 1.13939 0.446244 0.163206
20.7319 24.7491 21.1362 -0.793699 1.37651 0.379808
23.7694 22.4748 22.7596 0.0263083 1.20525 -0.859067
23.0481 23.7101 20.7631 -0.0106621 0.970268 -0.192348
21.4463 23.2066 23.2338 -1.69398 -0.978687 0.152073
ITEM: TIMESTEP
14000
ITEM: NUMBER OF ATOMS
35
ITEM: BOX BOUNDS ss ss ss
1.6559741093917665e+01 2.4722100124953425e+01
1.6650661278037855e+01 2.4843625539590665e+01
1.6061377826433329e+01 2.4105865396426459e+01
ITEM: ATOMS x y z vx vy vz
18.4168 18.2262 16.9943 -0.23315 0.0333361 0.425324
20.6499 17.7852 18.3893 0.350453 -0.110216 0.980242
18.2353 20.6409 16.0873 1.98509 -0.940675 0.262322
18.1677 17.8107 19.5932 -0.988866 -2.37502 -0.12092
16.6897 19.8233 18.5732 0.358823 1.41528 1.26099
19.2298 20.2606 18.7838 -0.135465 1.45846 0.462997
24.4884 18.5472 20.0204 2.92591 0.505208 0.0670991
22.9805 18.9821 17.7655 -0.498836 -0.713894 -0.573792
20.8185 19.7197 16.4173 -1.26503 0.20177 -0.0104204
22.6934 16.8029 19.4756 0.80465 1.23948 0.189702
20.0098 22.2424 17.1888 0.606888 -0.756768 -0.221302
17.3201 22.2034 17.7763 0.0782711 -0.32986 0.0384099
18.9359 23.7078 19.4355 1.81654 0.437627 0.494399
21.5321 23.9639 18.7483 0.0512509 0.379214 1.79926
22.0598 21.2466 18.3024 0.460247 -0.186393 -0.17397
16.6694 19.2646 21.3159 1.32353 0.170222 -0.188013
20.5995 18.3836 23.5843 0.439042 0.0191966 -1.5833
18.4048 17.2032 22.5004 -1.03726 1.44688 0.84288
18.0619 19.1821 24.1451 -0.525452 -0.0876287 -1.15602
20.5059 17.0625 21.1148 1.35682 -1.44079 -0.655072
19.1604 19.575 21.5745 0.464813 1.26019 0.5985
24.6162 19.7522 22.5169 -2.96832 1.18118 -0.123202
22.055 20.3643 22.8774 -0.461218 1.06262 0.795633
21.6478 19.3604 20.2333 -0.787447 -2.29251 -0.704361
22.8018 17.5677 22.1795 -0.13125 -0.679457 0.0710901
17.528 21.6776 20.4321 -1.29973 2.38361 0.590682