ITEM: TIMESTEP
0
ITEM: NUMBER OF ATOMS
35
ITEM: BOX BOUNDS ss ss ss
1.7070590554272339e+01 2.3546883642219530e+01
1.6784531109835935e+01 2.4624132006333056e+01
1.4016684150627027e+01 2.6975463769711272e+01
ITEM: ATOMS x y z vx vy vz
22.3451 18.5356 16.6306 1.89796 -0.782488 -0.633618
20.812 16.7969 15.3062 0.32135 0.551069 -1.33219
21.8548 18.8581 14.0208 -0.289554 -0.144114 1.08063
17.0747 19.2136 16.3647 0.789678 -1.01289 1.42234
19.2847 18.9848 14.6969 0.641873 0.484069 -1.0396
18.3682 16.916 16.3119 -0.618895 -1.50831 -0.0169259
20.4302 16.7886 18.0359 -2.02224 0.357732 -0.409021
19.8256 19.3625 17.4038 1.11438 -0.694296 -1.30369
22.2905 20.8496 18.1365 0.322406 0.0317096 -0.627854
18.5348 21.3661 15.8245 -1.5206 0.992598 -0.971309
19.9822 22.212 17.9416 1.04235 -0.54917 0.348894
21.1956 20.9007 15.5979 -1.69101 0.406346 0.424677
17.773 19.7473 20.949 1.35449 0.260021 1.22548
19.7647 17.6569 20.5937 1.21988 0.0906173 -0.122248
20.3014 20.2714 20.075 0.00167577 0.548442 0.133156
21.8498 18.6631 22.1325 1.20532 -0.3259 -0.363567
17.8445 18.0437 18.7446 -1.58001 -0.930264 -2.30664
22.1719 18.3908 19.3732 -1.86853 -1.31914 1.0693
17.6928 20.8316 18.4607 1.46711 0.355985 0.709807
22.8944 23.0392 22.556 0.963163 -0.0265209 0.415118
18.702 22.4317 20.4988 -0.910288 2.13691 -2.58538
21.4168 22.8362 20.2249 -0.76566 -0.0506066 -0.327694
23.0339 20.741 20.7793 1.19526 0.599422 0.972625
20.1058 23.8213 22.4282 -3.06216 -2.16861 -0.339025
18.8366 20.2867 25.3273 -1.40213 1.22423 0.514834
23.5428 20.4259 23.3881 -1.27802 -0.398216 0.224427
21.3903 19.5767 24.8471 0.439572 -0.689079 0.36992
19.3078 18.9696 23.0251 -2.09738 -0.634321 -0.401023
20.9008 21.2371 22.7101 0.00475921 1.70541 -1.82201
20.7377 21.1914 26.9714 1.75288 0.956785 0.298285
21.3213 23.7726 26.9149 -1.05542 1.16497 0.926637
22.5156 22.1345 25.1626 1.52978 -0.2755 0.673591
18.2081 21.5688 23.0113 2.53358 -0.618214 0.706288
21.7325 24.6201 24.4332 0.241419 0.229465 1.24694
19.782 22.7829 24.9467 0.123008 0.0318588 1.83884
ITEM: TIMESTEP
1000
ITEM: NUMBER OF ATOMS
35
ITEM: BOX BOUNDS ss ss ss
1.7070590554272339e+01 2.3546883642219530e+01
1.6784531109835935e+01 2.4624132006333056e+01
1.4016684150627027e+01 2.6975463769711272e+01
ITEM: ATOMS x y z vx vy vz
22.5462 18.8462 16.5621 -0.47797 0.0905117 -1.42433
20.8362 17.0588 15.3554 -0.532649 0.304137 -1.46267
21.954 19.0951 14.1851 -0.582233 0.801537 -0.282705
17.1155 19.1326 16.4939 -0.381793 -1.8834 -0.163333
19.2588 19.1349 14.7511 -0.382907 0.152243 0.545175
18.5282 17.096 16.6331 -0.314401 -0.120216 0.220674
20.494 16.7867 18.2546 -0.142227 1.11371 0.0191523
19.9664 19.3994 17.4568 1.04072 0.0858326 0.0819876
22.0942 20.9626 18.1915 -0.328247 -0.368531 0.0757355
18.3337 21.3291 15.946 0.223618 -1.00249 0.528976
19.8606 22.225 17.918 0.460533 -0.211049 -0.0304742
21.2 21.1152 15.7504 0.0336675 -0.784273 0.219139
17.561 19.7714 21.0079 1.94451 0.320863 -0.314617
20.0165 17.3472 20.766 1.08882 0.59091 -1.08202
20.0775 20.0358 20.1587 1.2886 2.1525 -0.451504
21.7656 18.6167 22.1174 -3.35846 -1.14994 -0.00245084
18.0672 18.0811 19.0037 0.707801 -1.74443 -0.546709
22.2174 18.4213 19.4146 -2.19172 -0.0617606 0.347808
17.7173 20.9351 18.5358 1.08405 -0.424136 0.0929259
23.0698 22.6845 22.5869 -0.62075 0.0055207 2.328
18.7089 22.5302 20.5231 -0.151467 -0.606663 0.191962
21.3648 22.6327 20.1674 0.140265 -0.0594018 -0.544257
23.0098 20.5839 20.7932 -0.792234 0.319318 -0.295642
20.2114 23.7964 22.3365 -0.559011 -1.321 0.298676
18.8701 20.3121 25.0928 -1.247 0.19098 -2.00513
23.3744 20.1632 23.3663 1.58924 1.4734 0.490669
21.3521 19.3746 24.9018 0.698475 -0.301803 2.53117
19.1933 18.9244 22.9383 -1.09035 1.4736 -0.716285
20.782 21.1934 22.8007 0.0944719 0.909549 -0.243305
20.7694 21.2601 26.7129 1.67147 0.564567 2.13767
21.2147 23.9888 26.3932 -0.071708 -0.556832 -0.708861
22.5085 22.0552 25.0868 -0.478651 -0.32584 0.72909
18.1532 21.5716 22.8355 0.927753 0.81594 -1.2028
21.8958 24.5451 24.0795 -0.0030816 -0.998716 -0.361326
19.7366 22.819 24.7082 0.712854 0.555367 0.999598
ITEM: TIMESTEP
2000
ITEM: NUMBER OF ATOMS
35
ITEM: BOX BOUNDS ss ss ss
1.7070590554272339e+01 2.3546883642219530e+01
1.6784531109835935e+01 2.4624132006333056e+01
1.4016684150627027e+01 2.6975463769711272e+01
ITEM: ATOMS x y z vx vy vz
22.2587 18.6142 16.8422 0.968011 -1.84263 -0.231135
20.7751 16.8748 15.4328 0.2836 0.195087 0.0176803
22.1552 18.6607 14.3409 -1.8043 -0.535859 -1.18543
17.1729 19.2283 16.6208 -0.672735 -0.659779 1.18384
19.351 19.1051 14.9679 -0.297238 1.70396 -1.14061
18.4139 16.9721 16.6338 1.36216 -1.01169 -0.557724
20.5068 16.7811 18.1813 0.4169 1.73129 1.36182
19.8328 19.5361 17.6248 1.36117 1.3973 -0.66626
22.2889 21.0424 18.2405 0.453062 0.155612 0.745235
18.5161 21.5101 16.0151 1.08714 -0.61087 -0.517031
20.0179 22.3522 18.0205 -1.40685 -0.652374 0.130336
21.1484 20.9124 15.7663 -0.510538 -0.116555 -0.085444
17.4484 19.8913 21.0851 0.626785 0.61306 -0.559074
19.8926 17.5243 20.5077 0.112788 -0.245984 -0.149816
20.0464 20.3312 20.1317 0.345943 0.567997 -0.120022
21.9634 18.4712 22.1065 -0.14435 -1.48638 0.610356
17.91 18.0987 18.9505 0.39179 0.736254 0.376549
22.0941 18.4871 19.4567 -1.21791 -1.80367 0.103136
17.7045 20.9168 18.6775 0.868748 1.60873 -0.117384
22.9213 22.9532 22.2895 -1.19291 0.468569 -1.17837
18.8055 22.6588 20.4772 -1.86283 0.0944355 0.599262
21.4317 22.8444 20.1459 1.07817 -1.33963 0.93454
22.9101 20.6908 20.7271 -0.983333 0.784367 -0.295461
20.2523 23.8939 22.2376 1.04064 -0.934727 -0.937964
19.0851 20.0515 25.0041 0.92906 -0.733402 -0.326005
23.5424 20.5163 23.248 1.49788 0.568664 0.484534
21.509 19.551 24.7027 0.538767 0.188932 1.08914
19.3735 18.8901 22.6565 -0.461916 2.28819 -0.232641
20.8599 21.187 22.6726 -1.26604 0.91612 0.642118
20.6379 21.0417 26.6325 -1.15168 -0.815276 1.41009
20.9247 23.5817 26.5799 0.747399 -0.433795 -1.14318
22.465 22.1221 24.9566 0.971213 -0.253397 -1.03927
18.1936 21.4309 22.8615 0.661693 0.216624 0.0624027
21.7235 24.4527 24.3195 -2.40421 -1.01747 -0.0965286
19.6927 22.6488 24.7108 -0.366073 0.2583 0.828321
ITEM: TIMESTEP
3000
ITEM: NUMBER OF ATOMS
35
ITEM: BOX BOUNDS ss ss ss
1.7175954217249775e+01 2.3483523863235213e+01
1.6759850599247631e+01 2.4502340514946578e+01
1.4562870073298104e+01 2.6688383675585769e+01
ITEM: ATOMS x y z vx vy vz
22.577 18.5887 16.8286 0.339181 -0.0538803 0.409738
21.1464 17.027 15.5407 0.844554 0.465944 0.25636
21.097 19.6149 14.6833 -1.27878 0.787136 1.28748
17.0617 19.394 16.5845 -0.636397 0.243522 1.29869
18.8253 18.6183 14.82 -0.103082 0.045871 -1.29654
18.6165 16.741 16.5639 1.31961 0.216303 1.80705
20.542 16.8135 18.1815 -0.206262 0.542814 -0.940902
19.9903 19.4083 17.2965 0.111978 0.172853 -0.201463
22.239 20.8509 18.2442 0.379264 -0.629629 -0.55706
18.8123 21.2439 15.7642 -0.34827 0.913864 0.109149
19.7985 22.2808 17.9974 0.269089 -1.16291 -0.935054
21.3626 21.6477 15.9372 0.1661 1.8991 0.810061
17.7431 20.8829 18.5209 -0.0634753 -0.565524 -0.598835
17.7315 19.738 21.0622 0.864598 0.204815 -0.00264456
19.8213 17.7146 20.6971 -0.303418 -1.35792 0.530415
20.1653 20.2323 19.9764 0.195116 0.348491 1.10306
21.767 18.5758 22.2291 0.350751 0.18136 0.0254289
18.2085 18.0223 18.7945 -1.15536 0.902797 0.99433
22.2008 18.2786 19.5833 0.183761 -1.45108 0.669688
22.8849 22.8219 22.3675 0.420433 -0.450313 -1.82038
18.8691 22.4164 20.6161 0.190562 2.30218 -0.386169
21.7134 22.8725 19.8729 1.13691 -1.20217 -1.10518
22.9175 20.7305 20.7515 0.149393 0.450301 -0.324406
20.4485 23.8503 22.136 -0.556808 0.0182021 -1.09007
20.7663 21.0291 22.5596 -0.174088 2.39915 -0.632061
18.7906 20.2469 25.1695 -0.939767 0.737749 -0.840697
23.5484 20.2633 23.2407 0.676784 0.590993 0.323946
21.272 19.5306 24.7073 -0.385474 -0.629475 0.366622
19.1604 18.8922 23.173 -0.809657 -1.52079 1.08411
20.4874 21.2784 26.7301 0.567805 -1.01791 1.0497
21.2869 23.5072 26.5923 -0.396935 1.32442 0.768675
22.368 21.9214 24.8784 -0.126427 -1.69596 0.370854
18.1027 21.4742 22.8855 -0.512842 -2.43181 -0.48152
21.8171 24.4863 24.2292 0.56228 0.580142 -1.11935
19.6855 22.8301 24.6099 -0.731121 -1.15863 -0.93303
ITEM: TIMESTEP
4000
ITEM: NUMBER OF ATOMS
35
ITEM: BOX BOUNDS ss ss ss
1.7175954217249775e+01 2.3483523863235213e+01
1.6759850599247631e+01 2.4502340514946578e+01
1.4562870073298104e+01 2.6688383675585769e+01
ITEM: ATOMS x y z vx vy vz
22.5836 18.0328 17.1277 0.927679 0.639805 0.636115
20.9235 17.299 15.289 -0.500524 -1.00207 2.04114
21.5494 19.6573 15.2908 0.4597 -0.153504 0.842646
17.2216 19.3185 16.4192 1.00057 0.311961 0.271404
19.1076 18.963 14.5198 -0.510252 0.43208 0.25998
18.4005 16.9425 16.2882 0.23461 -0.451243 -0.504508
20.4065 16.5847 18.0951 -0.187589 0.429113 0.881159
19.9739 19.2419 17.5302 0.129719 1.65316 0.330148
22.238 20.7381 18.1111 -1.42183 0.963477 -0.610198
19.0334 21.1004 15.8335 1.23314 0.315612 -1.29734
19.7843 22.1963 18.0582 0.356531 0.192663 1.1737
21.5014 22.0389 16.0114 0.770669 -0.151582 -1.03514
17.7461 20.7718 18.5756 -0.0660567 -3.04496 -0.0752781
17.6035 19.5103 21.0736 -0.568452 0.249641 0.783434
19.53 17.4966 20.5733 -0.841135 -0.01554 -0.0943987
20.142 20.1366 20.2752 0.108859 1.40007 0.382478
21.6417 18.4581 22.1924 -1.79756 -0.247624 -0.597186
17.9055 18.1633 18.7074 -0.591931 0.552571 0.417358
21.9881 18.1189 19.6443 0.248145 -0.189624 0.0669918
22.8001 23.1089 22.2199 -0.824682 -0.739747 0.153271
18.5829 22.5334 20.4341 -1.70823 -0.499832 0.424258
21.3681 22.6491 20.0825 0.0578405 0.613092 -1.51823
22.9775 20.588 20.6352 1.88917 0.711899 -0.75191
19.993 23.7728 22.2436 -0.105798 -0.468909 1.18989
20.9108 21.1557 22.7939 0.0350823 -0.684168 0.0797254
19.2102 20.2933 25.1166 -1.50439 0.33201 -1.05502
23.5272 20.4393 23.019 1.23926 -1.90869 -0.713837
21.713 19.4954 24.67 1.17846 0.587945 -0.150669
19.3141 18.8886 23.0774 -0.658874 0.389882 -0.652586
20.7111 21.2823 26.7482 1.73358 -1.01282 -0.315333
21.2762 23.8239 26.6524 -1.31772 0.248667 -0.396837
22.4332 22.0946 24.7989 0.746405 -0.477969 -0.709829
18.1599 21.3432 22.7355 -0.224245 0.238308 0.21626
21.7568 24.6053 24.2504 -0.084105 1.37124 0.392288
19.8103 22.9821 24.7313 0.563947 -0.584923 -0.0639396
ITEM: TIMESTEP
5000
ITEM: NUMBER OF ATOMS
35
ITEM: BOX BOUNDS ss ss ss
1.7282440489297819e+01 2.3510790894013237e+01
1.6671818315154155e+01 2.4320083146376643e+01
1.4681243709353623e+01 2.6619855216953237e+01
ITEM: ATOMS x y z vx vy vz
22.9233 18.4527 17.0926 -0.0654473 -0.19328 0.817925
21.1675 17.2644 15.6832 -0.93071 -0.274411 -0.993778
21.6138 19.7109 15.2128 0.0195212 0.368781 -0.193018
17.1294 19.043 16.5841 -0.964558 0.345048 0.685826
19.1014 18.931 14.6593 0.249484 1.04393 0.0704652
18.6427 16.9072 16.2845 -0.707308 0.557287 -0.556427
20.4991 16.8371 18.3607 1.32783 -1.34775 -0.144623
19.9461 19.3593 17.2959 -0.233109 0.831907 0.586618
22.1154 20.9664 17.8868 -1.06381 0.184116 0.655917
18.7486 21.178 15.9912 -1.32874 -0.856302 0.0460287
19.9027 22.3695 18.0447 0.941489 -0.0469822 -0.16253
21.1386 22.1169 15.7091 -0.629281 -0.607011 -0.368963
17.6946 20.549 18.6326 0.743845 -0.226685 -0.107852
17.5411 19.5316 21.0028 -0.0287218 -1.82248 1.44719
19.6869 17.5533 20.7322 -0.203129 1.59291 0.327355
20.0432 20.2006 20.0583 0.726871 -0.815947 0.702315
21.5454 18.6258 22.1997 -0.437364 0.0294704 -0.573653
17.9814 17.7887 18.7449 0.341797 -0.132725 -1.39574
22.0879 18.2936 19.6486 1.56237 0.594296 0.354849
23.2038 22.6296 22.3414 -1.84886 -0.225884 0.720714
18.6556 22.5201 20.4485 1.60585 0.0606283 -1.00129
21.4318 22.7516 20.1686 0.245593 1.39829 -1.27955
22.8272 20.5591 20.6832 -0.351175 -0.767101 2.09184
19.9936 23.7879 22.151 0.130946 1.32879 -1.01676
18.8256 20.4238 25.1601 0.446345 0.273105 -0.719246
23.4047 20.1371 23.2262 -0.392514 -0.107984 0.612679
21.3006 19.4809 24.6765 -0.586539 -1.63838 1.40662
19.0397 19.0203 22.9777 -0.0851648 0.254374 -0.813799
20.8539 21.2755 22.6234 0.139665 1.39395 -0.627788
20.6896 21.2662 26.5682 -1.06126 -1.40983 0.190158
21.7364 23.7732 26.4475 -0.46374 1.07635 -1.46047
22.5311 21.752 24.9679 1.26 0.0364487 0.148277
17.966 21.5117 22.9062 0.14941 -1.5108 0.296236
22.0168 24.3277 24.0281 0.83639 -0.226833 0.312012
19.8394 22.9294 24.6268 0.654021 0.840712 -0.0575303
ITEM: TIMESTEP
6000
ITEM: NUMBER OF ATOMS
35
ITEM: BOX BOUNDS ss ss ss
1.7146620197771576e+01 2.3432988566497578e+01
1.6738580824181010e+01 2.4581498216633776e+01
1.4805412984849429e+01 2.6748802049151269e+01
ITEM: ATOMS x y z vx vy vz
22.3967 17.7611 17.2285 0.093131 0.17176 0.934945
20.6558 17.1557 15.3894 -1.67762 -0.45504 0.717706
22.0131 19.4909 15.3264 0.0974763 0.327177 0.150685
17.1041 19.6113 16.4501 1.50794 -0.667829 -0.00190507
19.2058 19.3708 14.6926 -0.226451 -0.235687 -0.0751887
18.2735 17.3872 16.2484 -0.297829 -0.351973 0.20864
20.2665 16.8161 18.1217 0.76089 -0.226354 0.368168
19.9641 19.4879 17.3159 0.27785 -0.469424 1.09402
17.9275 20.8673 18.411 -0.133016 -0.103841 -2.08343
17.9594 18.0395 18.8565 -0.880788 -0.601638 -0.310433
22.3727 20.4799 17.9274 -0.383908 0.651797 -1.40197
18.5737 21.6559 15.8324 1.47012 0.484346 -0.771398
20.3223 22.1231 17.9748 1.2544 1.20822 -0.248684
20.8918 21.5697 15.3162 -0.935292 0.459223 0.998602
18.0101 19.3633 21.0929 1.25402 -1.14539 0.546579
19.7774 17.2613 20.7225 1.41035 0.942318 -0.285331
20.4329 19.9532 20.0262 -0.248975 1.46407 1.35712
21.8029 18.5779 22.2131 -0.485237 -0.102095 -0.622502
22.2518 17.9611 19.6677 -0.293156 -0.322434 0.381345
22.9577 20.622 20.676 -0.917964 0.123482 1.17108
22.7705 23.0408 22.28 -0.0436692 -0.510737 -0.164503
18.7732 22.2187 20.599 0.0700407 0.399716 -0.33968
21.47 22.7308 20.0735 -1.31443 0.178327 0.84623
20.0132 23.9424 22.2559 -0.134217 1.26156 -1.21707
20.7362 21.2272 22.5898 1.93773 -0.821099 -0.804747
18.9255 20.3693 25.2677 0.314726 -0.916234 -0.596838
23.3764 20.5179 23.1573 -2.19295 -0.597546 -0.554217
21.41 19.6457 24.859 -0.613088 0.454781 0.595911
19.5644 18.7906 23.1761 -1.78417 -0.201218 0.269238
20.9062 21.3781 26.8666 1.03613 -0.36778 -3.03462
21.0736 23.7619 26.5295 0.807786 -0.535182 0.334298
22.3643 22.139 24.8684 0.635802 0.872578 -0.241776
18.0204 21.1819 23.0312 -0.966683 -1.17741 0.23936
21.6484 24.5915 24.1791 0.814324 0.753856 0.591843
19.6129 22.734 24.6023 -0.213258 0.0557023 1.94853
ITEM: TIMESTEP
7000
ITEM: NUMBER OF ATOMS
35
ITEM: BOX BOUNDS ss ss ss
1.7146620197771576e+01 2.3432988566497578e+01
1.6738580824181010e+01 2.4581498216633776e+01
1.4805412984849429e+01 2.6748802049151269e+01
ITEM: ATOMS x y z vx vy vz
22.8743 18.4389 17.3378 0.697431 0.686903 0.20119
21.0841 17.1646 15.6781 1.31881 -0.307235 0.02562
21.8779 19.4326 15.1698 1.05026 -0.900453 2.10829
17.0643 18.9815 16.5065 0.937188 -0.0809011 -0.549643
19.3417 19.2027 14.6194 -1.67188 0.715901 -0.358006
18.5706 17.0719 16.1548 -1.22177 0.411799 0.787918
20.5441 16.9281 18.1413 0.0111963 1.56367 0.482377
20.0404 19.4797 17.2485 -0.281717 -1.79641 -0.465329
17.6387 20.7561 18.4479 0.579494 0.664569 -0.952006
18.1875 17.907 18.7152 -1.13228 0.717163 -0.436998
22.0293 20.9967 18.0951 0.149366 1.41746 -0.160291
18.1165 21.1459 15.9291 -0.498059 -0.032602 1.77131
19.8748 22.3283 17.9337 0.0631243 -0.523659 0.0305511
20.6189 21.583 15.5361 -0.718148 0.545012 0.659522
17.6463 19.6673 20.8512 -0.75637 -1.10177 1.49805
19.7557 17.521 20.8493 0.102847 0.262371 -0.0952269
20.0811 20.1429 20.0583 1.1126 0.282457 -0.974912
21.7082 18.6383 22.3247 0.438879 -1.19476 -0.987816
22.0184 18.2175 19.7822 -0.250832 0.816725 -0.221737
22.8383 20.6096 20.8721 1.0469 -0.790399 0.0590209
23.0735 22.7197 22.3451 -0.0150371 -0.638834 0.470346
18.6157 22.4166 20.2415 1.14172 1.12776 -0.506058
21.4323 22.7081 20.1876 0.0574328 -0.877834 -1.72423
20.0628 23.7677 22.3232 -0.638131 1.02461 0.45585
20.7964 21.3064 22.9038 -0.274227 -1.87783 0.999756
18.7502 20.6114 24.9369 1.36879 -2.10346 -0.977751
23.5414 20.1411 23.3035 -0.473457 0.227403 0.925104
21.3208 19.4074 24.8027 -0.351158 0.738743 0.0448152
19.2135 19.0532 22.8314 0.836046 1.1985 1.87534
20.6293 21.1659 26.5995 -1.12186 0.902483 -0.694537
21.62 23.6746 26.4007 0.593096 1.27376 -1.21123
22.799 21.8187 25.0853 -0.371458 -1.45651 -1.46612
18.1547 21.6921 22.6513 -1.88402 -1.1891 -0.639108
22.1443 24.194 24.1 -0.470907 -0.157158 0.781622
19.7603 22.9346 24.8614 0.626111 0.451606 -0.75567
ITEM: TIMESTEP
8000
ITEM: NUMBER OF ATOMS
35
ITEM: BOX BOUNDS ss ss ss
1.7146620197771576e+01 2.3432988566497578e+01
1.6738580824181010e+01 2.4581498216633776e+01
1.4805412984849429e+01 2.6748802049151269e+01
ITEM: ATOMS x y z vx vy vz
22.3927 17.9357 17.049 1.39804 0.92881 0.478955
20.791 17.179 15.1189 0.998919 -0.962984 -0.191847
22.1742 19.4956 15.286 0.208497 -1.83231 -0.289043
17.2414 19.5069 16.4466 -1.39058 0.33399 0.389373
19.4081 19.4729 14.6399 0.732302 -0.0166778 0.894062
18.4389 17.2446 16.1114 -0.269907 -0.821117 1.44516
20.2264 16.692 18.02 -0.397625 1.69116 1.00138
19.8949 19.2333 17.2172 -0.666811 0.471894 -0.887247
17.807 20.8087 18.6344 -1.3655 0.257476 0.766642
17.9703 18.0242 18.8628 -1.33631 -1.35847 0.0752268
22.1998 20.3927 18.0361 -0.20968 1.74667 -1.14195
18.5428 21.6504 16.0122 -0.421461 0.835527 -0.543698
19.9726 22.223 18.2448 1.97954 -0.471326 -0.89035
20.9858 21.5463 15.7984 0.347644 -0.334449 -0.100193
17.7612 19.4201 21.0019 -0.533905 1.32942 -1.0123
19.7368 17.3262 20.5988 1.92139 -0.227131 -2.22933
20.2475 19.9383 20.0334 -0.975705 0.200072 -0.223148
21.8013 18.4023 22.2401 -0.129678 -0.0956787 -0.127902
22.2014 18.1071 19.6788 -1.44121 -0.247445 0.322481
23.0217 20.5908 20.7908 -0.294397 0.302878 -0.308834
22.901 22.9021 22.4602 0.436814 1.32307 -0.502297
18.5202 22.1476 20.781 -0.50644 0.661463 0.293003
21.405 22.5265 20.2434 2.14361 0.351119 -0.629454
20.0447 23.9417 22.0641 -1.23045 -1.42448 -0.68127
20.7344 21.2353 22.5895 -0.0255892 -1.92537 0.509061
19.0077 20.4125 25.2382 1.74273 -0.485421 1.23976
23.5418 20.3567 23.2355 -0.638291 0.213744 -0.934149
21.5732 19.7781 24.8194 0.571828 -0.0779624 0.841504
19.3698 18.8053 22.8816 -0.177951 0.194694 0.539185
20.7556 21.5208 26.7302 -2.38802 0.467113 -0.0153637
21.2303 23.9446 26.505 0.157717 0.508279 0.46922
22.5327 22.2387 24.92 -0.971995 -2.3213 -0.0697086
17.9986 21.2112 23.0038 1.47755 -1.48651 -1.10641
21.738 24.6715 23.9901 1.04682 1.90908 1.03932
19.656 22.9424 24.5414 0.208103 0.362173 1.58017
ITEM: TIMESTEP
9000
ITEM: NUMBER OF ATOMS
35
ITEM: BOX BOUNDS ss ss ss
1.7146620197771576e+01 2.3432988566497578e+01
1.6738580824181010e+01 2.4581498216633776e+01
1.4805412984849429e+01 2.6748802049151269e+01
ITEM: ATOMS x y z vx vy vz
22.6693 18.1655 17.1737 0.156667 -0.387448 -1.6696
21.0087 17.1492 15.4694 0.979371 0.636551 1.77128
21.8738 19.4359 14.9183 0.498816 -0.429391 0.285847
17.0921 18.9298 16.4065 -0.047266 -0.402826 -1.01512
19.1628 19.0403 14.7013 -1.01898 0.340896 -1.23151
18.6584 16.8553 16.5557 -0.389549 1.09683 0.0153858
20.6431 16.8768 18.3084 -0.311248 -1.30509 1.6701
20.0416 19.3157 17.1363 0.56534 0.15528 -0.223876
17.6177 20.7858 18.57 -0.258806 0.226609 0.444662
18.2412 18.0636 18.7402 -0.221718 -1.07856 0.20541
22.2315 20.8277 18.0794 0.876941 0.130562 2.80652
18.249 21.1843 16.0154 0.484188 0.61837 0.0906046
19.885 22.1917 17.9656 -0.134164 -0.548378 1.06204
20.9674 21.5736 15.6723 -0.502646 -0.361992 -0.235492
17.6503 19.9006 20.9429 0.511072 0.916028 -0.0128523
19.6843 17.3893 20.7153 -0.157618 -1.6458 0.0612495
20.1194 20.0558 20.0811 -1.09048 0.928867 -1.41796
21.6933 18.5628 22.2284 -1.12647 1.04902 -2.05695
22.4229 18.3903 19.6897 -0.512051 -0.0546998 -0.769506
22.7917 20.7916 20.6846 0.0585496 0.399641 -0.619136
22.8601 23.0387 22.2385 0.462091 0.937661 0.35664
18.8004 22.5788 20.4705 -0.501973 -0.495639 1.0975
21.419 22.7977 19.8745 0.864132 -0.367842 -2.97251
20.458 23.9077 22.1692 -1.59126 0.858135 -0.522893
20.762 21.3 22.6259 0.322215 -1.0887 -1.0853
19.1146 20.7677 25.2041 0.156655 -0.41749 -0.187099
23.373 20.2678 23.1968 1.74363 -0.563097 -0.545903
21.1759 19.266 24.7024 -0.276374 -0.921353 0.522973
18.9457 19.2562 22.9607 0.905801 1.80986 1.45088
20.95 20.6488 26.9056 -0.630336 1.11996 -0.104815
21.1299 23.2809 26.6806 -1.09901 -0.330064 -0.480789
22.2682 21.8058 24.9046 0.013911 -0.810787 0.0613054
18.1967 21.8382 22.8397 0.741499 -1.67384 0.58329
21.9861 24.3103 24.3303 0.244175 0.377808 2.24023
19.682 23.2749 24.6671 0.284893 1.28092 0.425403
ITEM: TIMESTEP
10000
ITEM: NUMBER OF ATOMS
35
ITEM: BOX BOUNDS ss ss ss
1.7166830787204759e+01 2.3454841575585849e+01
1.6813287862216111e+01 2.4571354788429634e+01
1.4766104010723090e+01 2.6946507890090892e+01
ITEM: ATOMS x y z vx vy vz
22.4246 17.9461 16.9608 -1.00176 -0.705166 -0.726104
20.6309 17.0272 15.348 0.856879 1.60336 -0.19479
21.8696 19.3556 15.1411 -0.158318 0.338053 0.549873
17.1619 19.5002 16.4482 0.44328 -0.761649 -1.96213
19.2058 19.3933 14.7489 -0.737756 -0.702116 0.591929
18.4455 17.3351 16.3786 -1.15526 0.265562 -0.348081
20.3065 16.8776 18.3347 -0.482596 0.754082 1.01421
19.9505 19.3767 17.3753 0.761436 -0.407725 0.63808
18.0559 18.0731 18.8802 0.394002 -0.868377 0.423383
17.6869 20.8107 18.6344 -0.632979 0.105854 2.21815
22.3584 20.4849 18.1898 -0.92195 -1.64413 -0.994169
18.5984 21.631 16.0869 1.23493 -0.3218 1.90317
19.9308 22.1316 18.2826 -0.595344 0.307053 0.371254
21.0407 21.5483 15.9374 0.116009 1.6753 0.9904
17.7061 19.5295 20.9326 -0.0300443 -0.966997 -0.942677
19.8286 17.3123 20.8475 1.63747 0.385625 -1.22606
20.1483 19.9599 20.0728 0.401317 1.88243 0.978456
21.854 18.6749 22.1022 0.00589484 -0.887149 -0.393113
22.3775 18.0806 19.6432 0.883052 -0.338063 -1.68529
22.7967 20.6771 20.6693 0.182913 -1.04925 0.0471326
22.8539 22.916 22.5551 0.145768 -0.709163 -1.75491
18.9008 22.3509 20.9422 -0.973667 -0.458311 0.878843
21.8034 22.8094 19.9472 -0.193652 -1.40381 -0.236612
20.6171 24.2394 21.6857 0.0583539 1.57547 -0.26243
20.8939 21.1782 22.7729 0.875553 0.223561 -0.0498848
23.5953 20.4584 23.2264 0.684756 -0.0151135 0.910287
21.7455 19.3505 24.8681 -0.025187 1.53535 1.68295
19.2136 18.9572 23.0294 -0.485298 0.216071 -0.929771
21.5215 21.0366 27.0083 -2.2581 -1.07964 -1.63277
19.5781 20.9042 25.0971 0.713893 0.554407 0.0403757
20.2711 23.2303 26.0988 -0.674178 1.7518 -1.08594
22.3918 22.0679 24.9963 -0.0517855 -0.2728 1.52371
17.5814 21.0816 22.8946 -0.571993 -0.196042 0.307168
21.3811 24.3565 24.0936 1.14139 0.410067 0.285232
19.0992 23.162 23.5944 0.412974 -0.796755 -0.929868
ITEM: TIMESTEP
11000
ITEM: NUMBER OF ATOMS
35
ITEM: BOX BOUNDS ss ss ss
1.6986144533228291e+01 2.3536545695223065e+01
1.6776530569946985e+01 2.4109380575856598e+01
1.4916223173920098e+01 2.6913523463323607e+01
ITEM: ATOMS x y z vx vy vz
22.8182 18.0046 17.1491 -0.520886 0.326803 0.744756
20.7915 17.4365 15.4337 0.923113 -0.0629037 0.10037
21.9576 19.7576 15.4076 1.27377 0.375779 -0.409279
17.2372 19.4787 16.6294 -0.40582 0.26062 -1.9762
19.2011 19.7078 14.9528 0.22392 -1.29302 0.199414
18.3895 17.2425 16.3937 -1.50329 0.0855523 0.464916
20.4577 16.8981 18.0355 -1.67344 0.363302 -1.26334
19.9513 19.4643 17.4392 -0.202605 0.184858 -1.09008
17.9712 17.9523 18.798 0.13696 -0.318578 1.62014
17.7964 20.5324 18.9784 0.50019 1.63964 0.310943
22.4752 20.6585 18.0506 -0.103977 -1.76959 -0.742863
18.4492 21.7241 16.4564 1.00335 -0.713068 -1.64436
19.9551 22.3745 18.4767 0.297204 -0.09365 1.92455
20.9635 21.8982 16.0434 2.36342 1.33507 0.564875
17.8572 19.31 21.3134 0.838603 -0.527779 -0.132981
19.7253 17.4383 20.6946 0.964633 -0.0856929 1.24763
20.1998 20.1405 20.1754 1.66401 -0.909911 1.74175
21.7826 18.4136 22.3028 0.543271 0.418392 -1.10433
22.1054 18.2481 19.6522 -1.47241 0.970262 -0.80471
22.8136 20.5195 20.8181 0.35881 0.665565 0.486242
23.2586 22.7424 22.2501 -1.37601 -1.64035 -1.36789
18.4027 22.1271 21.123 -1.19107 0.939865 -0.664434
22.6265 22.7236 19.5092 1.03294 2.71066 -2.03922
20.6444 23.249 21.0169 -1.22632 -2.27513 0.201026
20.7757 21.1043 22.7589 -1.38031 0.0440789 1.39017
17.4336 21.0624 23.2315 -0.860918 -0.411529 2.52832
23.5282 20.0403 23.395 -1.79051 0.107643 0.543819
21.4216 19.4581 24.9777 0.232958 -0.469312 -1.80493
19.3108 18.9614 23.2554 -0.697578 1.06322 -0.346551
21.1947 21.2512 26.7724 -1.11243 0.786314 -0.0256279
19.2259 21.119 25.1367 1.49605 -0.896519 3.47944
20.3974 23.4273 25.6443 1.05342 -0.656637 -0.562886
22.3878 22.0483 24.6895 0.127547 1.48975 -0.358941
21.352 24.0638 23.3541 -0.776706 0.60832 -1.62767
18.9664 23.2467 23.5094 1.26012 -2.25202 0.417911
ITEM: TIMESTEP
12000
ITEM: NUMBER OF ATOMS
35
ITEM: BOX BOUNDS ss ss ss
1.7380732239592621e+01 2.3754154690264357e+01
1.6793581256969148e+01 2.4240498002252952e+01
1.4713710251602652e+01 2.6773172614407514e+01
ITEM: ATOMS x y z vx vy vz
22.5811 17.7812 17.2012 -0.616673 -1.39889 0.384805
20.4572 17.214 15.6135 0.760497 -0.249091 0.514366
21.7306 19.9354 15.5207 -1.18615 2.0647 -1.29559
17.5321 19.7717 16.6399 1.12049 0.559511 -0.337623
19.3669 19.2585 14.7296 -1.13252 -0.05611 1.38913
18.117 17.4043 16.494 0.618453 -1.10673 0.861997
20.1523 16.4905 18.3768 -0.106491 0.184271 0.523144
20.1147 19.1613 17.5998 0.815658 -1.791 -0.621282
22.6146 20.5671 17.9832 -1.90477 1.82449 -0.289227
19.5388 21.4269 16.1896 0.513494 0.876171 2.5223
20.2213 21.9383 18.6848 1.85345 -1.31175 2.06805
22.0525 22.7179 16.8493 0.123459 0.645504 -1.05616
17.8722 18.0741 18.8961 0.371043 -0.0214675 -1.36803
17.7132 20.779 18.8308 1.16496 0.815572 -0.924103
17.2706 19.2018 21.2178 0.837404 -0.825113 0.281472
19.4729 17.2797 20.7956 -0.161898 -1.38165 0.698894
19.743 19.8026 20.5259 -0.996543 -1.0815 -0.992138
21.6746 18.6042 22.111 -1.77698 0.312218 -0.0452368
21.8912 18.1071 19.6189 -0.416873 1.54253 0.395407
22.3291 21.0484 20.49 1.07921 2.12825 -1.87802
23.0623 23.1735 22.0042 0.0557896 -1.65264 -0.565416
18.2915 22.0145 21.0457 0.0591436 -1.23412 -1.4392
22.527 23.3898 19.3925 -0.0423847 0.420674 -1.30805
20.4905 23.3971 20.9739 -0.329841 0.121484 -0.0370709
20.6407 21.3458 22.9195 0.211047 -0.740488 0.726361
17.7044 20.868 23.2878 0.0697696 0.976129 1.12917
23.5766 20.7214 22.9675 -0.0826347 1.03647 0.879044
21.7988 19.3771 24.7071 -2.25926 -0.0649241 -1.54381
19.3743 18.7196 23.3146 0.583533 -0.00560905 1.33288
21.4271 20.7968 26.5419 -0.471358 0.515717 -0.497615
19.3636 20.703 25.2259 -0.219698 0.251557 0.0955891
20.314 23.0355 25.4845 -0.583355 -0.283772 -0.244327
22.7407 22.1536 24.6957 0.394332 -0.202349 -0.349345
21.265 24.1901 23.5674 1.37365 -1.74485 1.06635
18.8026 23.3751 23.3282 0.282046 0.87681 -0.0767031
ITEM: TIMESTEP
13000
ITEM: NUMBER OF ATOMS
35
ITEM: BOX BOUNDS ss ss ss
1.7136383922398320e+01 2.3637863472607975e+01
1.6697378341748237e+01 2.4152745941899219e+01
1.4853637073077248e+01 2.6713994924309869e+01
ITEM: ATOMS x y z vx vy vz
22.4289 18.1875 16.7798 -1.71805 0.46908 0.0624549
20.5656 17.1723 15.4175 -1.23242 -0.283277 0.316169
21.3789 20.2464 15.387 1.7577 0.377504 1.14825
17.2013 19.1947 16.7841 2.33732 -0.122469 0.593806
19.1039 19.1882 14.9419 0.706454 -1.4858 -0.882916
18.3367 17.0968 16.5565 -2.39118 0.82899 1.2308
20.4978 16.699 18.2843 0.529359 -0.484229 0.902163
19.8806 19.3155 17.7289 0.608255 -0.353241 1.79655
22.4468 20.6451 17.9281 0.947811 0.253321 -0.461455
19.1614 21.4026 16.2118 1.07637 0.846973 0.185221
19.791 22.4653 18.5888 -2.18292 0.998286 0.731817
21.5176 22.5661 16.6968 0.394087 0.845758 0.270227
17.7714 20.668 18.6941 -0.207362 0.470655 1.48704
18.0921 17.9252 19.1282 -1.24651 -1.0881 -0.514217
17.3773 19.6962 21.2339 1.9521 0.872752 1.51163
19.972 17.5546 20.9995 -0.16885 1.13482 0.0846774
20.0272 20.224 20.4988 -0.111557 1.2097 -0.792129
21.9548 18.5916 22.259 0.469845 -0.0554298 -1.10935
21.9487 18.4599 19.5596 0.233469 -0.466046 -0.426701
22.936 20.7385 20.7201 -0.00768434 -1.46755 -0.46164
23.1892 22.8249 22.3162 -1.18046 0.585311 -0.128455
18.3048 22.3458 20.7541 1.78592 1.20156 -0.718752
22.5002 22.9864 19.1527 0.081337 0.942418 -2.3782
20.9064 22.9769 21.1749 0.593432 -1.13566 -0.321854
21.01 21.12 23.1911 -0.373162 0.683825 0.0895573
18.2196 21.3853 23.1643 1.28226 -1.21863 -0.991007
23.458 20.2877 23.5747 0.0984663 0.605327 -0.445867
21.3927 19.0773 25.0336 -0.794426 -0.74859 1.12848
19.2936 18.87 22.9287 0.411416 -0.576639 -0.4091
21.1267 20.8952 26.4899 -0.466007 1.0698 -2.1871
19.0093 20.0149 25.3195 -0.880233 -1.37929 0.499441
19.6016 22.6223 24.9097 -1.62067 -1.57591 0.604271
22.6877 22.3045 25.0524 0.595317 -0.84904 0.506886
21.5039 24.1601 23.6348 -0.318877 0.868896 -0.771935
19.2312 23.9161 22.7296 -0.960554 -0.975076 -0.148764
ITEM: TIMESTEP
14000
ITEM: NUMBER OF ATOMS
35
ITEM: BOX BOUNDS ss ss ss
1.7222959300942378e+01 2.3844438052897509e+01
1.6349306661784578e+01 2.4177844544040791e+01
1.4712695039673259e+01 2.7093776400058978e+01
ITEM: ATOMS x y z vx vy vz
22.3272 17.7857 17.3345 0.213883 -0.370823 0.709518
20.9007 17.2088 15.4253 0.278951 -1.71981 0.14487
21.569 20.0798 15.7144 0.328372 -1.9637 -1.22342
17.3461 19.4529 16.467 -2.40932 0.698742 -1.11961
19.4177 19.2258 14.7274 1.52209 -0.154556 0.111577
18.4453 17.1182 16.2396 -0.150497 1.93857 0.278652
20.0736 16.2939 17.9798 -1.06669 -0.312083 0.0154618
19.7245 19.1064 17.6222 1.09364 1.03776 0.703442
17.2542 18.3598 18.6987 0.758382 0.849625 -1.3322
22.0555 20.3575 18.3099 -2.00693 0.761806 1.28739
19.229 21.4492 16.0921 -1.47971 0.685168 0.907793
19.9679 22.3164 18.5682 0.255536 -0.456191 -0.583648
21.7364 22.5313 16.65 -0.587621 1.7818 0.908141
17.8012 20.9391 18.7526 -0.0346952 -0.806986 -0.23747
17.5732 19.573 21.257 1.12635 -1.15291 -0.0282364
19.2394 17.6724 20.2114 -0.418799 0.454759 1.12549
22.181 18.8796 22.5333 1.21604 0.548532 0.0725068
21.7696 18.1558 19.8474 0.240789 1.0245 -0.428863
19.5242 18.7515 22.9405 -0.922283 0.411676 0.300761
20.1091 20.2534 20.4559 1.73119 -1.01373 0.31424
22.894 20.5642 20.7695 0.676786 -0.782347 -0.280502
23.1224 22.9161 22.0175 0.107701 0.471395 -1.94744
18.3778 22.1719 21.2214 0.823131 0.278846 -0.278957
22.468 22.7262 19.2788 -0.031583 0.32486 0.566751
20.5313 23.4056 20.94 -0.167383 -0.30625 0.82468
20.7883 21.5527 22.9882 -0.363625 -2.05071 1.39777
21.996 19.867 24.8406 1.77739 -0.466878 0.603836