ITEM: TIMESTEP
0
ITEM: NUMBER OF ATOMS
35
ITEM: BOX BOUNDS ss ss ss
1.6136138057324590e+01 2.4119234985593501e+01
1.7363035638730775e+01 2.4925150815578480e+01
1.5862199360343343e+01 2.4991502355821762e+01
ITEM: ATOMS x y z vx vy vz
18.2093 19.7508 17.6112 1.25872 1.20129 0.263455
18.0303 17.3941 18.9802 -1.3806 1.28805 0.738661
16.1402 19.3556 19.3271 1.06929 -0.888192 1.08386
18.8257 19.6743 20.3291 1.04118 0.42763 -1.15076
20.2287 17.8695 17.3373 1.09793 0.320876 -0.291866
24.1152 20.2349 17.8017 -1.79147 1.58166 0.385685
21.2389 20.0365 18.6722 1.64451 0.573215 0.456847
20.5625 17.4472 20.022 0.188999 -0.293812 1.02685
22.4376 19.0008 16.2149 1.19858 0.767573 1.0901
23.9275 19.7205 20.4147 -1.54216 -0.792246 -2.49498
20.1659 20.2552 15.8663 -0.11956 0.429026 1.72767
22.8932 17.8549 18.643 1.33213 -0.571717 -1.48312
18.5345 24.1882 19.2304 -0.180039 1.76449 -1.54129
19.6007 22.1705 17.7333 0.960428 -0.200644 -0.100606
17.3368 21.8019 19.3434 0.0225398 -0.622688 0.545703
21.2102 24.1492 18.7734 2.06677 -0.82038 -0.193644
23.0025 22.1537 19.3995 -0.466828 -1.37613 -0.00286411
22.1656 21.8299 16.7995 -3.04792 -1.85434 -0.319471
17.2271 19.0041 23.8151 1.2751 0.138635 0.916218
16.8694 17.8769 21.4071 0.0457036 0.441075 -0.0461369
19.6191 18.9904 24.9874 -1.50906 -0.804977 0.385412
19.3493 17.8899 22.4986 0.929966 -0.259178 0.406374
16.6102 20.6217 21.7365 0.520322 -0.224974 -0.472132
19.1462 20.7581 22.9465 2.35057 -0.643957 0.524526
23.8351 19.3138 23.0996 -1.08729 0.860696 -1.19399
22.9366 17.3671 21.3847 -0.599327 -0.140065 -0.473236
21.6539 20.5942 24.2095 -2.00366 0.079791 -0.327327
21.4013 19.6593 21.5925 1.32796 -0.633679 0.237602
21.7313 17.8498 23.79 -1.247 0.0785928 0.316704
18.0952 23.0034 21.7207 0.528464 0.332225 -1.06619
19.98 24.9211 21.2903 0.0654375 0.167819 1.5707
23.1096 21.7707 22.1738 1.19678 -0.384047 0.909455
20.7775 22.9899 23.037 -0.848566 2.03904 -2.5707
20.3704 22.1595 20.4674 -2.38578 -0.538839 -0.348593
22.4874 24.1675 21.169 -1.91212 -1.44183 1.49109
ITEM: TIMESTEP
1000
ITEM: NUMBER OF ATOMS
35
ITEM: BOX BOUNDS ss ss ss
1.6136138057324590e+01 2.4119234985593501e+01
1.7363035638730775e+01 2.4925150815578480e+01
1.5862199360343343e+01 2.4991502355821762e+01
ITEM: ATOMS x y z vx vy vz
18.1042 19.803 17.6864 -0.855474 -1.22122 -1.45613
18.1517 17.4288 19.1087 1.19297 0.293188 1.35541
16.1452 19.3074 19.3452 0.713902 0.602159 -0.0234044
18.8094 19.8939 20.3628 -2.36023 0.0505465 0.0344213
20.1899 17.8072 17.437 0.862368 0.427321 -0.529492
24.1715 20.3445 17.716 -0.385343 0.0829029 -1.00098
21.2506 19.9285 18.781 -0.883568 -1.15783 -2.07898
20.6388 17.3037 20.0011 -0.246402 0.0296434 -0.409735
22.3611 19.0457 16.2718 1.14653 0.19355 0.616414
23.8671 19.6505 20.3159 -0.690967 -0.0204776 -0.489143
20.1555 20.1983 15.9268 0.474771 0.143606 0.911644
22.8225 17.8391 18.683 -0.18986 0.632895 -1.05202
18.6808 24.0686 19.2603 0.832845 -0.651987 -0.894841
19.5537 22.1457 17.738 -1.27849 -0.393619 -0.157946
17.3273 21.8758 19.4046 0.931948 0.962772 1.03737
21.207 24.282 18.7803 -0.116332 -0.301524 0.665675
23.0315 22.1948 19.3002 0.972714 0.612047 -0.0587259
22.2714 21.7984 16.7931 0.0933902 -0.558839 0.344809
17.2629 18.9884 23.6277 -1.96961 -0.0406961 0.750115
17.084 17.8285 21.2271 -0.239984 0.289304 0.0470672
19.549 19.2111 24.9148 -1.81504 0.532247 0.930076
19.4458 17.8225 22.3484 0.92627 1.00283 0.905189
16.5413 20.5917 21.6924 1.85943 0.277521 0.392294
19.1031 20.8351 23.0971 -0.687761 0.778723 -0.681494
23.7704 19.4022 23.0081 -0.639848 -0.997266 -1.01721
22.7945 17.3446 21.4239 0.974482 -1.02855 0.567232
21.6194 20.6298 24.2685 0.415869 -1.03012 -0.667776
21.4239 19.6383 21.684 0.722516 0.450492 0.290924
21.6292 17.7951 23.7484 2.46645 -0.514183 0.465237
18.0507 22.9175 21.8054 -0.704033 0.436105 0.24998
19.9337 24.8469 21.3215 -0.157329 1.20533 0.463995
23.0906 21.7672 22.0647 -0.63244 -0.679105 0.742657
20.7556 23.0272 23.1042 -1.00977 -0.554734 0.465768
20.4948 22.1445 20.456 1.27176 -0.664693 -0.999798
22.5371 24.1184 21.1207 -0.995709 0.811663 0.281391
ITEM: TIMESTEP
2000
ITEM: NUMBER OF ATOMS
35
ITEM: BOX BOUNDS ss ss ss
1.6136138057324590e+01 2.4119234985593501e+01
1.7363035638730775e+01 2.4925150815578480e+01
1.5862199360343343e+01 2.4991502355821762e+01
ITEM: ATOMS x y z vx vy vz
18.1108 19.753 17.8121 -0.282768 -0.461515 -0.288445
18.118 17.4616 19.0889 0.373394 -0.46322 0.282569
16.2163 19.4263 19.3702 0.837236 0.847531 -0.588509
18.7438 19.6422 20.5317 0.398177 -0.8997 -0.389811
20.2707 17.9 17.406 0.745915 -0.258615 1.33424
24.0157 20.4651 17.8888 -1.23451 0.915139 -2.1244
21.2403 20.0344 18.8533 2.33897 -0.954633 -0.793304
20.5804 17.3005 20.0571 0.411984 -1.21555 -1.10119
22.4119 18.9945 16.3926 0.561307 0.348988 0.764307
23.9156 19.6697 20.4726 0.259304 -0.790192 -1.2879
20.0356 20.2408 15.9591 0.0849027 -1.07766 -0.419277
22.9065 17.7669 18.7261 -0.790589 -0.254028 -0.165841
18.6576 24.2204 19.1289 -0.797012 -0.0604481 -0.00847404
19.4473 22.0363 17.6789 -1.17347 -0.571756 0.490838
17.3592 21.8659 19.4125 -1.75426 -0.257903 0.866347
21.23 23.9899 18.628 1.30567 1.40547 -0.226278
23.0773 22.1675 19.4118 2.41852 -0.604868 -1.28826
22.0465 21.8783 16.9439 -0.17903 0.720485 0.538781
17.3411 19.0297 23.5505 -1.99978 1.08663 1.20508
16.9258 17.7444 21.3467 0.370052 0.2483 -1.04503
19.5798 19.0088 24.5412 -0.119046 -0.0352013 -0.387309
19.3413 17.5339 22.2204 1.25635 -1.18029 1.33968
16.5632 20.6947 21.6538 0.205587 0.22018 -0.309505
19.0248 21.0026 22.955 -1.14435 0.505104 -0.182375
23.8538 19.309 23.1315 -1.42198 0.455804 0.120218
23.0294 17.3645 21.4441 -1.42179 0.437521 -0.423129
21.7378 20.5419 24.1606 -0.213851 0.343805 1.64662
21.4375 19.6392 21.6022 1.01261 0.523937 0.27169
21.7434 17.9578 23.6618 1.04787 0.482737 -0.709698
18.1552 23.2495 21.7225 1.54122 1.33561 0.0239303
20.0629 24.9165 21.3232 0.309178 -0.413667 1.0912
23.142 21.7828 22.1504 -0.515048 -0.167521 0.471981
20.7536 22.9358 23.0043 -0.162918 0.25583 1.39144
20.2568 22.1625 20.4602 -1.98261 0.674094 -0.820124
22.493 24.1379 21.1341 -0.285248 -1.1404 0.719926
ITEM: TIMESTEP
3000
ITEM: NUMBER OF ATOMS
35
ITEM: BOX BOUNDS ss ss ss
1.6136138057324590e+01 2.4119234985593501e+01
1.7363035638730775e+01 2.4925150815578480e+01
1.5862199360343343e+01 2.4991502355821762e+01
ITEM: ATOMS x y z vx vy vz
18.1773 19.882 17.7858 -0.850869 0.118398 -0.940667
17.9896 17.5929 18.9934 -0.877475 -0.6168 0.741747
16.0783 19.5475 19.2729 -2.07227 -0.770573 -0.400122
18.6881 19.6198 20.417 -0.0558053 -1.37304 1.08994
20.2778 17.8234 17.4338 0.975724 -0.245462 -1.34291
24.103 20.2034 17.7645 -1.12056 -0.00338534 0.909181
21.2859 20.2136 18.6806 1.41322 -0.544711 -1.51265
20.4993 17.5657 20.0378 0.631372 1.23943 0.611359
22.4305 18.8704 16.2548 0.0181228 -0.796928 -0.939803
23.832 19.7836 20.4427 0.339824 -0.086011 0.54979
20.1508 20.142 16.1943 -0.0687631 0.0319598 -0.229114
22.8269 17.8712 18.6236 -0.224075 0.0591794 -0.142359
18.6296 24.2959 19.2111 0.794126 0.396531 1.05625
19.5406 22.1924 17.6328 -1.17289 -0.970639 0.352856
17.3944 21.8993 19.4027 1.43685 1.09989 -0.533255
21.2388 23.9439 18.6709 -0.386581 -0.364823 -2.27475
23.0942 22.1862 19.4778 0.474853 0.698033 -0.0326847
22.3207 21.8103 16.8278 -0.899508 1.05489 1.8406
17.2727 18.9151 23.6149 -1.40648 -0.966257 0.886086
17.0601 17.8409 21.3388 0.146476 -0.170024 -2.16577
19.6222 18.8442 24.8442 1.31421 1.04023 -0.224933
19.5639 17.811 22.569 1.78848 -0.231127 0.675051
16.4991 20.5677 21.6479 0.265674 1.2606 -0.588268
18.9834 20.7711 22.9293 -0.391166 -0.0701506 0.254986
23.8649 19.2918 23.1034 0.0460117 0.439905 -1.9321
22.8934 17.4965 21.5429 0.514659 -0.786494 0.533322
21.5619 20.6062 24.1285 -0.399382 -1.28737 0.658767
21.3119 19.8648 21.5471 -1.12934 0.268001 -0.971652
21.962 17.8734 23.8785 -0.13651 0.717314 0.78461
17.9972 22.9955 21.7477 0.142533 0.340311 0.451548
20.0533 24.8269 21.2731 0.463171 0.317981 -0.864476
23.2919 21.7288 22.2066 0.594771 -0.483045 2.32059
20.8261 22.7244 22.9026 -0.527052 0.830502 -1.28524
20.1246 22.1944 20.3484 -1.00118 -0.405669 1.72283
22.3784 24.0289 21.0777 1.35983 0.259362 0.941242
ITEM: TIMESTEP
4000
ITEM: NUMBER OF ATOMS
35
ITEM: BOX BOUNDS ss ss ss
1.6136138057324590e+01 2.4119234985593501e+01
1.7363035638730775e+01 2.4925150815578480e+01
1.5862199360343343e+01 2.4991502355821762e+01
ITEM: ATOMS x y z vx vy vz
18.2483 19.9385 17.6235 0.646187 0.79123 0.123896
18.007 17.5123 18.7865 -0.931161 -0.185728 -0.982101
16.2047 19.4273 19.504 0.383008 -0.171302 0.534502
18.8306 19.7393 20.3359 1.47924 0.399755 -0.322477
20.1435 17.9424 17.4786 0.873746 -1.05913 -0.677739
24.1389 20.208 17.768 -0.665203 1.65929 -0.189787
21.2188 20.1337 18.8137 -0.825168 -0.0990525 -0.312653
20.3558 17.3891 20.1644 0.289466 -0.148487 -0.33938
22.3955 18.9595 16.4955 -1.88659 -0.111556 0.0209335
23.8764 19.6458 20.3289 -0.523386 2.20592 1.02467
20.2785 20.2258 15.7878 0.339247 -1.40782 0.874104
22.8012 17.8451 18.7106 -0.0614137 -0.219257 0.212298
18.6663 24.1278 19.1987 -0.335145 2.14095 -0.458442
19.5077 22.1164 17.642 0.721898 -1.53502 -0.444802
17.2173 21.9003 19.4601 0.229286 2.37787 -0.804179
21.3366 24.0324 18.6867 0.916371 -1.38835 1.29369
23.1897 22.2215 19.4504 -0.31974 0.936373 -0.23229
22.157 21.8397 16.9608 -0.893314 -0.347827 1.2176
17.1144 18.8353 23.4348 0.0532986 -1.05416 1.3583
17.2991 17.8053 21.1879 0.621302 0.231338 0.231464
19.697 19.2398 24.6882 -0.265486 -0.545344 0.66927
19.5445 17.8254 22.6412 -1.65333 -2.19196 -0.399532
16.4979 20.6404 21.6792 0.465003 -0.53365 -0.356002
18.9656 20.804 22.8816 -0.562757 0.28905 0.205139
23.9108 19.4203 22.9445 0.88359 1.4876 -0.504179
22.6662 17.4011 21.5479 -0.37884 -0.842076 -0.918926
21.9702 20.6117 24.3566 -0.225995 -0.271418 1.15284
21.3203 19.7424 21.7002 -0.755684 -0.529052 1.29645
21.9101 17.8745 23.9577 -0.63294 0.682873 -0.547891
18.0833 23.0371 21.7774 0.77007 -0.716339 -0.277302
19.9928 24.8778 21.2656 0.0950863 -1.01089 -1.28976
23.0684 21.6057 22.0753 1.67192 -0.909831 -0.588527
20.6737 22.7422 23.0058 0.64837 1.14448 0.263236
20.2852 22.229 20.3598 0.578162 1.04313 -0.581077
22.2517 23.928 21.1251 -0.749105 -0.111613 -0.251354
ITEM: TIMESTEP
5000
ITEM: NUMBER OF ATOMS
35
ITEM: BOX BOUNDS ss ss ss
1.6136138057324590e+01 2.4119234985593501e+01
1.7363035638730775e+01 2.4925150815578480e+01
1.5862199360343343e+01 2.4991502355821762e+01
ITEM: ATOMS x y z vx vy vz
18.0378 19.7772 17.6333 0.199197 -0.84902 -1.11991
18.0988 17.4405 18.8921 0.426256 0.0140594 0.615778
16.0903 19.5385 19.3603 -0.998681 0.860432 -0.711817
18.801 19.6242 20.2398 -0.731788 0.290463 -0.957656
20.2403 17.8858 17.4501 0.422567 -0.451407 0.706699
24.0717 20.159 17.8809 0.404523 0.696975 -0.942124
21.1521 20.0555 18.7948 0.413993 -0.848387 -0.399658
20.5482 17.4037 20.1475 0.631127 -1.94669 1.13905
22.434 19.0834 16.2447 -1.17512 0.492993 -0.663457
24.0379 19.4812 20.4581 0.406954 0.895375 -0.686129
20.202 20.1797 16.098 0.896796 -1.29766 0.725573
22.8253 17.9847 18.6332 -1.78427 0.793529 0.875685
18.7022 24.26 19.1735 -0.420521 -0.270731 -0.123334
19.4371 22.1767 17.7178 1.45601 -1.21305 -2.12834
17.3786 21.8429 19.4318 -0.563597 1.08806 -0.75661
21.1048 23.9662 18.6368 -0.321622 0.729121 1.05544
23.1333 21.9773 19.4825 -0.67836 0.355732 1.06908
22.1987 21.9083 16.8582 -1.41646 0.26386 0.949473
17.2513 18.9195 23.593 1.41095 -0.850304 -1.78527
17.0189 17.9064 21.2718 -0.912108 -1.15815 1.03633
19.5651 19.1453 24.8459 1.85207 0.630786 1.64599
19.4601 17.9656 22.4875 -1.57737 1.8437 -1.11564
16.5175 20.6153 21.6859 0.612511 -0.201479 -0.0429419
19.1881 20.7114 22.7945 -0.250522 2.03421 -0.853745
23.8429 19.2596 23.1108 0.128529 0.306281 1.64832
22.9308 17.3716 21.4364 -0.0970778 0.613146 -0.0600645
21.5888 20.6477 24.2745 0.494449 -1.57607 0.554198
21.4358 19.8879 21.4889 -0.234805 0.947233 -0.557737
21.7513 18.0332 23.7388 0.0175931 -0.820019 -0.81777
18.0611 22.9681 21.8381 0.204147 -0.111228 1.18796
19.9467 24.7672 21.1799 1.22598 1.02294 0.649575
23.3376 21.6381 22.303 -0.366058 -1.59136 0.470217
20.7975 22.9375 22.9563 -0.31687 -1.1195 -0.595474
20.1887 22.2269 20.4174 1.21106 0.123957 0.533595
22.4488 24.0789 21.2691 -0.569487 0.302203 -0.545275
ITEM: TIMESTEP
6000
ITEM: NUMBER OF ATOMS
35
ITEM: BOX BOUNDS ss ss ss
1.6136138057324590e+01 2.4119234985593501e+01
1.7363035638730775e+01 2.4925150815578480e+01
1.5862199360343343e+01 2.4991502355821762e+01
ITEM: ATOMS x y z vx vy vz
18.1815 19.6825 17.8056 -1.34506 -0.638204 -1.35343
18.2404 17.4157 19.4116 0.205307 -1.22206 0.0214692
16.2007 19.4427 19.3481 0.103772 0.440193 -0.912435
18.8279 19.9151 20.5067 -0.367337 -0.100956 -1.41948
20.2483 17.9191 17.6555 1.38891 0.553415 -0.656647
24.1138 20.2685 17.8976 -1.49056 1.59673 2.11223
21.3189 20.0431 18.8969 -0.469322 -0.620123 -0.0114731
20.7126 17.3949 20.2471 -0.573915 0.848981 -0.758424
22.5822 19.1831 16.2336 -0.975257 -2.41521 1.89013
23.8416 19.7182 20.4087 -1.151 -0.253721 -0.827377
20.1828 20.1124 16.0179 -0.0528874 -0.106751 -0.0850984
22.9238 17.9298 18.5681 0.185529 1.32374 0.634562
18.801 24.3046 19.0931 -0.372423 0.198884 -0.227986
19.524 22.1754 17.8006 1.15305 0.00122534 0.977043
17.3008 21.8581 19.1844 0.631418 0.915331 -0.617597
21.278 23.9791 18.6044 -1.04135 0.463969 -1.0209
23.1668 22.2333 19.2718 1.30024 -0.900167 0.0218007
22.0987 21.7835 16.9081 -1.17665 -0.447355 -0.576077
17.1228 18.791 23.7336 1.58049 -1.00696 0.29445
16.5123 18.0419 21.3653 1.96726 0.790554 0.685556
19.6195 18.8498 24.7619 1.09742 -1.04952 -1.66666
19.0549 17.836 22.3443 -1.58173 0.832151 1.14886
16.5837 20.6473 21.8458 -0.938576 0.08229 1.53143
19.1451 20.8543 23.0533 -0.124498 0.395621 -0.873579
23.8643 19.2603 23.0767 0.316232 -0.728831 0.928159
23.1433 17.3422 21.2013 0.97741 -1.20418 -1.06981
21.5622 20.5553 24.1335 -0.132005 -0.198899 0.0608767
21.3491 19.5462 21.6257 -0.688386 -1.11451 1.06388
21.666 17.7439 23.3885 -0.817041 1.9698 0.248267
18.1338 23.0304 21.4679 1.42593 -0.0952599 -1.5304
20.0144 24.8531 21.3441 -0.996232 0.3345 0.758416
22.9223 21.7416 22.0098 0.219894 0.997819 -0.693889
20.7938 22.9179 23.0425 -0.37492 -2.10839 0.932757
20.3813 22.2102 20.4723 0.877696 0.946933 0.549182
22.4122 24.2446 21.0984 1.23858 1.51898 0.442189
ITEM: TIMESTEP
7000
ITEM: NUMBER OF ATOMS
35
ITEM: BOX BOUNDS ss ss ss
1.6136138057324590e+01 2.4119234985593501e+01
1.7363035638730775e+01 2.4925150815578480e+01
1.5862199360343343e+01 2.4991502355821762e+01
ITEM: ATOMS x y z vx vy vz
18.4339 19.5394 17.6821 -0.604935 0.958222 -1.22646
18.2081 17.3354 19.285 1.12191 -1.77301 0.396403
16.2129 19.4574 19.3703 -1.12301 -0.605535 -0.186782
18.7749 19.8143 20.2142 -1.32312 -1.0838 -0.830544
20.3459 17.7196 17.601 0.0831395 0.270917 -1.3569
24.1674 20.319 17.7062 -0.558635 0.40693 0.510078
21.2012 19.9711 18.6705 0.479354 -0.231911 0.663193
20.6785 17.3035 20.1897 0.710037 0.77735 0.00917162
22.2893 19.2076 16.387 0.43305 -0.476818 1.7784
23.6753 19.7428 20.3547 -0.539919 1.17441 -0.198045
20.063 20.3549 15.9363 -0.523707 -0.760633 -1.68773
22.8926 17.7064 18.7882 -0.659677 -0.240433 -1.01466
18.7304 24.0973 19.2058 -0.85394 -0.735571 0.279491
19.6734 22.1891 17.8032 0.593048 0.859141 -0.033531
17.3212 21.9005 19.3148 1.83465 0.492138 0.695329
21.2589 24.2122 18.7391 -0.478697 0.9876 0.345021
23.0324 22.16 19.441 1.35884 -0.63336 0.425549
22.1419 21.8381 16.9648 0.468547 -2.70083 -0.384042
17.2549 19.0669 23.6689 0.80481 0.417348 0.200531
16.6974 17.8538 21.372 -0.496442 1.03002 -0.0750592
19.6531 19.1403 24.7797 1.64567 0.196486 -0.179157
19.1847 17.8998 22.4187 0.231569 0.206267 0.268259
16.5866 20.5954 21.7319 0.515493 0.928354 0.496736
19.1049 20.8349 22.7866 1.21544 0.356876 0.108322
23.6501 19.2891 23.0663 -2.01425 -0.877585 1.25991
22.8913 17.1645 21.3325 -0.0733937 0.530881 -0.744147
21.7199 20.5766 23.9839 -1.39302 -0.122657 -0.287459
21.3123 19.6578 21.5418 -0.770649 -0.469521 -0.138132
21.7303 17.7732 23.5483 1.1328 1.13115 0.541771
18.0341 23.0415 21.731 1.88225 -1.03838 0.160027
19.9605 24.8731 21.3555 -0.924236 1.16317 1.22038
23.2899 21.9346 22.0513 -0.722111 -0.14341 -0.59559
20.6814 22.9131 23.0702 -1.03759 -1.54378 1.06078
20.5188 22.1825 20.5343 -1.15672 1.25876 -1.70289
22.4536 24.1591 21.1981 0.743436 0.291213 0.221773
ITEM: TIMESTEP
8000
ITEM: NUMBER OF ATOMS
35
ITEM: BOX BOUNDS ss ss ss
1.6136138057324590e+01 2.4119234985593501e+01
1.7363035638730775e+01 2.4925150815578480e+01
1.5862199360343343e+01 2.4991502355821762e+01
ITEM: ATOMS x y z vx vy vz
18.2958 19.7588 17.677 1.72933 0.0301597 -1.25757
17.9 17.4297 18.9368 -0.630497 0.583277 -1.57612
16.0729 19.3055 19.2923 -0.960681 -0.152235 0.2219
18.862 19.6594 20.4769 0.277858 -1.49982 -2.33872
20.2268 17.9465 17.2566 -0.0776267 0.0607601 0.499481
24.0236 20.1827 17.8742 -0.791871 0.32912 -0.771892
21.2013 20.0148 18.6211 -0.248343 -0.366569 -0.474843
20.4883 17.5583 19.8398 1.44697 -0.630799 0.306079
22.3773 19.1699 16.2013 -0.641963 1 -0.501165
23.9782 19.4206 20.5101 -0.0298124 0.907142 0.0962419
20.1072 20.2918 15.8897 0.358371 2.24207 -0.0124547
22.8186 17.8591 18.5477 -0.558346 -0.376999 0.211818
18.5017 24.1166 19.2838 -1.37651 -1.09242 0.0883839
19.4912 22.1872 17.6329 0.936022 -0.168987 -0.0134037
17.2907 21.8149 19.2811 -1.01219 -1.84199 -0.0686459
21.5149 24.0299 18.7641 0.87764 0.969635 0.878289
23.142 22.0126 19.5544 0.310367 -0.487654 0.273853
22.0234 21.8864 17.0681 0.796171 -0.0440018 -1.33434
17.2432 18.9028 23.7367 -0.227799 -0.652175 1.15794
17.0495 17.7643 21.4118 0.337671 -1.00441 1.00058
19.6543 19.278 24.9373 2.01544 -0.155568 -1.0834
19.4482 17.8611 22.6472 -0.778576 1.4932 1.5141
16.6551 20.4211 21.6305 -1.60354 1.58788 0.34175
19.0791 20.8098 22.9331 0.411168 -0.825969 -1.17543
23.8134 19.2037 23.1697 0.372925 0.591312 0.0478991
22.6322 17.5013 21.3995 -1.50733 0.0554989 1.61674
21.7929 20.8357 24.0819 0.974359 -0.157589 3.0857
21.3961 19.8105 21.6856 -0.772035 0.93346 -0.40492
21.6822 18.0273 23.9769 -1.21712 -0.847575 0.95833
18.2509 23.0019 21.6091 -1.12435 0.427456 -0.117272
19.9597 24.87 21.2263 0.251714 -0.926613 0.386294
23.1759 21.8105 22.1339 0.635877 -0.587392 0.166725
20.8262 22.9369 22.9124 1.49152 2.20145 -0.099527
20.4307 22.1331 20.3343 0.0849215 -0.455719 -0.256434
22.4195 24.0121 21.291 0.25026 -1.13795 -1.36597
ITEM: TIMESTEP
9000
ITEM: NUMBER OF ATOMS
35
ITEM: BOX BOUNDS ss ss ss
1.6136138057324590e+01 2.4119234985593501e+01
1.7363035638730775e+01 2.4925150815578480e+01
1.5862199360343343e+01 2.4991502355821762e+01
ITEM: ATOMS x y z vx vy vz
18.137 20.0225 17.6854 0.361429 0.248513 -1.55627
17.9895 17.5627 18.6638 0.313402 -1.24069 2.00317
16.042 19.5266 19.5196 -0.536543 -0.571154 -0.276822
18.8647 19.7502 20.3495 -0.943864 -0.532803 1.01182
20.2143 17.8698 17.1458 -1.25948 2.51931 -1.47181
23.922 19.9856 18.0011 1.54402 -0.248626 0.0586989
21.0649 19.9291 18.6174 -0.230149 1.20388 0.80707
20.2631 17.4385 19.8813 0.338063 0.0953534 0.495367
22.4359 18.9327 16.2855 -1.33176 0.158626 -0.675917
24.0555 19.557 20.5255 0.731 -0.150603 1.51645
20.2174 20.3364 16.007 1.12101 -0.0425449 -0.507922
22.6003 17.7862 18.8569 -0.780522 -0.212674 -2.32786
18.606 24.0472 19.1124 -0.439805 0.152682 -0.151475
19.5444 22.2052 17.6244 -0.650608 -0.44131 0.420522
17.2843 21.9432 19.4168 -1.63924 1.51009 -1.54535
21.3095 23.9155 18.559 -0.0164672 -0.34912 0.818483
22.9149 21.923 19.5487 -0.393842 0.737707 -0.540233
22.1957 21.7291 17.0038 0.731426 -1.00436 -1.09166
17.3837 18.7526 23.4613 -0.954967 0.200002 -0.0249208
17.3857 17.656 21.1272 1.06142 -0.704179 0.78791
19.6496 18.9261 24.8968 0.584222 0.3261 -0.183372
19.763 17.7834 22.4106 -1.10502 -0.689052 -0.591486
16.7944 20.5525 21.8874 2.70099 -2.19122 -1.00624
19.0616 20.7678 23.1467 -0.382838 -0.348757 0.438373
23.8291 19.4638 22.983 -0.431683 -0.557723 1.22171
22.5234 17.5961 21.4715 -0.130651 1.54722 -0.472734
21.488 20.753 24.2812 -1.518 -0.771956 -0.474348
21.3988 19.9585 21.5718 0.0880333 0.0222377 0.970259
22.0151 18.0342 23.9596 0.28859 1.17151 1.42595
18.143 23.0389 21.7548 0.427301 1.27369 1.50557
19.9637 24.8368 21.1471 0.271808 0.065828 -1.2332
23.1135 21.9869 22.489 0.0331736 -0.999332 -0.49926
20.8006 22.9544 22.9374 1.04465 1.2502 -0.252032
20.2734 22.2155 20.4973 0.831849 -1.79634 1.8352
22.5771 24.088 20.9982 0.273046 0.369505 -0.433632
ITEM: TIMESTEP
10000
ITEM: NUMBER OF ATOMS
35
ITEM: BOX BOUNDS ss ss ss
1.6136138057324590e+01 2.4119234985593501e+01
1.7363035638730775e+01 2.4925150815578480e+01
1.5862199360343343e+01 2.4991502355821762e+01
ITEM: ATOMS x y z vx vy vz
18.2695 19.827 17.7108 0.0320867 0.542529 0.45594
18.0656 17.5088 19.0275 1.20857 0.928436 -0.131401
16.1488 19.4525 19.3752 -1.43441 0.950574 1.56719
18.8513 19.6674 20.3826 0.6957 0.32152 -1.75861
20.3404 17.8387 17.4468 0.960048 -0.757257 -1.88033
23.8858 20.2902 17.9201 0.659827 -0.87472 -0.136196
21.3602 20.0734 18.6379 1.01431 -1.06925 1.33317
20.563 17.508 20.0997 -0.121945 0.324301 1.04743
22.4765 18.7466 16.4384 -1.60632 0.0923933 -1.82933
23.9721 19.8617 20.3925 -1.10227 -0.184447 1.83106
20.2599 20.1631 15.9128 -0.756304 0.138317 1.31647
22.7325 17.7325 18.7928 0.913114 0.0294363 -0.212036
18.4252 23.9391 19.2246 0.118601 -1.21147 -0.834723
19.6326 22.118 17.7486 0.915585 -1.28201 -0.834651
17.4076 21.7542 19.2952 0.954927 0.422239 0.581832
21.1589 24.128 18.8097 -0.168081 1.47854 -0.770328
22.966 22.1573 19.3499 -0.553601 -1.49602 -0.484858
22.1762 21.8342 16.7017 0.131271 -0.228461 0.714974
17.3631 19.2636 23.8418 -0.0540703 0.943864 1.13429
16.7996 17.9877 21.3141 0.0377784 1.12038 0.276755
19.8112 18.7535 24.8263 1.24321 -2.02059 -0.164572
19.2344 17.7906 22.4203 -0.395455 -1.12144 -1.55055
16.4441 20.843 21.6298 -1.10342 -1.06751 -0.579304
19.0996 20.9168 22.9815 -1.6116 0.355726 0.439787
23.7481 19.4379 23.014 0.402543 0.71711 -0.0250608
23.0882 17.4123 21.3263 0.93947 0.862546 0.762738
21.6077 20.6146 24.1412 0.040224 0.177512 2.05812
21.3748 19.6585 21.6955 0.313615 0.254936 -1.47755
21.7075 17.6375 23.4093 -0.821992 -0.843219 -2.07053
18.1769 23.0678 21.7842 -0.172759 0.332659 1.55767
19.9812 24.8416 21.228 0.315854 0.244711 -0.802811
23.0829 21.7967 22.193 0.155392 1.29276 0.989015
20.7678 23.0321 23.1299 -0.698706 0.716699 0.52301
20.3568 22.1528 20.5036 -1.04971 -0.448201 -0.341542
22.489 24.0172 21.1192 0.598523 0.357391 -0.705061
ITEM: TIMESTEP
11000
ITEM: NUMBER OF ATOMS
35
ITEM: BOX BOUNDS ss ss ss
1.6136138057324590e+01 2.4119234985593501e+01
1.7363035638730775e+01 2.4925150815578480e+01
1.5862199360343343e+01 2.4991502355821762e+01
ITEM: ATOMS x y z vx vy vz
18.2101 19.7972 17.6458 -1.11533 0.858547 0.36273
18.084 17.3558 19.1293 -0.783966 -1.29115 1.40217
16.1655 19.2065 19.3103 1.08079 0.809938 0.831464
18.7869 19.708 20.2014 0.211651 0.708139 0.459474
20.0101 17.8278 17.3686 -0.503772 0.116932 -2.01899
24.0886 20.2709 17.8202 -0.246912 -0.104797 1.08369
21.291 19.9631 18.7655 0.26382 -1.25286 0.434307
20.5919 17.2377 20.1222 -0.873086 0.635666 -1.33976
22.5103 19.0578 16.3931 0.3787 0.00486579 0.235107
23.9837 19.9655 20.4045 1.01598 0.171078 -0.163967
20.2879 20.2254 16.0982 -0.346742 0.657594 -1.73422
22.7601 17.827 18.6617 -0.514469 -1.65071 -1.22897
18.4229 24.0309 19.3413 -1.31257 -0.882508 -0.284552
19.5426 22.1336 17.7784 -0.265405 -0.0919086 0.726331
17.1779 21.76 19.1822 0.443244 -0.0025908 -2.08316
21.1178 24.2591 18.814 -1.01204 -0.711499 -0.119262
22.9417 22.2508 19.2678 -0.951763 -0.897397 -0.372581
22.1266 21.8167 16.8096 1.40187 0.0450358 0.143265
17.2947 19.3805 23.7924 0.0870874 -1.0631 1.4349
16.9126 18.1306 21.4079 0.166887 -0.566918 -1.74625
19.5079 19.0486 24.9302 0.479465 0.895101 2.34142
19.1868 17.8542 22.577 1.52015 -0.123453 -0.193927
16.4692 20.8063 21.6255 0.960014 -0.887768 -1.54277
19.1837 20.5638 22.786 0.0934252 1.09028 0.365635
23.8006 19.3379 23.1247 0.547674 1.07921 0.170627
23.0008 17.6049 21.148 -0.976063 -1.03586 -0.382164
21.7263 20.4005 24.241 -1.83053 0.896482 -0.298995
21.3958 19.7532 21.6731 0.600849 1.54077 0.330038
21.6098 17.863 23.6556 0.0949912 0.975495 0.0743904
18.2511 22.7389 21.5792 0.437127 1.19372 0.688533
20.0653 24.762 21.2316 -0.195715 -0.120749 0.726844
23.1952 21.6551 22.1503 0.414844 -1.16122 0.552351
20.9795 23.0242 23.132 -0.26641 -0.45395 0.421061
20.5676 22.1213 20.5222 0.897782 0.652332 -0.617138
22.5784 24.086 21.1341 0.0984245 -0.0327426 1.34235
ITEM: TIMESTEP
12000
ITEM: NUMBER OF ATOMS
35
ITEM: BOX BOUNDS ss ss ss
1.6136138057324590e+01 2.4119234985593501e+01
1.7363035638730775e+01 2.4925150815578480e+01
1.5862199360343343e+01 2.4991502355821762e+01
ITEM: ATOMS x y z vx vy vz
18.48 19.759 17.6455 -1.1133 -1.53219 -0.245619
17.7765 17.4083 18.5762 0.67652 -1.1679 -0.708579
16.3761 19.2026 19.6979 0.0105541 0.67768 0.0283445
18.7326 19.6206 20.6111 -1.20193 -0.496866 0.114356
20.2438 17.8056 17.4324 0.403747 -1.1635 0.40406
23.9451 19.9393 17.8894 0.717821 1.04217 -0.846947
21.0906 20.0457 18.7338 0.164992 1.11026 0.205075
20.1769 17.2923 20.0836 -0.227984 -0.761435 0.542978
22.1948 18.9868 16.4367 -0.363084 -1.3328 -0.73949
23.7997 19.7337 20.3951 0.316028 0.647391 -0.420929
20.2735 20.3696 15.8322 0.175301 2.27306 0.957288
22.7061 17.862 18.9667 -1.03382 -0.667824 1.14484
18.4747 24.1392 19.4634 -0.670353 -0.811631 -1.26956
19.6722 22.2243 17.5777 -0.653448 0.48364 1.16645
17.5852 21.7377 19.2162 -0.900866 -0.457252 0.55113
21.2632 24.3011 18.8534 -0.0665419 1.2824 0.584438
22.8687 22.1614 19.211 0.719533 -0.152412 -0.840144
22.0831 21.9598 16.7346 -0.321025 -1.01267 -0.17342
17.3649 18.9255 23.312 -1.04074 -0.658217 0.209815
17.4521 17.2773 20.9835 2.00073 -0.370455 -1.94981
19.6388 18.9203 24.7825 0.405663 0.29863 -2.06897
19.574 17.8059 22.4751 -1.14809 -0.369349 1.1013
16.7609 20.8553 21.8581 -0.378987 1.60056 0.713651
19.1699 20.9317 23.0187 -1.22679 1.52037 -0.250935
23.7661 19.301 23.0849 -0.550351 0.15758 -0.419481
22.3622 17.494 21.5887 -0.793217 0.773548 1.12898
21.7313 20.6559 24.1654 1.44425 -0.189104 -0.0946067
21.2688 19.7406 21.7176 -0.867254 -0.112452 -0.239382
21.8358 18.0176 24.124 1.0135 -1.94613 -0.421008
18.1419 23.0464 21.7288 0.83635 0.10154 -0.939167
20.0617 24.9886 21.2396 0.521583 -0.782364 -0.604291
23.031 21.7221 22.0054 1.92801 1.13509 1.71907
20.9446 23.1671 23.0007 0.276576 0.522177 -0.231441
20.3931 22.2591 20.3707 0.448251 0.26144 0.734865
22.5851 24.1674 21.0128 0.498358 0.0970359 1.15713
ITEM: TIMESTEP
13000
ITEM: NUMBER OF ATOMS
35
ITEM: BOX BOUNDS ss ss ss
1.6360764571914231e+01 2.3967737958226490e+01
1.7254580775622617e+01 2.4964349895700881e+01
1.5853720380596789e+01 2.4730618474512749e+01
ITEM: ATOMS x y z vx vy vz
18.1819 19.9386 17.7901 -1.03333 -0.502957 -0.269984
17.9313 17.6024 18.6633 -0.9848 0.0878657 0.784652
16.4884 19.2776 20.0574 -0.310198 0.152171 -1.52007
20.1381 17.9703 17.2571 2.16626 0.589849 0.6645
23.7675 20.1184 17.9287 0.111826 0.662777 1.38316
21.1556 20.1041 18.7142 0.905665 0.389784 0.62375
20.3442 17.2131 20.0616 -0.7015 -0.416443 -0.977655
22.1937 18.9965 16.1899 -0.325373 -1.37761 1.49373
20.2063 20.4543 15.9331 -0.863844 -0.967752 0.387729
22.5487 17.872 18.7534 0.348813 -1.40953 -0.396391
18.4894 24.1123 19.191 -0.0818685 -0.216633 -1.3908
19.6238 22.2359 17.7553 0.675015 1.06768 0.083424
17.6297 21.8472 19.6602 0.543847 0.194078 0.300887
21.4774 24.0837 18.6439 -0.102368 1.22131 -0.689612
22.9395 22.1752 19.3384 0.737394 3.07109 -0.614716
22.2179 21.9088 16.7957 -1.82649 -0.499649 1.31818
18.9466 19.5822 20.332 1.23776 -0.26751 -1.0066
17.5287 18.7767 22.917 0.970994 -0.329717 -1.55526
17.5625 16.965 21.0487 -1.79934 1.57214 0.448197
19.4811 18.9445 24.7725 0.0507717 0.509435 -0.793793
19.8862 17.085 22.6683 -0.947162 0.453542 -0.247631
16.4889 20.9562 21.9622 -0.114511 -1.34321 0.952216
19.0294 20.929 22.7163 -0.466842 -1.69878 0.88468
23.5559 19.6821 20.486 0.0492252 -0.443045 0.926357
23.7046 19.3886 23.1707 1.62601 -1.59649 -0.609953
22.6152 17.2995 21.6266 0.214371 0.867606 -0.425678
21.3702 20.8504 24.1177 -0.198001 2.47514 1.1039
21.2382 19.4873 21.9004 1.23665 1.37788 -0.485643
21.736 18.0211 24.2676 0.212691 -1.14578 0.302299
18.2796 23.3825 21.9496 0.00537892 0.0107918 1.13253
20.1873 25.0469 20.7961 0.197448 -0.389825 1.36108
22.9067 21.7007 22.143 -1.02673 -1.18084 -0.517274
20.8241 23.3573 22.8072 0.647484 0.0404155 -0.971901
20.4911 22.1955 20.4586 -0.56604 0.204838 -1.04426
22.6594 24.2642 20.9511 -0.589201 -1.16262 -0.63404
ITEM: TIMESTEP
14000
ITEM: NUMBER OF ATOMS
35
ITEM: BOX BOUNDS ss ss ss
1.6360764571914231e+01 2.3967737958226490e+01
1.7254580775622617e+01 2.4964349895700881e+01
1.5853720380596789e+01 2.4730618474512749e+01
ITEM: ATOMS x y z vx vy vz
18.3202 19.7922 17.9764 -0.300498 0.445882 0.433286
18.0406 17.4015 18.5577 1.8351 0.941515 -2.39414
16.4373 19.233 19.8746 -0.662672 1.2108 -0.607941
20.1864 17.8873 17.1404 0.971666 0.565321 1.01838
23.8338 20.1124 17.6756 2.21875 0.559071 -0.656305
21.199 20.084 18.5874 2.12033 -0.249408 -0.145039
20.5338 17.5547 19.8945 0.127331 -0.311027 1.56534
22.2078 19.0046 15.9867 -0.431539 0.764728 -0.258789
20.1769 20.4339 15.9475 -0.0681824 0.572797 0.866221
22.7032 17.6889 18.4058 -1.55852 1.27984 1.01672
18.5388 24.2965 19.0211 0.380433 -0.38165 1.78262
19.2473 22.3779 17.4881 -1.59397 -0.137598 0.342218
17.3363 21.8177 19.3431 1.27612 1.24728 0.447514
21.3618 23.9402 18.7264 1.16151 -2.3357 -1.12898
23.1482 21.9303 19.4901 0.532114 0.558682 0.0806258
22.1262 21.9932 16.9794 -1.40428 0.326978 0.370227
18.8425 19.6479 20.8082 0.114036 -1.5981 -2.1528
17.2992 18.8999 23.2463 0.203178 -0.0502329 1.38215
17.681 17.3533 21.0266 -0.187323 0.280255 -0.0546506
19.375 19.0578 24.9095 -0.71161 -0.398249 1.75693
19.8252 17.7931 22.6973 -1.18147 -0.0188975 1.40402
16.6862 20.9027 21.7383 0.312901 1.22675 -0.35965
18.9331 21.0654 23.1946 0.609204 -1.18958 0.434035
23.4904 19.4764 20.2903 -0.627349 0.591224 -1.01387
23.7709 19.3176 23.2786 -0.537122 -0.0750417 0.151836
22.5666 17.5074 21.8072 -0.218924 -1.03037 0.794635
21.5902 20.6408 24.4615 0.106249 0.254758 0.238147