ITEM: TIMESTEP
0
ITEM: NUMBER OF ATOMS
35
ITEM: BOX BOUNDS ss ss ss
1.6560078010664718e+01 2.4629300060311714e+01
1.6379597449318119e+01 2.5186930395052254e+01
1.6197805471705149e+01 2.4586973758587593e+01
ITEM: ATOMS x y z vx vy vz
20.3438 19.123 16.2019 1.1493 0.332347 1.03869
17.7956 17.8059 19.7698 0.350949 0.641731 -1.17817
18.0827 18.131 17.0815 1.05001 1.17809 0.360602
20.3621 17.3049 18.3214 0.717311 -0.39712 -0.164789
16.5642 19.861 18.3349 0.858158 0.161306 0.602579
19.4906 19.8035 18.9978 1.1219 0.525499 1.19333
24.6252 19.1298 19.4839 -0.0841265 0.193083 0.125043
22.4459 19.0675 17.8514 -0.0847831 -0.865546 0.474053
22.7202 17.1613 19.8363 -2.63555 -0.73029 -0.425006
18.5533 24.5382 20.2356 -1.47513 1.52257 0.330778
18.4561 20.995 16.7521 2.39687 -0.369913 0.506332
20.5631 22.3054 20.0327 -1.40321 -0.850059 -2.4994
17.8463 22.1115 19.1952 -1.13811 0.470458 0.466081
19.6278 23.7416 17.8776 1.55881 -0.693323 -1.37822
23.4554 21.5018 18.8618 -1.43625 -0.768927 0.446201
21.0994 21.476 17.3599 0.227682 -0.425878 1.20067
21.0736 25.1829 19.9405 -0.250456 -0.164405 -0.364389
22.3286 23.8009 18.1047 0.375948 0.0397855 1.21643
20.0024 16.8301 23.6821 0.799098 0.20842 -0.068255
17.2668 20.5667 23.6368 1.67213 0.755755 0.493238
20.2309 17.6152 21.0662 -1.63887 1.24867 0.988317
19.3876 19.2812 24.5829 0.991937 -0.767655 1.18927
17.8963 18.1031 22.5587 -0.623903 -1.23842 -0.0742808
19.5415 20.2555 21.8913 -3.0546 -2.02097 -0.411871
16.9242 20.1459 20.9678 1.31046 -0.281611 0.306077
22.29 16.3837 22.3914 -0.453413 1.59429 -1.73408
21.6972 18.9239 23.2115 0.425172 -0.156874 -0.46175
24.0364 18.3738 21.9592 1.06641 -0.563816 0.828637
22.0045 19.7749 20.5009 0.987554 0.314347 -1.10175
20.3997 23.9045 22.2492 2.39888 -0.907837 -0.497607
19.5932 21.9582 24.0712 -0.950617 1.12641 -1.15696
17.9876 22.5696 21.9479 0.0487961 0.354771 1.72045
24.284 21.0424 21.4237 -0.759599 1.91926 -2.77977
22.9458 23.4069 20.8117 -1.75483 0.118312 -0.406516
21.9031 21.6483 22.6334 -1.76396 -1.50246 1.21604
ITEM: TIMESTEP
1000
ITEM: NUMBER OF ATOMS
35
ITEM: BOX BOUNDS ss ss ss
1.6560078010664718e+01 2.4629300060311714e+01
1.6379597449318119e+01 2.5186930395052254e+01
1.6197805471705149e+01 2.4586973758587593e+01
ITEM: ATOMS x y z vx vy vz
20.347 19.1442 16.263 -0.483933 -0.114764 -0.255715
17.6517 17.6985 19.7771 0.60214 1.4851 0.287926
18.1956 18.0228 17.132 -0.402061 -0.146132 -0.79791
20.2591 17.2758 18.5 -0.405462 -1.05719 -0.288371
16.6159 19.7247 18.3031 1.41578 0.496266 -0.682895
19.5007 19.6716 19.0856 0.73855 -0.634868 0.0983251
24.5539 19.0863 19.3322 0.0830711 0.610269 0.0474869
22.3942 19.0869 17.8386 0.0320329 -0.468718 0.74284
22.7943 17.252 19.7742 1.08108 -1.89959 -0.363067
18.7347 24.5989 20.1151 0.0857845 -0.0198605 0.169839
18.5747 21.0916 16.9295 1.20256 0.234349 0.732232
20.547 22.3089 19.9618 0.657729 -0.000166322 0.27039
17.8435 22.1019 19.1978 -1.37143 0.487825 -1.12466
19.478 23.7484 17.8206 -0.733485 0.573787 0.311845
23.4795 21.4708 18.7845 0.567731 0.333885 -0.952858
21.1539 21.4571 17.3011 0.830418 -0.920301 -0.471558
21.3899 25.3047 20.1066 -0.792085 0.39989 -0.348153
22.1732 23.8827 18.1988 -0.935164 0.608543 -0.604729
20.044 16.7977 23.5952 -1.57387 -0.370608 1.21902
17.2198 20.6143 23.5751 2.72041 0.198088 1.44332
20.0473 17.3018 21.0885 -1.26574 -0.140334 -0.263813
19.4696 19.4465 24.4618 -0.603955 -0.0842212 0.661633
17.8886 18.0878 22.6638 -0.29585 1.67476 -0.266857
19.5705 20.2039 21.9432 -1.7296 0.376363 2.35227
16.9919 20.0717 20.8695 -0.111228 -0.937983 -0.340668
22.2315 16.4428 22.2426 1.28636 -1.1104 -0.375414
21.7889 18.8851 23.1802 0.225319 0.0603521 -0.405502
24.0438 18.5043 21.859 0.177136 0.824175 -1.09964
21.9885 19.8475 20.5 0.399087 0.0278296 0.148601
20.4497 23.9271 22.2108 -0.89625 0.263488 1.13969
19.5457 22.1146 24.0489 -0.713268 -0.0537379 -0.634367
18.1146 22.5497 21.8417 0.42849 0.0144746 -0.464388
24.1371 21.0948 21.4229 0.495363 1.2057 -0.980069
22.8406 23.3931 21.0502 1.07612 -1.11207 0.690987
21.7661 21.6143 22.8502 -1.79179 -0.804208 0.404228
ITEM: TIMESTEP
2000
ITEM: NUMBER OF ATOMS
35
ITEM: BOX BOUNDS ss ss ss
1.6560078010664718e+01 2.4629300060311714e+01
1.6379597449318119e+01 2.5186930395052254e+01
1.6197805471705149e+01 2.4586973758587593e+01
ITEM: ATOMS x y z vx vy vz
20.3556 19.2001 16.2594 -1.92639 -0.749171 -0.695071
17.8404 17.8243 19.8049 0.731389 0.62432 0.870602
18.1917 18.2486 16.9615 0.0837684 -1.58186 0.616339
20.2906 17.2151 18.2172 -1.15159 0.0883108 -1.04116
16.7348 19.8132 18.4698 -1.32763 -0.407925 -0.370203
19.4752 19.7514 18.9466 0.760535 -0.624858 -0.306608
24.5587 19.2878 19.5317 -0.0302567 1.87365 -0.820036
22.3511 18.9507 17.9038 0.100086 -1.28128 -0.772687
22.7727 17.1588 19.8286 1.09574 -0.164665 0.264032
18.7196 24.5649 20.2778 -0.241845 -0.020557 0.989577
18.6104 21.2702 16.9011 1.51407 -0.114834 -0.55973
20.5186 22.3109 20.0503 0.780442 0.309167 0.217576
17.7992 22.1455 19.3255 0.47473 0.877233 -0.64718
19.6368 23.6477 17.8651 0.583804 0.903945 -1.64976
23.2267 21.4275 18.8923 -0.74401 0.442304 -1.34613
21.1966 21.4392 17.2683 -0.0109455 -0.56425 -1.57439
21.3117 25.1755 19.8248 0.516649 0.518927 0.189502
22.269 23.8285 17.8878 -0.724611 0.0839692 0.494931
19.9666 16.8056 23.5478 -0.141053 -1.35508 -0.434283
17.2855 20.5758 23.5053 0.310571 -0.486462 -0.256628
20.2239 17.5096 21.0461 -0.229779 -0.473442 0.602433
19.3961 19.4345 24.5222 -0.418417 2.01315 -0.172915
17.8746 17.8966 22.7573 -1.58501 -0.265072 -0.670685
19.385 19.9994 21.8888 -1.27341 -0.081707 1.41641
16.9101 19.9592 21.0288 0.444226 1.11774 -0.438335
22.3289 16.6227 22.3275 1.21813 -1.88863 0.112158
21.7031 18.9302 23.3709 -1.36768 0.865711 1.52161
23.8007 18.6508 22.0218 0.162584 0.245164 0.249425
21.9001 19.6193 20.4328 1.27663 0.675904 -1.58003
20.5203 23.9211 22.2923 0.199486 0.273326 1.04764
19.6254 21.918 23.9668 -0.279914 0.420027 -0.15784
18.119 22.6661 22.0011 -0.538495 -1.19723 1.73346
24.2337 21.1564 21.4155 1.06813 -0.350476 1.03127
22.8555 23.3737 20.8249 -0.973631 -0.329855 1.19998
21.8373 21.5262 22.659 1.64368 0.604492 0.936716
ITEM: TIMESTEP
3000
ITEM: NUMBER OF ATOMS
35
ITEM: BOX BOUNDS ss ss ss
1.6560078010664718e+01 2.4629300060311714e+01
1.6379597449318119e+01 2.5186930395052254e+01
1.6197805471705149e+01 2.4586973758587593e+01
ITEM: ATOMS x y z vx vy vz
20.2902 19.1876 16.0984 -1.7622 -0.61972 1.52011
17.9557 17.8016 19.6218 -0.217936 1.79239 0.928324
18.0991 18.3593 16.9519 -0.692751 -0.713075 -0.12921
20.3397 17.3211 18.2106 -0.927554 1.07192 -1.1927
16.7365 20.0294 18.3816 -0.702974 -0.598904 -0.822867
19.5089 19.8728 18.8391 -0.16875 -0.937885 -1.27261
24.4301 19.0954 19.6242 1.51457 0.628574 -0.683285
22.3267 19.0518 17.9164 1.66944 0.740403 -0.0788494
22.7524 17.0771 19.9474 0.428501 -1.09061 0.195031
18.6926 24.4122 20.3179 -0.680246 1.22832 0.722296
18.5404 21.1585 16.8253 -1.37417 -0.613454 -0.937643
20.5479 22.1774 20.0736 -0.347061 1.44188 0.583295
17.7664 22.0972 19.3995 0.296461 0.792855 0.0289703
19.5049 23.5673 17.9339 0.359804 -0.36642 -1.60356
23.5879 21.4503 18.7195 1.9471 1.569 -2.17484
21.139 21.3745 17.3763 0.624476 1.07712 -0.582307
20.9626 25.1109 19.7167 -0.335038 0.0179673 0.125482
22.2941 23.6688 18.086 0.162414 -1.2259 -0.625598
19.8973 16.918 23.6366 1.86949 -1.01305 0.0315721
17.2758 20.499 23.5699 0.856256 -1.60004 -1.2768
20.2314 17.4021 20.9939 0.439073 -1.31769 -0.144331
19.2344 19.3493 24.7086 -1.0622 0.998592 -0.793946
17.9825 18.1067 22.5778 -0.348513 -0.112442 0.698729
19.5783 20.0636 21.888 -1.70138 0.122382 0.199428
17.0257 20.1168 20.9903 -0.258158 0.106529 -1.0611
22.1561 16.6495 22.4497 -0.0127158 -0.638029 0.694488
21.6157 18.9719 23.4467 -0.690249 0.891579 1.67986
23.7916 18.7274 22.0903 0.105219 -0.748759 0.130475
21.984 19.7478 20.4261 -0.343023 -1.9196 1.40008
20.6789 23.7639 22.3518 2.342 1.23197 -0.654187
19.6514 21.8695 23.9861 -0.987685 -0.150791 1.6127
18.269 22.5049 22.0165 0.748264 -0.169423 0.965621
24.2114 21.278 21.2688 -0.622344 -0.0367246 0.175903
22.8591 23.5106 20.7842 -0.281298 0.877486 1.53587
21.9072 21.5327 22.5995 0.153165 -0.716443 0.805613
ITEM: TIMESTEP
4000
ITEM: NUMBER OF ATOMS
35
ITEM: BOX BOUNDS ss ss ss
1.6560078010664718e+01 2.4629300060311714e+01
1.6379597449318119e+01 2.5186930395052254e+01
1.6197805471705149e+01 2.4586973758587593e+01
ITEM: ATOMS x y z vx vy vz
20.4197 19.1254 16.16 -1.00555 0.195993 -1.22649
17.9511 17.9862 19.7541 0.222552 -0.466065 -1.50534
18.1136 18.3229 17.0737 0.424169 -0.451202 -0.623539
20.3208 17.3785 18.3167 0.620945 -0.631586 0.144941
16.6221 19.8689 18.2142 0.208159 0.210078 1.46749
19.7448 19.9367 18.8613 0.756112 0.704715 -0.604359
24.383 19.0571 19.5471 0.425422 1.05883 -1.15379
22.3468 19.1046 17.7404 0.644214 -0.0345309 0.323703
22.7893 17.022 19.7673 -0.68717 -0.768044 0.321878
18.5024 24.3853 20.1801 -0.480517 0.434487 -0.192219
18.5747 21.032 16.806 0.634409 -0.0664958 0.971439
20.5571 22.2639 20.1076 0.620305 1.69328 1.5287
17.822 21.8523 19.3767 -1.10187 -0.919465 -0.991415
19.6108 23.5534 17.9622 -0.207588 0.735385 -0.0126642
23.2922 21.4543 18.9124 1.43577 0.37063 -2.33684
21.21 21.4866 17.1704 0.00590026 -1.77929 -0.791413
20.9524 25.1334 19.8913 -0.194005 -1.17345 0.227635
22.3567 23.6812 18.2779 0.342095 -0.593433 0.0410245
20.0135 17.1087 23.8998 0.590098 -0.0638308 0.383206
17.2803 20.4656 23.6372 -0.992086 -0.354731 0.198146
20.223 17.5315 20.9814 -0.107326 1.141 0.189515
19.4705 19.5567 24.4292 0.194053 -0.0678215 -0.178353
18.0523 18.2824 22.4922 -0.164441 -0.0913341 0.858882
19.6235 20.3888 21.7862 -1.49735 1.74525 1.02412
16.9756 20.0716 21.0611 -0.147628 0.619429 -0.681328
22.2229 16.3231 22.2656 -0.463467 -0.696389 -1.56411
21.5796 18.8166 23.0554 0.185368 1.63129 -0.848811
23.8766 18.3888 22.0949 1.1303 -0.843028 0.63122
21.9468 19.6134 20.5442 -0.862123 -0.121213 1.10952
20.447 23.9379 22.1667 0.462282 -1.66391 -0.584286
19.6278 22.0611 24.0671 1.46224 0.383081 2.30409
18.0641 22.5915 22.1092 -1.0687 -0.581327 -0.295356
24.0307 21.0836 21.4071 -1.44576 -0.52395 1.65961
22.9284 23.3712 20.8659 0.285885 -0.804084 0.492753
21.893 21.5879 22.8421 -0.224691 1.77175 -0.287565
ITEM: TIMESTEP
5000
ITEM: NUMBER OF ATOMS
35
ITEM: BOX BOUNDS ss ss ss
1.6560078010664718e+01 2.4629300060311714e+01
1.6379597449318119e+01 2.5186930395052254e+01
1.6197805471705149e+01 2.4586973758587593e+01
ITEM: ATOMS x y z vx vy vz
20.3214 19.1694 16.1824 -0.184944 -1.05408 -0.000343924
17.8802 17.7838 19.8308 2.82073 0.63575 -0.650921
17.9818 18.1917 17.1091 1.20482 0.422839 -0.538754
20.2727 17.6019 18.3666 2.01715 0.0638686 -0.414219
16.6739 19.9342 18.1583 0.753536 0.0370155 0.705849
19.3528 19.9788 18.9693 -0.941936 1.37771 -0.408208
24.5401 19.2293 19.5913 -0.0219649 0.260181 -0.918098
22.5349 18.9125 17.7703 -0.714449 0.0158627 -1.11284
22.6376 17.0708 19.806 -1.6538 -0.439101 -1.65599
18.682 24.4814 20.2153 -0.455824 -1.97912 -0.625282
18.5796 21.0577 16.6425 0.868536 -0.509384 0.541472
20.4445 22.31 20.1859 1.77757 -0.301441 -1.23695
17.7891 22.1424 19.111 -0.224116 -0.309573 1.87353
19.571 23.5655 17.8626 -0.176351 1.15077 -0.755214
23.3178 21.48 19.0182 0.757634 0.404292 0.744771
21.1054 21.3743 17.5056 -0.508662 1.85337 0.759071
21.067 25.1084 19.925 0.990174 0.0412661 -0.0886522
22.2158 23.684 18.2286 -2.24324 -0.333726 -1.9562
20.0989 17.0452 23.6489 -0.505849 -0.00243928 0.0452465
17.3177 20.5372 23.5841 -0.358664 -0.210042 -1.70869
20.2584 17.3904 21.0526 -2.24443 -0.0711933 0.051865
19.6035 19.4844 24.442 0.526353 -0.053333 1.31253
18.0157 18.108 22.6743 -1.63188 -0.908011 0.143411
19.6885 20.0957 21.8199 0.360872 0.169705 2.19636
17.2133 20.2208 20.893 -0.201784 1.57102 0.188371
22.2897 16.5536 22.4541 1.14182 1.72129 0.544577
21.8713 19.0275 23.1685 -0.431478 -0.116908 -0.180416
24.1214 18.1688 21.8422 0.429051 -1.52144 1.26352
21.7771 19.6014 20.2631 -1.09228 -0.976776 1.51356
20.3634 24.0079 22.2626 -2.12437 -1.36499 -0.427681
19.5796 21.9707 24.0634 0.779513 -0.0580654 -0.389701
18.201 22.6202 21.9391 -0.413208 -0.0064018 1.46905
23.8882 20.8825 21.6066 0.496434 -0.634428 0.0864952
22.9194 23.3888 20.9422 1.53708 -0.370096 -0.695942
21.6503 21.6459 22.6897 -0.33204 1.49561 0.324438
ITEM: TIMESTEP
6000
ITEM: NUMBER OF ATOMS
35
ITEM: BOX BOUNDS ss ss ss
1.6560078010664718e+01 2.4629300060311714e+01
1.6379597449318119e+01 2.5186930395052254e+01
1.6197805471705149e+01 2.4586973758587593e+01
ITEM: ATOMS x y z vx vy vz
20.3624 19.0275 16.334 1.11684 0.619568 -0.130263
17.4168 17.8367 19.6868 0.297074 -0.49252 1.83467
18.1015 18.0145 17.183 -0.745291 -0.00292773 -0.0379074
20.3472 17.2754 18.39 0.0875737 0.838073 -0.522272
16.6288 20.0058 18.4741 -0.165829 0.681315 -0.087191
19.4475 19.797 19.033 0.275213 0.492671 -0.0574353
24.464 19.2843 19.4789 1.31644 1.16593 0.489911
22.3316 18.9489 17.8532 0.792624 -0.86262 1.49038
22.7664 17.0896 19.9358 0.415965 -0.281973 -0.297395
18.7427 24.4986 20.2153 1.2243 -1.82982 2.10743
18.6193 20.9865 16.7725 -0.348807 -0.632488 1.55236
20.7653 22.2883 19.9838 -1.59445 -0.833488 -0.489777
17.9635 22.0516 19.2342 -1.51835 0.0252265 -0.79194
19.5484 23.5599 17.8452 0.71967 0.17904 -0.4933
23.4067 21.5998 18.95 -0.265168 1.44544 -0.617085
21.2287 21.4383 17.2817 -0.567663 -0.881516 -0.0840178
21.1936 25.131 19.9685 0.671552 -1.15142 -0.648927
22.2235 23.7947 18.0023 -0.0437683 1.24485 0.555878
20.0182 16.909 23.4377 -0.0177775 0.456016 -1.05753
17.2674 20.5335 23.5568 0.584588 -1.48089 -1.63461
20.1901 17.7296 20.9655 -0.939441 1.20565 -0.439659
19.2982 19.0142 24.572 -0.916581 -0.15046 -0.241794
17.9704 18.2018 22.4106 0.0554713 -0.967153 0.312019
19.5902 20.3584 21.8693 -1.29896 0.725989 0.623847
16.8605 20.1483 21.0938 1.29498 0.520985 0.0809925
22.2553 16.6449 22.4549 -2.33076 -0.214951 0.591312
21.6947 18.9965 23.2067 0.659441 2.99942 1.18523
23.9859 18.4469 21.7848 0.904515 -0.430304 -0.882304
21.9254 19.7915 20.4616 -1.34342 -1.14359 0.775541
20.3906 23.7854 22.2392 0.136938 -0.072548 -1.2265
19.6102 21.7292 24.1407 0.422398 -1.2228 -0.120889
18.2181 22.6241 21.9771 0.848448 -0.17263 -0.112505
24.1895 21.1222 21.4112 -0.244726 -0.284723 -1.2032
22.864 23.4316 20.9543 1.00242 -0.638901 1.00372
21.9385 21.7295 22.6665 -0.485453 1.14756 -1.42682
ITEM: TIMESTEP
7000
ITEM: NUMBER OF ATOMS
35
ITEM: BOX BOUNDS ss ss ss
1.6560078010664718e+01 2.4629300060311714e+01
1.6379597449318119e+01 2.5186930395052254e+01
1.6197805471705149e+01 2.4586973758587593e+01
ITEM: ATOMS x y z vx vy vz
20.2622 19.0488 16.3189 -0.743607 -0.128318 0.324532
17.8861 17.9439 19.7196 -0.899613 -0.615476 0.446902
18.0773 18.2615 17.0968 -0.602403 -1.14022 -0.376993
20.3147 17.3727 18.5522 -0.292487 2.29126 -0.814436
16.5473 19.9053 18.2601 0.795099 0.273213 0.0708954
19.6342 19.9343 19.007 0.268437 0.453198 -0.200209
24.5442 19.16 19.495 -0.182347 1.44315 -0.681259
22.4419 18.9896 17.7066 -1.01015 -0.850134 1.28298
22.5926 17.1409 19.9599 0.459921 0.245058 0.714834
18.7616 24.4162 20.1187 0.153218 0.927606 1.99737
18.6063 21.0737 16.8026 0.729501 -0.953364 -1.57593
20.5246 22.3036 20.0441 0.955943 0.203306 -0.145661
17.8478 22.1196 19.1735 1.59344 -0.0592237 1.23386
19.635 23.5525 17.7583 -1.2736 -0.447107 -0.102617
23.1482 21.4715 18.8386 1.26033 1.11477 -0.305465
21.1931 21.5659 17.1029 0.0995055 -0.954006 -0.527628
21.2281 25.201 20.3365 1.13236 -1.49189 -0.347599
22.1686 23.8312 17.989 -0.819616 -0.602363 -0.408319
19.7777 16.9241 23.6831 0.0399965 1.17487 -0.486727
17.2265 20.3324 23.6065 1.88022 -0.59441 -0.161911
20.1592 17.472 21.1684 1.42217 1.1118 0.243443
19.1085 18.9528 24.7398 -0.424639 1.24126 -0.647927
17.8103 18.152 22.4779 -1.50739 -0.34236 0.371828
19.5064 20.1633 21.7862 -1.38306 0.840952 -0.767024
17.0513 20.1061 20.908 -0.315944 0.175457 0.649748
22.3769 16.8061 22.4386 -1.10667 -0.415476 -0.65734
21.3936 19.1241 23.4043 -0.696648 -1.49335 -1.0469
23.8499 18.9136 21.9684 0.149525 0.0469878 0.485009
21.9489 19.6308 20.4623 0.952989 0.413658 1.00889
20.5425 23.6894 22.3901 -1.38597 -0.6854 -0.736594
19.7672 21.4509 24.1291 -0.439078 -0.703265 -0.432957
18.2853 22.5061 22.1038 2.15491 -1.27289 0.0889918
24.4853 21.2073 21.1632 0.0911345 1.41743 0.17604
23.0325 23.4688 20.6091 -0.236338 -0.737584 0.331034
22.0893 21.633 22.5059 -0.819124 0.112868 0.99714
ITEM: TIMESTEP
8000
ITEM: NUMBER OF ATOMS
35
ITEM: BOX BOUNDS ss ss ss
1.6560078010664718e+01 2.4629300060311714e+01
1.6379597449318119e+01 2.5186930395052254e+01
1.6197805471705149e+01 2.4586973758587593e+01
ITEM: ATOMS x y z vx vy vz
20.2469 19.108 16.119 -2.03238 -1.10713 1.12124
17.7692 18.1128 19.7009 0.73868 1.73516 -0.915014
18.0313 18.2955 17.0169 0.632677 -0.521813 -0.180391
20.2634 17.3477 18.2917 -0.244565 0.383765 0.109672
16.7963 20.1625 18.1975 0.572137 -1.23593 -0.87647
19.7046 19.8257 18.7729 0.913711 -0.369098 -0.0453259
24.3648 19.0597 19.5701 -1.90471 0.195029 0.725084
22.3217 19.1756 17.8979 -0.708728 -1.82314 0.530074
22.716 17.0398 19.7037 -0.666401 0.630244 2.77826
18.5855 24.4372 20.297 0.270852 -0.0267023 1.73677
18.7826 21.1199 16.6651 0.768408 -0.0805081 -0.949751
20.8273 22.0564 19.8686 0.402736 -0.0400402 -0.487052
18.1296 21.9514 19.5349 0.0519905 1.15034 0.12384
19.6781 23.509 17.9283 1.59587 1.1293 -0.0585429
23.4495 21.4485 18.7758 -0.958785 0.424431 0.904148
21.2598 21.6246 17.134 -1.36754 0.417938 -1.67369
20.9597 25.0184 19.9849 0.251569 -1.34361 -0.882368
22.3238 23.8248 18.061 -1.06762 0.554808 0.150691
20.0705 16.9964 23.6939 0.823577 0.421945 -0.637052
17.1612 20.4869 23.8613 0.672209 -1.02018 -0.654926
20.1385 17.396 20.8969 0.126385 -0.702215 0.130523
19.2758 19.1929 24.8021 -0.589801 1.10365 -0.501147
17.8725 18.1332 22.744 2.18897 1.03982 0.430963
19.3987 20.1714 21.7768 -0.431588 -0.464685 1.15347
16.8764 20.1666 21.083 -0.245964 -0.73719 -1.14528
22.3662 16.7759 22.3271 -0.0713027 -0.117424 -2.284
21.5218 19.2297 23.591 -1.22942 -0.707932 -0.410096
23.9584 18.7414 22.0952 0.389673 0.214191 -1.01292
21.9091 19.5103 20.6965 -1.21957 0.817785 -0.229243
20.3078 23.5394 22.1388 0.318794 0.979802 -0.365522
19.6026 21.6042 23.9223 -0.21763 -0.201825 -0.751607
17.8256 22.4612 22.2138 -0.494803 -0.712308 1.16131
24.2515 21.1143 21.1492 0.878585 0.975302 0.562362
23.0004 23.4794 20.7779 0.511292 -0.395937 -0.225871
22.0781 21.7082 22.535 1.34269 -0.56585 2.66786
ITEM: TIMESTEP
9000
ITEM: NUMBER OF ATOMS
35
ITEM: BOX BOUNDS ss ss ss
1.6560078010664718e+01 2.4629300060311714e+01
1.6379597449318119e+01 2.5186930395052254e+01
1.6197805471705149e+01 2.4586973758587593e+01
ITEM: ATOMS x y z vx vy vz
20.3572 19.1004 16.1447 -1.40184 -1.4437 -0.535379
17.8479 17.7904 19.868 -0.080039 0.936307 -0.685818
18.2612 18.1503 17.2127 0.05596 0.459534 -0.27662
20.4737 17.6806 18.4244 0.692871 0.399649 -0.548461
16.5982 19.8945 18.2217 0.119739 0.121341 -0.813862
19.2583 19.9246 19.1731 0.281774 2.66967 -0.280064
24.6133 19.2525 19.6294 0.0901352 0.145386 -2.16834
22.6444 18.9838 17.5169 0.490539 0.478254 0.827426
22.8322 17.225 19.7408 0.970345 -2.37371 0.0912503
18.6766 24.3659 20.4267 -0.184548 -0.473552 0.393197
18.6464 20.9671 16.9128 0.733567 -0.219155 0.511004
20.4738 22.235 20.1049 -1.70952 1.17852 -0.584422
17.5925 22.2133 19.1295 1.47884 0.383716 -0.669035
19.5561 23.5337 17.9455 1.25885 0.260234 0.983528
23.6579 21.4787 18.7942 0.391886 0.438249 0.205162
21.1689 21.2257 17.3837 -0.976837 -0.555521 -0.988065
21.0591 25.044 19.9615 -1.52989 -1.03921 -0.468094
22.1131 23.6706 18.0267 0.244117 -0.684396 1.288
19.8651 16.9136 23.6612 2.35574 -0.315091 1.13136
17.3195 20.5855 23.4639 -1.29852 -0.258626 0.0550734
20.3146 17.551 20.9763 -1.49718 0.707172 -0.654101
19.1419 19.2885 24.7003 -0.0327598 0.044983 0.678487
17.5984 18.3023 22.6117 0.470122 1.44659 1.21775
19.5674 19.9242 21.9449 0.539556 0.752483 -0.502347
17.042 20.4155 20.8434 0.207533 -0.234621 0.17001
22.1016 16.571 22.3064 0.505882 -0.0624991 -0.39589
21.5304 18.9432 23.5611 1.50916 -0.230364 0.999887
23.6285 18.763 21.9078 -1.50435 -0.497353 0.552187
21.995 19.8521 20.0936 -0.459901 -0.708594 0.798162
20.7168 23.7259 22.4326 -0.878851 -0.132884 -1.77886
19.832 21.665 24.0775 0.28636 -0.249228 0.365209
18.2228 22.4663 22.0225 -1.20968 0.159008 -0.224046
24.3366 21.2957 21.2785 1.82627 -0.18625 0.248349
22.8252 23.4995 20.9005 -0.229131 0.430872 0.544079
21.9565 21.3267 22.4256 -1.51619 -1.34723 0.513279
ITEM: TIMESTEP
10000
ITEM: NUMBER OF ATOMS
35
ITEM: BOX BOUNDS ss ss ss
1.6560078010664718e+01 2.4629300060311714e+01
1.6379597449318119e+01 2.5186930395052254e+01
1.6197805471705149e+01 2.4586973758587593e+01
ITEM: ATOMS x y z vx vy vz
20.1713 19.1545 16.2346 -0.414692 0.0690768 0.332091
17.7137 17.7623 19.7036 0.999011 0.885134 0.718245
18.0817 18.0824 17.2563 -1.73997 0.291377 0.975437
20.1875 17.2663 18.3708 0.835829 1.06793 -0.370438
16.9368 20.017 18.2766 -0.0194644 -0.816771 -0.983243
19.5946 19.668 19.0453 0.812197 0.833279 -1.80725
24.5227 19.2712 19.5183 -1.33437 0.469443 1.23825
22.4037 19.1363 17.789 0.58705 1.79663 0.00173582
22.7847 17.1611 19.7676 0.136937 -2.04058 -0.109032
18.6857 24.5045 20.4084 0.266823 -0.852871 -1.03606
18.553 21.0677 16.4922 -0.423535 -0.718181 -0.946064
20.7163 22.2251 20.2251 -0.138498 1.39131 0.735633
18.0383 21.9821 19.4555 1.14021 -0.0709294 -0.627728
19.5053 23.6694 17.8191 1.05023 -0.569954 -0.619183
23.2229 21.4547 18.9046 -0.0124591 -0.446993 -0.45993
20.983 21.5373 17.2775 0.565356 0.675829 0.923357
21.1106 25.0768 19.7787 -0.346147 -1.21393 0.76012
22.1972 23.6805 18.0825 -1.87473 -1.20308 1.61045
19.881 16.9817 23.4805 0.13969 -0.568709 -0.0532436
17.2477 20.5639 23.5448 -0.794587 -0.0485179 -0.398412
20.3426 17.6488 21.03 -1.11531 -1.33241 0.105317
19.1217 19.1069 24.452 0.477938 0.481774 2.15525
17.8182 17.9671 22.2055 0.689274 0.344396 0.426494
19.4104 20.1913 21.9547 -0.0553079 1.30807 -0.574473
16.9463 20.038 20.9277 0.637365 1.1236 0.254718
22.2621 16.7205 22.3485 0.161382 1.04164 -1.65924
21.6001 19.141 23.3834 -0.573742 -0.18337 0.772905
23.9455 18.6254 22.0818 1.66216 0.533982 -0.902187
21.9735 19.6931 20.5276 -1.3001 -1.86548 0.64608
20.6291 23.8473 22.3154 -0.327354 -0.845324 0.262577
19.8124 21.7733 23.9906 1.04536 -0.0200146 0.271117
18.125 22.6755 22.0835 -0.135983 -0.0502416 -1.10467
24.2154 21.0219 21.3485 -0.183171 0.170643 -0.763913
22.9174 23.4759 20.9344 0.285961 0.444592 0.577705
22.1677 21.6362 22.8101 -0.703353 -0.0813636 -0.352408
ITEM: TIMESTEP
11000
ITEM: NUMBER OF ATOMS
35
ITEM: BOX BOUNDS ss ss ss
1.6560078010664718e+01 2.4629300060311714e+01
1.6379597449318119e+01 2.5186930395052254e+01
1.6197805471705149e+01 2.4586973758587593e+01
ITEM: ATOMS x y z vx vy vz
20.2841 19.1624 16.2873 0.813595 0.357845 -0.0836872
17.7657 17.8453 19.6763 -0.969413 0.723201 0.0665117
18.1742 18.1955 17.0913 -0.553172 0.531173 1.40919
20.4147 17.2688 18.3705 0.528678 -2.48863 0.0185619
16.4511 19.903 18.2396 0.147688 -1.67733 1.51647
19.5502 19.7358 18.9253 -0.813982 0.407862 2.07068
24.5347 19.2514 19.6193 0.550138 1.3544 0.391238
22.4023 19.1349 17.7173 -0.128882 -0.654493 -1.89258
22.7795 17.3459 20.0027 -1.296 0.286545 0.512143
18.7106 24.4922 20.5438 1.60404 -0.123473 -0.491036
18.5389 21.1616 16.9002 0.0983188 -0.726784 -1.41792
20.6306 22.3314 20.0613 1.21986 2.05349 -2.01994
17.8207 22.0613 19.4492 -1.52675 -0.955843 -1.38591
19.4309 23.5403 17.9942 -0.545991 0.120286 -0.570483
23.5732 21.5799 18.7231 0.036951 -1.4308 -1.17406
21.1493 21.5484 17.1222 1.84048 0.962384 0.0762375
21.1416 25.0552 19.8367 1.35567 -0.248997 1.97687
22.3029 23.6805 18.0714 -0.707797 0.791447 0.530896
19.89 16.8591 23.6768 -0.398132 1.18748 -0.321381
17.3838 20.4945 23.4649 0.73219 -0.816533 -0.706355
20.2961 17.4014 21.1415 0.335967 1.64196 -0.955888
19.0499 19.0367 24.5787 0.146907 -1.77302 0.605623
17.8655 18.1971 22.3239 1.27738 0.761296 0.0860574
19.5393 20.341 21.6906 -0.237448 -0.664884 -0.0961196
16.8244 20.1178 20.8296 -1.5771 -0.0312366 -0.392309
22.2449 16.5603 22.6906 0.599505 0.994193 -0.901599
21.3474 19.0911 23.1944 -0.79009 0.119293 0.84124
23.9355 18.4533 22.1714 -0.89066 -0.474869 -0.253041
22.0995 19.8094 20.4163 -0.870938 -0.230458 -0.246074
20.6132 23.8077 22.2696 -1.12626 0.587033 0.679062
19.7789 21.6049 24.1196 -0.162226 0.38402 0.793572
18.0324 22.6434 22.2204 0.363727 0.166085 0.421758
24.295 21.0762 21.2766 0.548627 0.892564 1.3278
23.0804 23.4898 20.6469 -0.650465 -1.26765 -0.04326
21.8933 21.5477 22.4814 1.04559 -0.75755 -0.372269
ITEM: TIMESTEP
12000
ITEM: NUMBER OF ATOMS
35
ITEM: BOX BOUNDS ss ss ss
1.6560078010664718e+01 2.4629300060311714e+01
1.6379597449318119e+01 2.5186930395052254e+01
1.6197805471705149e+01 2.4586973758587593e+01
ITEM: ATOMS x y z vx vy vz
20.2982 19.1096 16.2412 1.81968 1.12643 -0.438486
17.845 17.646 19.6028 1.34332 -1.7652 -1.32604
18.2428 18.0793 16.9582 -0.856103 -1.41585 0.856093
20.4198 17.3371 18.4812 -0.61935 -0.414487 -1.03993
16.6829 19.8745 18.2001 -0.136618 1.35799 0.513125
19.4397 19.8285 19.0167 1.11954 -1.07035 0.234559
24.5203 19.2612 19.5251 1.38306 -2.12489 -0.321344
22.2612 19.0521 17.9206 -1.56838 0.934234 -1.7337
22.8156 17.1914 19.7838 -0.927518 -0.386767 -0.622366
19.0684 24.4584 20.0893 1.30268 -0.39716 -1.31669
18.3737 21.1175 16.6718 1.30204 0.920477 0.350897
20.6597 22.3046 20.0813 2.09589 1.24807 0.606954
17.9136 22.1602 19.2353 -0.17135 0.953479 0.492769
19.3466 23.3968 17.6436 -0.898188 0.944113 0.292849
23.1202 21.6262 18.9939 -0.219535 0.227694 0.932978
20.8827 21.4573 17.412 -0.97687 0.385511 1.07679
21.4649 25.4524 20.3675 0.0242447 -0.216113 -1.12498
21.8412 23.954 18.3463 -1.00536 -1.72032 1.29664
20.0237 16.9012 23.5819 -0.00784761 1.79053 0.194024
17.2168 20.4431 23.5665 -1.63509 -0.806451 0.645418
20.0309 17.4562 21.1157 0.555971 -1.09695 0.940886
19.1261 19.1138 24.631 1.19706 -0.160226 1.03493
17.651 18.0194 22.4535 -0.469004 0.132665 0.547891
19.504 20.048 22.0198 0.800112 -1.12646 -0.493874
17.1672 20.2014 20.8429 0.1048 -0.340558 1.6877
22.2078 16.6504 22.3368 0.282989 -0.626423 -1.1659
21.644 19.1872 23.3223 -0.304249 -1.10185 -0.846744
23.9936 18.3879 22.1173 -0.777802 -0.0378518 0.914189
21.95 19.6546 20.5451 -0.0850901 0.0332337 -0.408406
20.7013 23.8648 22.3991 -0.42654 1.60405 -0.856806
19.6463 21.7236 23.96 -0.151766 0.107721 -0.672054
18.288 22.6848 21.7612 -1.21185 0.991112 -1.21111
24.3767 20.9874 21.2608 0.815335 1.64648 1.23862
23.0779 23.5458 20.8605 -0.166455 -0.933965 -0.327245
22.0232 21.6483 22.4798 -1.53175 1.33809 0.0483791
ITEM: TIMESTEP
13000
ITEM: NUMBER OF ATOMS
35
ITEM: BOX BOUNDS ss ss ss
1.6501385327662227e+01 2.4583430467387615e+01
1.6303193574420142e+01 2.5481615898173082e+01
1.6121258683157777e+01 2.4419061610364096e+01
ITEM: ATOMS x y z vx vy vz
20.3875 18.9545 16.2999 2.0994 0.754798 -1.41349
17.8688 18.1541 19.9524 -1.32659 -0.446076 0.591807
18.0795 17.9857 17.253 0.149631 1.22405 0.46982
20.326 17.3779 18.5886 -0.728456 0.845623 -1.04682
16.8218 20.0158 18.1652 -0.670069 0.251909 -1.26597
19.4866 19.9325 18.7573 0.183691 -1.42982 -1.32689
18.6485 20.9596 16.5109 -0.368361 3.00936 -0.113938
24.6405 19.3683 19.3522 1.42377 -0.233262 -0.449898
22.5926 19.0895 17.7031 -0.629551 -0.569671 -0.369549
22.6482 17.2221 19.6028 0.655606 0.107656 0.295027
18.9584 24.4983 20.1147 -0.333621 -0.981985 0.358953
17.7402 22.1845 19.2395 0.441589 -0.504859 1.52549
19.342 23.3653 17.7633 -1.18352 0.907836 0.426677
20.5491 22.2771 20.1878 -0.984727 1.35638 -2.75867
23.1995 21.6855 19.0145 0.603055 -0.451292 -0.736306
21.2648 21.358 17.2112 -0.102982 0.998508 1.19056
21.8915 23.9074 18.2926 0.903256 -0.0608165 -0.055029
20.1406 16.9456 23.7747 1.7802 -0.812269 -0.329542
17.4654 20.5538 23.4721 -1.33876 -0.0086358 0.93578
20.3035 17.5822 21.2195 0.617003 -0.713371 0.5893
19.6902 19.4789 24.206 -0.0887213 0.13971 0.684527
17.9394 18.0351 22.7157 1.5194 0.349992 0.279777
19.3082 20.2011 21.6435 -0.709989 -0.00720005 0.572884
16.699 20.2161 20.7578 -0.370357 -0.349585 1.92391
22.3455 16.3488 22.2411 1.15356 -1.40878 1.62661
22.0384 18.9537 23.1204 -0.927582 0.665044 0.648266
23.9946 18.0427 21.7522 0.178353 -1.0302 0.593491
21.879 19.6924 20.3989 -1.35148 -1.33814 0.257754
20.4325 23.958 22.4712 0.132522 1.6388 -1.1799
19.3561 22.1648 24.1058 -0.470303 0.878464 -0.294037
18.046 22.7814 21.8545 0.661579 -0.88225 -1.0243
21.4387 25.1772 20.3563 1.09417 -2.22451 -1.34573
24.0479 20.7245 21.5583 0.767836 -1.06929 0.98128
22.7459 23.1127 21.2489 -0.899818 1.74742 0.286173
21.5083 21.5199 22.9191 -1.87973 -0.353535 -0.528032
ITEM: TIMESTEP
14000
ITEM: NUMBER OF ATOMS
35
ITEM: BOX BOUNDS ss ss ss
1.6539661113573622e+01 2.4377703869022429e+01
1.6328471301785843e+01 2.5105864551487514e+01
1.6104589335490569e+01 2.4219419730269106e+01
ITEM: ATOMS x y z vx vy vz
20.5353 18.9499 16.2435 -0.484178 0.879838 -0.799256
17.754 17.9314 19.6831 -0.409459 -1.99445 0.468259
18.3057 18.2065 16.997 -0.951391 -0.604208 -0.620619
16.6126 19.839 18.0834 -2.00543 -1.69503 2.87549
19.4214 19.7014 19.0065 -0.714898 -1.31948 0.182821
20.1906 17.1231 18.2899 -0.9524 -1.48217 0.0806754
24.6406 19.2026 19.3332 0.0632048 0.234447 1.25142
22.3855 18.8729 17.9141 1.32814 -0.530209 -1.14833
22.4824 17.0781 19.6822 -0.980393 1.68398 -0.459834
18.7558 21.0642 16.748 1.52863 -0.10936 -0.589599
18.5797 24.4127 20.2599 0.223101 2.54173 0.277193
17.7199 21.9851 19.2213 0.557777 0.511885 -1.50883
19.5511 23.6885 17.932 0.584591 -0.35422 0.0505572
20.3486 22.3204 20.0924 -0.287804 1.0156 1.31112
23.5299 21.6658 19.0968 0.758115 0.891253 -2.84847
21.3192 21.2387 17.594 0.0761635 -0.994575 0.260784
22.0188 23.7673 18.2639 0.0745323 1.85014 0.00130037
21.0834 25.1584 20.2076 0.903635 -2.36661 0.764739
20.095 17.3304 23.605 -0.701301 -0.691404 -0.421303
17.3616 20.6118 23.5948 -1.04115 1.75387 -0.727756
20.0457 17.766 21.0122 -1.26816 0.462315 0.190147
19.579 19.5079 24.5964 -0.164269 -2.07222 -1.39672
17.7962 18.175 22.4619 0.359616 -0.72591 -0.304191
19.6761 20.2893 22.0429 0.395965 1.50669 0.496574
16.9491 20.1705 20.8681 0.698752 0.141062 -0.654219