ITEM: TIMESTEP
0
ITEM: NUMBER OF ATOMS
35
ITEM: BOX BOUNDS ss ss ss
1.5734917440725347e+01 2.5185390828054047e+01
1.7430452159622568e+01 2.3284970616629277e+01
1.4372176356380022e+01 2.6326116319409696e+01
ITEM: ATOMS x y z vx vy vz
19.7662 23.062 16.7757 0.731826 0.09935 -0.0878672
16.4463 18.8139 16.5189 1.99624 -1.1463 -0.238673
15.739 21.2853 15.7704 -0.435798 1.47317 -1.54517
16.913 23.2809 17.1189 0.729999 -1.10035 1.35903
18.263 20.8706 16.9294 -0.661482 -1.58415 -0.0113076
17.6461 19.8775 14.3763 -2.28977 0.180626 -0.202173
17.9231 22.5882 14.7339 -1.68978 0.165494 0.616833
20.0537 20.9644 14.8163 -0.458039 0.133531 1.7657
19.3076 18.5357 16.1848 1.18842 -0.764466 -1.27897
21.0093 20.5391 17.2793 1.15841 -0.527417 0.252363
20.0423 20.3108 19.9281 0.00194513 0.528725 0.145701
19.6172 22.4283 21.6354 2.32651 -0.513301 0.552954
17.994 18.7403 18.6982 1.04054 0.314538 -0.983607
16.1207 20.8821 18.5114 -0.944287 1.9879 -2.52854
17.5402 20.4124 20.8572 1.20236 0.318418 1.33158
18.3822 22.4782 19.2089 -1.73414 -0.940153 -2.36169
19.0798 17.8881 21.0095 -2.20891 -0.610575 -0.403052
22.2129 21.6194 21.5503 -1.81577 1.47781 0.296066
22.7287 20.1238 19.3384 0.521705 0.576124 -1.3595
21.1652 22.6089 19.1419 0.725987 -0.0662939 0.540199
21.7137 18.4563 21.2716 0.681632 -0.0280365 -0.553875
24.2119 19.3288 21.5595 -0.977427 1.21227 -1.34187
20.6882 18.1035 18.5726 -0.601694 -0.0821911 -0.305839
20.3964 21.9441 24.2623 1.39387 0.386432 1.02407
20.4505 19.3186 25.3758 -1.10222 1.21734 0.939
19.6765 19.9035 22.7158 -2.90871 -2.16322 -0.383025
22.8905 22.8032 24.2011 1.31867 1.17607 0.187744
20.5196 17.4553 23.4767 1.96835 0.45341 0.466184
24.7968 21.522 22.9109 -1.44948 -0.265199 0.252778
24.5404 21.13 25.5899 1.20988 -0.152727 -0.431047
22.0117 21.2483 26.322 0.422309 -0.248038 1.14157
22.4793 20.0637 23.7063 1.41445 -0.192593 0.70672
23.138 18.7476 25.9324 0.416531 -0.525736 0.316061
23.1797 17.4345 23.4555 0.439884 0.376776 1.12997
25.1813 19.0556 24.0893 -1.61201 -1.16723 0.991678
ITEM: TIMESTEP
1000
ITEM: NUMBER OF ATOMS
35
ITEM: BOX BOUNDS ss ss ss
1.5734917440725347e+01 2.5185390828054047e+01
1.7430452159622568e+01 2.3284970616629277e+01
1.4372176356380022e+01 2.6326116319409696e+01
ITEM: ATOMS x y z vx vy vz
19.8386 23.0007 16.9617 0.00431305 -1.76571 -1.35922
16.8191 18.6012 16.726 1.08023 0.370139 -0.456067
15.976 21.014 15.9924 1.11274 -0.814442 -0.944693
16.8871 23.1536 17.0997 -0.6766 -0.522788 -1.01328
18.3613 20.8422 17.4146 -1.75575 -0.206206 0.125309
17.9215 19.597 14.6148 -0.53591 -0.200698 0.0866756
18.1383 22.2696 14.9705 -0.576916 0.0504877 1.11232
20.1984 20.9628 15.0608 -0.057298 0.352734 0.408131
19.5378 18.7301 16.3435 -1.41005 1.83868 -0.344166
21.2617 20.7164 17.5192 -0.575945 0.118284 1.37824
20.0814 20.5286 20.0099 0.792797 0.75672 1.91338
19.3157 22.5273 21.6488 0.111308 -1.21464 -0.505534
18.2193 18.6822 18.9661 0.947843 -0.315696 -0.547316
15.8922 20.815 18.5728 0.18923 -0.0255413 -0.434085
17.5331 20.5192 20.8612 0.71642 0.554729 0.532046
18.1171 22.6906 19.3332 1.21816 -0.730005 -1.16828
19.1363 18.0411 21.2136 0.192277 0.116484 -2.52522
21.9684 22.1881 21.6971 -0.243811 1.86039 -0.0539677
22.8845 20.6353 19.6574 -1.98485 0.0806442 2.35854
21.0504 22.8161 19.2067 1.19832 -0.185763 -0.695231
21.8922 18.4237 21.1901 0.543552 1.08538 0.123646
24.4174 18.8998 21.3433 0.714773 -0.802016 -0.537064
20.7688 18.2703 18.6793 0.145364 0.977251 -0.789506
20.4693 22.0555 24.2282 0.978974 -0.733375 1.3139
20.1169 19.5806 25.2129 0.903558 -0.235682 0.659264
19.5377 20.0902 22.6944 -0.929473 1.01741 0.184083
23.0339 22.8111 24.1353 0.932507 -0.405812 -0.363124
20.5169 17.6565 23.4317 -1.40063 0.882375 1.52209
24.5989 21.2052 22.24 -2.20298 -0.704198 -0.415301
24.4121 21.0032 25.1914 0.596596 -0.322355 -1.93356
22.0512 21.0867 25.8954 -0.356111 -1.25624 0.694144
22.3317 19.9487 23.2577 0.191009 0.138041 0.67545
22.7428 18.4955 25.374 0.0916494 -0.680547 -0.285366
23.0076 17.1622 23.2178 0.952194 0.241206 1.64258
24.7891 18.8047 23.8638 -0.907495 0.680756 -0.358796
ITEM: TIMESTEP
2000
ITEM: NUMBER OF ATOMS
35
ITEM: BOX BOUNDS ss ss ss
1.6235996452194279e+01 2.4836928840794194e+01
1.7207199400296208e+01 2.3164881075687997e+01
1.4653680499079716e+01 2.5906474890380650e+01
ITEM: ATOMS x y z vx vy vz
19.975 23.2058 16.7266 -0.791498 0.279271 -1.66776
17.2395 18.7099 16.7189 0.450101 0.410482 1.10803
16.1849 21.1197 15.8873 0.683207 -1.15067 0.264795
17.0204 22.9889 17.1905 0.974859 0.342662 1.63918
18.7335 20.9659 17.3399 -1.39288 1.04645 -1.62587
18.3265 19.8826 14.7112 -0.441109 -0.403444 -0.905489
18.1863 22.4883 14.9768 -0.878961 -0.235375 0.37441
20.5808 21.1343 15.1337 0.307995 0.566849 -0.338133
19.8238 18.6553 16.3805 0.0375187 1.61618 0.936303
21.4973 20.9945 17.503 1.80084 -0.117165 1.99554
19.7328 20.5277 20.1172 -0.0179182 1.19077 1.61488
19.0512 22.4499 21.915 -0.836443 0.550369 -0.0235536
18.4232 18.3735 19.125 0.307147 -0.114939 -1.46515
16.4979 20.3233 18.5091 0.579475 -2.40379 0.519646
17.3304 20.2903 20.9958 0.441135 0.146973 -1.28967
17.6715 22.5723 19.6327 0.541952 -0.467296 0.132343
18.5499 17.9725 21.5611 0.949011 0.203337 -0.655705
21.6084 22.2343 21.6013 0.186275 0.169524 -0.942819
22.6416 20.3153 19.8832 1.40108 -0.985293 1.69978
20.2906 22.9644 19.3182 -0.363637 0.954074 -1.33051
21.2328 18.3456 21.3621 -0.376522 -0.0645945 0.0193348
23.9834 18.4385 21.2319 -0.730431 -0.843764 1.51411
21.0562 18.5177 18.5868 0.4289 1.37184 1.19251
24.1578 21.047 21.8699 -0.721982 -0.0487241 0.353432
20.3762 19.7695 25.3707 -0.273205 -0.0237662 -0.461523
19.4459 20.0505 22.8996 0.115196 -0.660913 1.43168
20.6158 22.0968 24.1751 -0.506706 0.722201 -0.703055
23.1885 22.8484 23.7179 -1.30584 -2.22557 0.309821
20.3689 17.7257 23.7842 -0.0790009 -0.312914 1.66251
24.8446 21.1692 24.4942 1.23804 -1.53458 -4.08235
22.466 21.1499 25.7822 0.956199 -0.775373 0.234453
22.2266 19.9662 23.2345 0.00740679 1.48532 -0.948742
22.7342 18.529 25.3672 -0.775667 0.381631 0.574023
22.8921 17.1508 23.2142 -1.39763 -0.690716 -0.535424
24.8704 18.8515 23.5074 -0.51691 1.62094 -0.601034
ITEM: TIMESTEP
3000
ITEM: NUMBER OF ATOMS
35
ITEM: BOX BOUNDS ss ss ss
1.6322584352088636e+01 2.5474116354414186e+01
1.7125106537794093e+01 2.3328944263950916e+01
1.4896409883332923e+01 2.5310336111848727e+01
ITEM: ATOMS x y z vx vy vz
20.2568 23.4459 16.6301 -0.121115 -0.603254 -0.573952
17.5648 18.5444 16.7154 0.398819 0.19235 0.739405
16.4578 21.1965 16.692 0.0628039 1.45786 0.307182
17.8098 23.504 17.3183 1.08343 2.10661 0.247438
18.733 20.9329 17.6604 0.533909 -0.524129 0.838416
18.2626 19.8713 14.9119 -0.000233052 -1.34105 0.830366
18.25 22.5056 15.1555 -0.801376 0.369082 0.92676
20.4986 21.0864 15.5362 0.507832 -0.174768 1.3104
20.1824 18.7655 16.7247 0.255506 0.363889 0.987512
18.7901 18.3843 19.2525 -0.243577 -0.561565 -0.674181
16.2215 19.5106 18.6431 0.029398 0.316356 0.340287
17.0421 22.2181 19.5469 1.46714 -1.52444 -2.43969
19.6342 23.188 19.2855 -0.319923 -1.08867 -0.188536
21.5717 21.2229 18.097 0.21125 0.921904 -0.891925
23.0868 20.9278 20.0671 0.449692 1.8995 0.401086
21.6939 18.7 19.0038 -0.245416 0.970989 0.845234
20.1776 20.5145 20.3455 -0.884924 0.330513 0.237263
18.7952 22.3957 21.7063 -0.89755 -0.963537 0.697907
17.4495 20.1322 20.8757 0.719018 1.19722 0.343056
18.2828 17.7157 21.6697 0.277473 -0.991403 -0.767184
20.7331 17.7155 21.0793 0.563724 -1.06939 1.29582
20.5866 20.0316 25.3823 0.380191 -0.582735 -0.723518
19.1449 20.1213 22.8888 -1.2868 1.05402 0.133258
20.5687 22.2307 23.8118 0.484635 0.232981 -1.33614
20.0538 17.9276 23.7848 0.608158 -1.58862 0.546803
21.4059 22.7261 21.0814 -0.357281 1.92275 -1.21397
23.4094 18.4361 21.0279 0.314204 0.628836 -0.32937
24.7338 20.7726 21.9184 0.698289 -0.463499 0.658618
23.1427 22.5454 22.9249 -0.532716 -1.943 -1.2285
25.1876 21.5512 24.1355 -2.54276 1.01678 -1.89943
22.9876 20.703 25.2544 0.834669 -0.3112 -0.154472
21.9334 20.0292 22.6792 0.478727 0.503785 1.19994
22.3473 18.2455 25.3164 0.429095 -0.150838 -0.996835
22.5174 17.1829 22.9842 -1.81752 -1.27335 1.38934
24.3121 18.8441 23.718 -0.736772 -0.32997 -0.85839
ITEM: TIMESTEP
4000
ITEM: NUMBER OF ATOMS
35
ITEM: BOX BOUNDS ss ss ss
1.6331083119244074e+01 2.5209620886262435e+01
1.6875469754921863e+01 2.3564646854346048e+01
1.4979045422295732e+01 2.5224842953406775e+01
ITEM: ATOMS x y z vx vy vz
19.8795 23.5377 16.8611 0.128101 0.243263 -1.04604
17.5962 18.5634 16.6091 0.842498 -0.0257314 -1.012
16.6301 20.813 16.1727 0.485789 0.202948 -0.105574
17.2668 23.1964 17.344 1.4953 -1.03546 0.383951
18.9172 20.9411 17.8533 0.0978783 1.20832 0.323551
19.0151 19.7572 14.9346 -0.624126 1.93903 -1.25115
18.671 22.2507 15.1353 -1.17066 -1.8787 -1.41935
20.0928 18.4747 16.8373 2.52511 -1.32044 0.0168316
18.6017 18.2625 19.1189 -0.958412 -0.111529 1.88777
16.4809 19.7521 18.5713 0.455381 0.657844 -0.884321
17.0137 22.1336 19.6302 -0.0352753 0.364489 0.637044
19.1585 23.4979 19.246 -1.28255 -0.885744 1.06017
20.9931 21.0404 16.1527 0.015599 -1.12899 1.66313
21.4668 21.878 18.4205 1.66532 0.0308276 -1.01
21.511 19.1278 18.7519 -0.434131 -0.422181 -0.705647
19.7039 20.3993 20.4403 0.138973 0.313495 -0.423021
18.5174 22.5162 21.7996 -1.0796 0.69359 -0.0690575
17.1423 20.1982 21.2275 -0.0688561 0.117033 2.48026
18.289 18.0326 21.7565 -0.219355 -0.952736 0.664988
20.509 20.1873 25.4824 0.132649 -0.865531 1.6253
19.0338 20.4285 23.3893 0.396342 0.290652 -0.709531
20.0492 17.9733 23.715 0.138824 -0.911281 -1.47203
23.0922 20.9454 20.2213 -1.68844 -0.119632 0.289497
20.6846 17.8909 20.9082 -0.528607 0.963444 -0.0287145
20.9409 22.2014 23.7217 0.571819 -1.63242 0.67995
21.1771 22.5091 21.0647 -0.556547 -1.57377 0.732778
23.349 18.5098 20.9799 0.99136 1.09171 -1.16832
25.3103 20.3872 21.7182 -0.673945 -0.262711 0.836296
23.5546 22.1537 22.5004 1.03736 -0.722106 1.79793
25.4642 21.3874 24.0461 1.9273 -0.839767 -1.8425
23.0333 20.8963 24.979 -0.860495 1.42502 -1.38206
21.6908 19.8875 22.5969 -0.81682 1.47013 1.08229
22.3188 18.2044 25.104 -0.787527 0.872849 0.0149047
22.2939 16.9987 22.7969 -1.34158 2.90908 -1.58131
24.3761 18.8913 23.7383 0.0813254 -0.104976 -0.066011
ITEM: TIMESTEP
5000
ITEM: NUMBER OF ATOMS
35
ITEM: BOX BOUNDS ss ss ss
1.6331083119244074e+01 2.5209620886262435e+01
1.6875469754921863e+01 2.3564646854346048e+01
1.4979045422295732e+01 2.5224842953406775e+01
ITEM: ATOMS x y z vx vy vz
19.9293 23.4996 16.8451 -0.0858314 -1.56082 1.28292
17.2445 18.5565 17.0175 -1.05155 -0.0911687 -0.961505
16.8252 20.779 16.0791 0.690858 0.37643 -0.58327
17.4297 23.0971 17.2321 1.28014 0.493226 -0.601039
18.9138 20.9145 17.9368 -0.055412 -0.601833 -0.0580405
18.9779 19.3728 15.117 -1.81673 -0.125201 1.5776
18.967 21.9512 15.0882 -0.762796 0.440859 -0.448824
19.8821 18.2102 17.28 -0.104459 -0.410244 2.06551
18.4644 18.7902 19.3966 0.32179 1.1579 -1.81186
16.0658 20.1326 18.5995 -0.312802 1.54574 -0.733516
16.9876 22.4697 19.6179 -2.51834 -0.476785 -0.164484
19.2775 23.5778 19.5509 0.952802 -0.343288 -0.0875087
21.0656 20.5303 16.1506 0.685667 0.503641 1.1872
21.4104 21.9934 18.0752 0.575777 0.808825 0.30768
21.5708 19.3347 18.7632 -0.951596 0.22988 0.522054
19.9955 20.7253 20.5133 0.161341 -0.183024 -1.46094
18.6839 22.6824 21.9396 -0.857514 -0.389752 -0.478878
17.2641 20.3787 21.1618 -0.520037 -0.716691 0.156744
18.3678 17.8997 21.8842 0.428937 -2.21431 0.0524758
20.3706 19.8345 25.1654 1.17435 -0.330086 -0.568435
18.9865 20.1874 23.086 -0.622982 0.593692 -1.75296
20.2282 17.5792 23.578 -0.108122 0.0532991 -0.96613
22.9217 21.1848 20.2369 1.45167 1.36344 1.28311
20.8553 17.791 20.7765 0.448459 2.10671 2.71435
20.7485 21.9964 23.4555 -0.379428 0.138929 -0.407808
21.4135 23.047 21.0056 -1.26944 0.220941 -1.3745
23.4466 18.7058 20.7883 -2.10611 0.0990626 -0.334095
24.9775 20.6533 21.7897 1.14355 -1.61173 0.227642
23.221 22.3303 22.8683 0.678934 -0.50629 0.4331
25.2018 21.54 24.189 0.0318323 0.0255763 -0.461295
22.9179 20.5149 25.0241 -0.600544 0.242472 0.506455
21.7606 19.7885 22.4973 0.403027 1.24106 -0.771686
22.4443 18.0407 25.0063 1.52093 0.209777 1.2794
22.6971 16.9238 22.5383 1.44813 -2.18604 -0.284288
24.3109 18.8117 23.571 0.725503 -0.104196 0.714814
ITEM: TIMESTEP
6000
ITEM: NUMBER OF ATOMS
35
ITEM: BOX BOUNDS ss ss ss
1.6331083119244074e+01 2.5209620886262435e+01
1.6875469754921863e+01 2.3564646854346048e+01
1.4979045422295732e+01 2.5224842953406775e+01
ITEM: ATOMS x y z vx vy vz
19.3966 23.4982 16.9557 2.29269 -0.104569 1.2251
17.4613 18.4332 17.0536 0.279768 0.857752 0.268352
16.804 20.7299 15.7908 0.247799 0.573045 -0.463736
17.0631 22.734 17.5165 2.0951 -1.75572 -0.00211871
18.8839 20.8287 17.7264 -0.990788 0.426058 -0.328597
18.783 19.5154 14.8365 -0.842944 1.93818 -0.483445
18.8629 21.9974 14.9103 -0.743844 -2.7812 -1.4158
20.1227 18.1751 16.6881 -1.78809 1.5465 -1.29137
18.8874 18.5861 19.0878 -0.98694 0.0770923 -0.392137
16.3532 20.3192 18.4059 0.630411 -1.48093 1.45607
16.7767 22.6704 20.0755 -1.94217 -0.852187 -0.256891
19.1931 23.2316 19.4576 -0.836959 0.357799 0.24069
20.8898 20.6053 16.0194 1.26609 -1.58243 0.0831984
21.3741 22.2233 18.3 -0.325332 0.568037 -0.173309
21.4835 19.3385 18.6894 -0.880683 0.15408 -0.778823
20.0793 20.6188 20.6414 0.136685 0.391405 0.518593
18.783 22.6831 21.9255 -1.49296 -0.873706 0.505726
17.5542 20.4666 20.8258 -0.958254 1.6504 -0.289383
18.3311 18.1213 21.7627 1.45274 1.16672 -1.88505
20.5286 19.8634 25.3185 0.877482 -0.54101 2.21009
18.9096 20.3007 23.2594 -1.57023 0.56335 -1.05303
20.1496 17.9496 23.54 -0.822135 -0.412017 -0.471374
22.9389 21.0628 20.159 -0.294775 0.938808 0.787821
20.8934 17.8705 20.8733 0.101047 1.72279 0.220264
20.826 22.2588 23.6009 1.28238 -1.51282 0.183348
21.3214 22.9163 21.0654 -0.662999 -0.91028 -0.798921
23.5852 18.6547 20.8714 -0.653859 -0.0383162 0.351573
25.1931 20.47 21.8142 0.27163 -1.48382 0.527168
23.3335 22.0493 22.8963 -0.499664 -0.907312 -1.28028
25.3878 21.0608 24.2706 2.62046 0.0334119 1.06292
23.0534 20.7707 25.1864 0.206558 0.42476 0.488483
21.8065 19.913 22.7173 -0.0630689 -0.80981 0.190105
22.2224 18.0076 25.2604 -0.00917314 2.14153 -0.0843265
22.4856 17.0201 22.7382 1.06279 -0.343084 -1.15358
24.1069 18.8809 23.5848 1.54123 0.857486 2.28269
ITEM: TIMESTEP
7000
ITEM: NUMBER OF ATOMS
35
ITEM: BOX BOUNDS ss ss ss
1.6344183882158454e+01 2.5565105867128779e+01
1.7068120503955470e+01 2.3359184337071483e+01
1.4685569474362339e+01 2.5397092622212984e+01
ITEM: ATOMS x y z vx vy vz
19.7063 23.4323 16.9729 1.14191 -0.438138 1.01817
17.4492 18.677 16.8551 0.955148 -0.990686 -1.06059
16.92 20.967 15.8084 -0.835697 -0.0260124 0.964911
17.3428 22.9551 17.645 -0.11936 -0.558972 -0.301362
18.8269 20.7124 17.8678 -1.7432 0.312077 0.140545
18.7601 19.3032 14.7604 -2.45092 -1.40748 1.49603
19.1267 21.7351 14.9354 0.306189 -1.58096 -0.914025
20.0828 18.3756 16.7764 -0.484825 -0.915113 -0.345896
18.8086 18.2662 19.1344 -0.688452 0.573887 0.57184
16.2167 20.552 18.3575 0.606999 2.23575 -1.72854
16.5822 22.6837 20.1615 -0.626417 -2.43478 -0.974285
19.0891 23.3547 19.6004 0.272608 0.559441 0.88761
20.9787 20.707 16.2496 0.342675 -0.0883215 -0.410952
21.3036 22.1144 18.6206 0.406805 3.19981 1.30735
21.4658 19.2884 18.7386 -0.550429 0.357904 -0.0347242
20.1232 20.5435 20.6099 -1.36358 1.58535 2.17038
18.7112 22.4779 21.9954 0.590157 -1.42421 0.699341
17.4777 20.2554 20.4511 0.533998 1.18 -0.0243071
18.2543 18.0722 21.7578 -0.213924 -2.25141 -0.639917
20.3856 19.9102 25.2888 1.58947 -0.411989 -1.09949
18.7771 20.1396 23.1649 -0.440042 1.04142 -2.74735
20.0307 17.8128 23.845 -0.235017 0.479392 0.36628
20.7112 17.8315 20.9347 0.662558 0.179966 -1.62757
20.8706 22.0681 23.5799 1.08854 -0.942888 0.594449
22.9492 20.9766 20.3215 0.165984 0.573404 -0.176406
21.2679 23.04 21.1164 0.667428 0.040711 -0.088428
23.4485 18.6209 20.8128 -0.252757 -0.286767 -0.46901
25.3243 20.5483 21.5314 2.3998 -0.301444 1.31995
23.321 21.9947 22.6514 0.120796 0.761513 1.20179
25.4243 21.2784 24.0113 -0.0418708 -0.703574 -1.07455
23.0573 20.9079 25.02 -0.465026 1.51873 2.14175
21.6275 19.6772 22.8107 0.139397 1.35582 -1.79714
22.4291 18.2684 25.1752 -1.94454 -0.574041 2.48841
22.6306 17.1874 22.8711 1.2816 -0.187961 -0.159704
24.3438 19.0899 23.3918 -0.816 -0.430429 -1.69456
ITEM: TIMESTEP
8000
ITEM: NUMBER OF ATOMS
35
ITEM: BOX BOUNDS ss ss ss
1.6344183882158454e+01 2.5565105867128779e+01
1.7068120503955470e+01 2.3359184337071483e+01
1.4685569474362339e+01 2.5397092622212984e+01
ITEM: ATOMS x y z vx vy vz
19.8428 23.3511 16.6824 -0.396709 1.17413 1.25326
17.2356 18.7569 17.0605 -0.117388 0.558417 0.440491
16.4043 20.8269 15.9208 0.210122 0.531714 0.981504
17.176 22.956 17.1145 -1.45216 -0.694154 -1.39882
18.723 20.8517 17.8275 -1.5912 -1.24813 2.01141
18.5944 19.5246 15.0833 0.0379206 0.587763 -0.463649
18.5388 22.0315 14.8957 1.30793 -0.875403 0.322228
20.0725 18.7005 17.1498 0.996102 -2.02152 -2.17861
18.7497 18.4953 19.395 0.839265 1.29579 -1.7128
16.052 20.5836 18.6054 -0.668159 0.448562 1.45102
16.8513 22.5656 19.7208 0.150427 -1.23087 0.333718
19.3125 23.3364 19.1853 1.04518 -0.215203 -0.301836
20.6122 20.7995 15.8252 0.517651 0.510658 -2.10774
21.3682 21.886 18.3247 2.10803 0.253651 -0.210185
21.8861 19.2786 18.931 -1.38334 0.477941 -0.197813
20.3652 20.6869 20.4563 -0.469768 -0.872311 -0.102873
18.8541 22.6841 21.7933 -1.44603 -0.562381 0.575024
17.7462 20.3567 20.8195 -0.40736 1.8665 0.938742
18.4262 17.595 21.8707 0.840527 -0.27685 -0.0532439
20.2803 19.602 25.1602 0.0836607 1.203 -0.913631
19.1206 20.0603 22.986 0.273731 -0.259327 -0.648461
20.337 17.5376 23.5984 -0.204267 -0.203417 1.43144
20.8056 17.8901 21.0624 0.71963 1.23664 -0.115971
20.6538 22.1569 23.4686 1.24551 0.0327887 1.69713
23.1489 21.147 20.4494 -0.714088 0.82977 1.07081
21.4862 23.2297 21.0562 -0.34633 -0.837338 0.356482
23.5678 18.5726 20.908 0.607939 1.01599 0.961691
25.2257 20.4668 21.9864 0.690907 -1.0142 0.791055
23.2235 22.3097 22.9422 -0.429354 -0.391887 -1.64173
24.7065 20.7651 24.3919 -2.00464 -1.26259 -0.951105
22.3312 21.2168 25.1978 -1.2036 1.86827 -1.5728
22.0273 19.7648 22.6817 -0.867492 0.304464 -1.28025
22.5616 18.5038 24.9322 -0.923757 0.845311 1.77876
22.8346 16.8076 22.9335 0.654588 -0.844715 0.38847
24.7031 18.5279 23.4084 2.29651 -2.23106 -0.931716
ITEM: TIMESTEP
9000
ITEM: NUMBER OF ATOMS
35
ITEM: BOX BOUNDS ss ss ss
1.6026422129736826e+01 2.5249031046471426e+01
1.6788468075952810e+01 2.3386914256000502e+01
1.4905059667022044e+01 2.5159485901806971e+01
ITEM: ATOMS x y z vx vy vz
19.6366 23.465 16.9162 1.46506 0.367666 0.614508
17.3781 18.4592 16.8774 1.88089 -0.298645 0.534299
16.7841 20.7773 15.8306 0.896811 0.687217 0.801041
17.2398 22.8891 17.4991 1.01277 1.69286 -1.10133
18.8209 20.7673 17.9962 -0.162566 -1.03294 0.923191
18.8459 19.7053 14.9167 0.872717 -1.30238 1.51298
18.8534 22.1622 15.1084 -1.79396 -0.564377 0.720299
20.0305 18.4818 16.945 -1.18131 0.666621 2.19933
18.9589 18.2324 19.1619 2.15069 1.06828 -0.330919
16.1995 20.4778 18.3555 1.58113 -1.3203 1.01119
16.7131 22.3742 20.0293 -0.935418 0.149438 -0.316494
19.2393 23.3626 19.4738 0.779581 2.06313 -0.16234
20.8586 20.7548 16.2059 -0.935041 -0.11362 -0.341083
21.3445 22.1043 18.3932 -0.289263 0.876371 0.619007
21.5734 19.4181 18.8965 0.568257 0.833903 -1.24625
20.178 20.7996 20.6536 -0.211712 -1.18553 -0.43346
18.5597 22.6036 21.9982 -2.64011 -1.0206 -2.39434
17.6557 19.9295 20.6211 1.46532 2.20045 1.98439
18.3112 17.8172 21.9565 0.351931 0.313233 0.912434
20.3587 20.1702 25.2312 -0.971049 -0.118344 -0.359466
19.0763 20.0348 22.9705 -0.723153 -2.34368 -1.06797
20.1952 17.8301 23.661 -1.57759 -0.823074 0.0100355
20.7087 17.8741 21.1264 -0.777858 -0.0943197 -1.38831
20.7172 22.1602 23.3014 1.08728 -0.59717 0.861305
23.079 21.1866 20.3826 -0.268259 -1.08004 -1.23331
21.5107 23.2918 20.9992 -0.443594 -1.76107 -0.208423
23.3337 18.3954 20.7108 -3.40658 -1.14505 0.776201
25.1171 20.1237 21.6307 -0.787885 0.355617 -0.867426
23.3855 22.3556 22.7672 0.904458 0.158529 0.54421
24.7161 20.4839 24.1371 -0.269946 0.0858197 0.899184
22.5432 21.4446 25.1189 0.549132 1.21513 0.916808
22.1399 19.9199 22.7935 0.296526 1.16293 -1.95907
22.4966 18.5937 25.0135 -1.30939 -0.0280156 -1.76161
22.6322 17.0614 22.8184 0.255101 -0.140449 0.202254
24.6339 18.318 23.3276 2.56704 1.0724 -0.870853
ITEM: TIMESTEP
10000
ITEM: NUMBER OF ATOMS
35
ITEM: BOX BOUNDS ss ss ss
1.6316563143865942e+01 2.5018492894584266e+01
1.6942643191203658e+01 2.3439707821567119e+01
1.4959236790163720e+01 2.5385295900287293e+01
ITEM: ATOMS x y z vx vy vz
20.3602 23.2586 16.4097 0.161726 0.166049 0.426885
17.6119 18.3142 17.0238 2.59649 -0.162139 -0.238229
16.5516 21.1837 16.7168 -0.405013 1.0162 -0.715494
17.8208 23.455 17.0636 -0.82591 0.248543 -0.332724
19.0601 20.776 17.6616 -0.285961 0.247976 0.859844
18.6562 19.5 14.897 -1.15767 -0.10775 1.68518
18.5488 21.8379 15.1403 -0.704181 -1.13485 0.16829
20.0241 18.273 16.6901 1.22491 -0.912616 -0.481527
18.5779 18.555 19.3561 2.15003 -0.713561 -0.0960735
16.1177 19.4881 18.8622 -2.07333 0.512341 0.607596
17.2202 22.0146 19.4645 -0.840501 0.153039 1.18727
19.349 23.4809 19.311 1.44081 0.918847 -0.162864
20.8818 20.8027 15.8065 0.721575 -0.457771 1.73031
21.3438 22.1307 18.443 0.211831 -0.736028 -0.323762
21.395 19.5658 18.5528 -0.440718 0.465579 -1.40843
19.8318 20.9438 20.3201 -0.627505 -0.514643 -1.32766
18.5419 22.6066 21.817 -1.12967 0.633937 0.53869
16.919 19.9681 21.1176 -0.555136 1.20266 0.19017
18.3343 17.9186 22.0093 -0.23704 0.389794 0.20352
19.2152 20.1226 22.9382 0.668541 -1.58745 -1.72006
20.4561 17.7658 23.7452 0.329963 0.33859 0.560503
20.8268 22.1215 23.2792 -1.2947 0.633469 -1.42446
20.4073 19.8728 25.1964 1.68696 -0.0616122 -0.224825
20.7097 18.4045 20.9748 -0.437759 0.238467 -1.41021
22.7224 21.501 20.806 2.17789 -2.2451 -0.985786
21.1179 23.43 21.049 0.15484 -0.75653 0.419804
23.2707 18.9029 20.603 -0.57926 2.73016 -1.75895
24.8511 20.4677 21.9753 1.35349 1.13986 0.30874
23.489 22.3574 23.1629 -1.1782 -0.270178 0.611111
24.7079 20.1715 24.612 0.199733 -0.602538 1.06414
22.4318 21.2502 25.2713 0.161487 0.188483 0.950842
22.3556 19.7254 23.0503 0.0473901 -1.75444 -0.204847
22.8554 18.3724 25.1337 -0.511053 0.0789488 0.851562
22.5517 17.1552 22.5315 -1.94068 0.187834 0.666583
24.7102 18.1308 22.8332 -0.0633719 0.526427 -0.215139
ITEM: TIMESTEP
11000
ITEM: NUMBER OF ATOMS
35
ITEM: BOX BOUNDS ss ss ss
1.6316563143865942e+01 2.5018492894584266e+01
1.6942643191203658e+01 2.3439707821567119e+01
1.4959236790163720e+01 2.5385295900287293e+01
ITEM: ATOMS x y z vx vy vz
19.9628 23.474 16.8571 -0.151903 -1.65217 0.103947
17.4501 18.4347 17.0275 -0.330983 -1.08687 -0.0121884
16.7133 20.7458 15.7501 -0.323822 0.241219 -1.55057
17.1941 23.0391 17.3099 -1.07674 -0.295339 -0.260123
18.897 20.9563 17.9617 0.614516 -0.770823 -0.568956
18.964 19.6805 15.011 0.12839 1.49105 -0.655485
18.6841 22.3264 15.2984 0.259624 -0.44872 0.843757
19.9881 18.4878 16.9371 -0.993763 -1.56745 -1.41113
18.7525 18.4281 19.203 0.805412 1.80627 -1.75708
16.2721 20.384 18.3957 -1.73008 0.758898 -0.881557
16.7437 22.4073 19.8738 0.0998285 1.14078 0.203214
19.1114 23.1102 19.2864 -0.551906 -1.21311 0.978033
21.0623 20.9507 15.9624 2.73447 0.632001 1.24694
21.4627 22.0361 18.3827 -0.151388 -0.532329 -1.54053
21.4644 19.3978 18.8888 -0.535724 -1.04164 0.137191
19.8066 20.5276 20.598 1.86022 -0.425304 -0.217731
18.393 22.512 21.8304 1.7871 0.413604 2.30503
17.0539 19.9527 20.9039 -1.03599 0.545457 1.7237
18.4076 17.8949 21.8822 0.925897 -1.2702 -0.0755341
18.9555 20.2648 23.109 -1.92662 -0.806618 -1.09116
20.1848 17.8881 23.9417 0.0203272 0.79503 -0.0261269
20.7718 22.1508 23.4952 -1.53072 -1.02559 -0.732272
20.5335 20.0944 25.2689 1.23466 1.88443 -0.23202
20.8878 17.9752 21.1157 1.15133 0.1758 1.67666
23.0899 21.0489 20.3179 -1.72525 0.174083 0.634825
21.2051 22.9631 20.8683 -0.504535 0.0993166 1.37302
23.6352 18.4868 20.6376 1.53635 -0.529934 -0.298712
25.013 20.4855 21.6863 0.14647 0.233225 0.94941
23.4623 22.2056 22.8882 0.441085 2.2265 1.4977
24.8351 20.4759 24.471 0.64384 -1.01508 -1.62614
22.7549 21.3119 25.2627 2.23175 0.0246344 0.659809
22.099 19.8651 22.7198 -0.702974 1.0498 -0.721305
22.7649 18.5522 24.791 0.0265422 -1.47333 -1.17833
22.5517 17.0297 22.755 -1.8998 -0.158825 1.13595
24.6968 18.2811 23.1368 -1.4756 1.62123 -0.632241
ITEM: TIMESTEP
12000
ITEM: NUMBER OF ATOMS
35
ITEM: BOX BOUNDS ss ss ss
1.6269321183340217e+01 2.4998875421118530e+01
1.7031944920718040e+01 2.3462364317786772e+01
1.4865157831707664e+01 2.5414277416474157e+01
ITEM: ATOMS x y z vx vy vz
19.7672 23.4056 16.8971 0.320771 -0.727164 -0.233464
17.4242 18.4446 17.1008 0.69278 -0.0566068 0.146494
16.4646 20.4391 15.7175 1.1056 -0.13578 -1.6151
16.8183 22.7642 16.9284 -0.310565 1.52195 -0.494452
18.8161 20.8584 17.7204 0.714451 -0.0227347 1.00392
18.8706 19.6026 15.1323 -2.01935 -0.144593 -1.62279
18.4914 22.1385 15.2597 -2.00287 -1.07317 -1.11626
20.1259 18.2693 17.1469 -0.124048 -0.126278 0.853561
18.8999 18.7419 19.3718 -1.65529 -0.538636 -0.449572
16.2477 20.5123 18.4974 0.958609 1.16239 0.971711
16.5838 22.8141 19.7153 -0.427447 -1.06754 0.874022
18.9606 23.0249 19.3188 -0.198923 1.1052 0.682616
21.0497 20.8349 16.0466 -0.218921 -1.15857 2.23518
21.3766 22.0937 18.5876 0.862238 0.481106 -2.93131
21.8337 19.4559 18.701 0.218492 -0.554104 0.823695
20.2044 20.6954 20.887 -0.47906 0.730761 1.62718
18.5911 22.7232 21.9271 -1.76277 0.608656 -0.544107
17.3313 20.596 20.8183 1.08459 0.579507 -0.791901
18.4848 18.0282 21.9144 2.08285 -0.918825 -0.843904
18.7735 20.3107 23.1267 0.674156 -0.701359 0.89725
20.636 17.8482 23.4989 -0.586938 1.65887 -1.83599
20.2844 19.9035 24.9664 0.598094 1.46893 -2.14213
20.7548 22.1327 23.4639 0.53362 -1.96202 0.326922
21.0202 18 20.8114 2.78079 0.799977 2.0736
23.0185 21.135 20.4818 -0.633439 -1.24557 1.75887
21.3068 23.2505 21.0844 -1.70058 -0.109672 1.06821
23.7309 18.4157 20.5719 0.0754969 1.03947 -1.22151
25.0264 20.6153 22.0657 1.29517 -1.47311 1.31426
23.3847 22.3237 22.9112 0.513897 -0.664523 1.13726
24.7167 20.0307 24.4977 0.562771 -1.79297 -0.889541
22.5754 21.2441 25.2316 -1.25124 -0.360967 0.365929
22.3374 19.8327 22.7918 -0.172035 1.07048 -0.656891
22.5995 18.474 25.0528 0.661542 0.702389 -1.64726
22.6161 16.7546 22.6289 -1.33104 1.54267 0.219011
24.7018 18.1106 22.9514 -0.861413 0.361868 0.656498
ITEM: TIMESTEP
13000
ITEM: NUMBER OF ATOMS
35
ITEM: BOX BOUNDS ss ss ss
1.6269321183340217e+01 2.4998875421118530e+01
1.7031944920718040e+01 2.3462364317786772e+01
1.4865157831707664e+01 2.5414277416474157e+01
ITEM: ATOMS x y z vx vy vz
20.0185 23.4363 17.1556 1.04768 -1.8354 -1.78969
17.2896 18.8584 16.8835 -0.143611 -0.761064 0.371471
16.69 21.0354 15.805 -0.423915 0.853386 2.51219
17.2805 22.9987 17.5628 -0.846957 0.236816 1.41382
18.8011 20.7707 17.7985 -0.286292 0.943114 -1.02992
18.671 19.6511 14.8514 -0.772058 -1.53948 -0.143216
18.8686 22.2741 15.2262 2.12991 0.696736 -1.4322
19.9793 18.138 16.8721 1.06857 2.3155 -0.463778
18.8185 18.3193 19.2032 -0.631532 0.92809 -2.15415
16.0745 20.6653 18.4178 0.14624 -0.0155587 0.11547
16.5305 22.7328 19.958 -1.9883 -0.270627 0.715473
19.1254 22.9877 19.5285 -1.87144 1.36473 -0.14023
20.8744 20.6236 16.1028 1.32936 -0.616106 2.09871
21.5012 21.9053 18.5112 -1.46573 -0.0577889 -1.45834
21.7617 19.3004 18.4527 -0.70096 0.417011 0.773614
20.0368 20.3941 20.441 -0.0276663 -0.934054 -0.206855
18.3389 22.3429 21.8932 -1.22328 -1.84846 -1.00573
17.3671 20.3202 20.628 0.325465 0.577057 0.960383
18.5692 17.9115 21.8228 -0.901421 0.266116 0.127928
19.0103 20.1237 22.9658 -0.877766 0.0300671 -0.704249
20.4154 17.8104 23.7679 0.366892 -2.33275 -1.91842
20.5224 20.0706 25.1531 0.0908936 0.0925532 1.85541
20.6154 22.1203 23.5549 3.35046 0.642907 -0.524443
20.8598 17.7644 21.0861 0.77641 2.51135 -1.51843
23.0943 21.2125 20.3099 -0.880242 0.262799 0.218821
21.24 22.8472 21.0734 0.17349 -0.908343 -1.15157
23.5607 18.4717 20.8393 1.17112 -1.45371 0.071146
25.2378 20.4747 21.7711 0.478533 -0.401142 1.21972
23.1962 22.2413 22.763 0.351816 -1.30667 -0.210922
24.4663 20.5176 24.1277 0.433162 -1.85098 0.52325
22.6333 21.5691 25.3436 -0.786282 0.177728 -0.775944
21.9396 19.8288 22.6571 -0.972453 0.697251 1.48591
22.7361 18.7197 25.1492 -0.21258 1.77252 0.876041
22.742 17.1485 23.079 1.76883 2.05638 1.7699
24.9589 18.2386 23.0695 0.00365514 -0.709973 -0.481165
ITEM: TIMESTEP
14000
ITEM: NUMBER OF ATOMS
35
ITEM: BOX BOUNDS ss ss ss
1.6269321183340217e+01 2.4998875421118530e+01
1.7031944920718040e+01 2.3462364317786772e+01
1.4865157831707664e+01 2.5414277416474157e+01
ITEM: ATOMS x y z vx vy vz
19.7893 23.3324 16.8566 0.141539 0.645722 1.03186
17.2681 18.4733 16.9432 -2.32658 -0.951226 -0.822281
16.4659 20.7447 15.8533 0.805581 0.395612 1.78338
17.2447 22.8523 17.3092 -0.798616 0.191969 -0.97039
18.9462 20.6828 17.8609 0.278999 -0.878096 -1.75448
18.6182 19.3802 15.1658 -0.287533 0.748329 -0.661953
18.5116 22.0396 15.1316 2.10885 -0.359144 -1.64111
20.4463 18.4104 17.0204 1.16623 -1.00548 1.04505
18.8764 18.5069 19.217 -0.649741 0.00898808 1.12728
16.4189 20.2287 18.3148 -0.418694 -0.236609 -0.161898
16.6118 22.5228 19.8709 1.13075 0.294587 1.85466
19.0028 23.1607 19.2509 -3.06866 -0.17289 1.38847
20.9971 20.951 16.1697 0.51226 -0.144433 0.144683
21.3432 22.1525 18.7282 0.241537 -0.251058 0.842551
21.7274 19.6373 18.7154 1.84316 -0.464481 -0.97593
20.1731 20.5197 20.7014 -0.500767 0.745009 -1.1622
18.7263 22.7657 21.6944 0.258321 -0.178295 -0.197451
17.5717 20.3719 20.7811 0.525678 1.1012 2.40062
18.3589 18.0689 21.8563 -0.646735 -0.706473 -0.971222
19.0289 20.4216 23.2495 -0.209508 -0.499355 -2.01791
20.3116 17.874 23.3662 0.667475 0.725701 0.560272
20.4775 19.8926 25.3376 1.45067 0.564711 -2.97769
20.8376 22.1771 23.5088 0.241501 0.532342 1.5607
20.7781 17.8127 20.7217 -1.00247 -0.900454 -0.158857
23.1636 21.2801 20.4679 -0.700198 -0.388354 0.254846
21.363 23.1055 21.2349 0.730648 0.372474 0.955741
23.3066 18.5956 20.588 -0.847274 0.680415 0.997201
25.0586 20.411 21.9531 -1.13643 0.612493 -1.10293
23.4408 22.3991 22.8905 0.165919 -0.613035 -0.806276