ITEM: TIMESTEP
0
ITEM: NUMBER OF ATOMS
35
ITEM: BOX BOUNDS ss ss ss
1.7644595730146971e+01 2.3032288836018523e+01
1.5071627063474603e+01 2.4680273735266962e+01
1.4222066556254742e+01 2.5787703720965123e+01
ITEM: ATOMS x y z vx vy vz
22.8988 22.0421 14.5098 0.707554 0.303144 -0.290292
20.4199 21.9348 17.8512 2.42849 -0.317755 0.596839
20.9277 23.497 15.5179 -0.709163 2.51212 -2.55044
23.0282 22.6402 17.1393 -0.562927 0.148004 -0.0558142
20.4003 21.1704 14.2261 1.38757 0.835957 1.22542
19.0814 20.0738 16.3731 -1.39914 -0.627417 -2.53713
18.3934 22.4692 15.4199 -2.91815 -1.87128 -0.372003
21.9332 20.2637 16.2306 -2.21918 -0.257399 -0.415848
17.7149 22.1937 18.0447 -1.95423 0.390599 -0.339041
21.4228 24.6762 17.9279 1.3203 -0.400926 0.571582
18.8998 24.4484 17.1159 1.33296 -0.558222 -1.14848
22.2019 18.5139 20.7072 2.14246 -0.914328 -0.484461
18.1838 19.7021 18.9702 1.71133 0.485837 0.357686
19.6162 17.7193 20.5113 -1.36368 1.20094 0.758723
17.7771 19.2841 21.6841 0.0941359 0.0953872 1.12093
20.6985 18.8932 18.2614 -0.0196092 0.269017 1.66773
22.7548 20.5363 18.9142 -1.75542 1.5202 0.483395
22.1094 22.9536 19.8858 0.521083 0.513893 -1.02199
17.929 21.8698 20.7892 0.927253 -0.446926 -0.219945
19.477 23.7714 19.6842 -1.14798 1.02424 -0.974053
20.293 20.5586 20.4831 1.21359 -0.305721 0.821895
22.6661 20.9914 21.7689 0.995016 -0.943658 1.28572
18.6158 16.7807 22.9131 1.05822 -0.0638105 -0.404278
21.333 16.5568 22.4217 1.26366 0.951003 0.123056
17.6487 18.8688 24.3454 -0.0887805 0.25212 -0.0632897
22.2833 16.5836 24.9289 -1.59698 -0.720746 0.328121
20.182 15.0757 24.302 0.136512 -0.553865 0.904702
20.255 19.0404 23.0378 -0.0314503 -0.81869 0.379793
19.7549 17.4649 25.3639 0.921727 0.137001 -1.29864
22.947 18.7305 23.348 -0.52312 -1.58709 -0.127202
21.9175 19.0887 25.7836 -1.43883 0.00737761 0.460653
20.4648 22.7619 22.0697 1.15741 0.29993 1.15943
19.4967 20.1786 25.7405 -0.336116 1.38247 -1.83582
21.4362 21.2236 24.1604 0.754103 -0.307241 0.660984
18.6628 21.2676 23.3938 -2.00861 -1.63417 1.23207
ITEM: TIMESTEP
1000
ITEM: NUMBER OF ATOMS
35
ITEM: BOX BOUNDS ss ss ss
1.7644595730146971e+01 2.3032288836018523e+01
1.5071627063474603e+01 2.4680273735266962e+01
1.4222066556254742e+01 2.5787703720965123e+01
ITEM: ATOMS x y z vx vy vz
23.0636 22.0762 14.6822 0.613505 0.417692 1.11101
20.3663 21.8963 17.848 1.35853 -1.551 -0.396212
21.0069 23.5012 15.4759 -0.404528 0.713719 0.485115
23.0386 22.6444 17.3529 -0.459936 0.429085 -0.577707
20.3304 21.1733 14.3517 0.721356 -0.892061 -1.47031
19.3192 19.7824 16.5749 0.763222 0.766558 -1.335
18.4215 21.9935 15.6338 -1.06911 -0.0306345 -0.772818
22.0579 20.4381 16.2605 -0.570668 -0.270297 -0.273262
17.5679 21.9467 18.1437 -0.658541 -0.244276 -1.26017
21.1919 24.6313 18.0376 -0.365002 -0.539143 0.166817
18.8747 24.0921 17.1905 0.108143 1.56491 -0.489701
22.2068 18.5011 20.8508 0.0888299 0.238513 1.83214
18.1604 19.6784 18.9745 0.272106 1.21689 0.720997
19.3424 17.8434 20.4329 -0.094589 -0.135382 0.798355
17.6755 19.262 21.6599 0.905514 1.40266 1.75924
20.8678 18.7369 18.3335 -0.938554 -0.454436 -0.0066051
22.6084 20.5915 19.0572 -0.430833 1.31268 0.747127
22.2123 23.0634 20.1201 -0.831028 -0.585464 -0.347681
17.695 21.7065 20.7826 1.06604 -0.172144 -1.94696
19.5251 23.3907 19.8959 -1.80402 -0.165989 0.648765
20.2816 20.7006 20.6418 0.697489 1.58334 -0.773842
22.8242 21.1378 21.6315 0.2303 0.185586 0.00856681
18.4771 16.9404 22.9394 0.183114 1.17018 0.776779
20.999 16.4413 21.8781 -0.814329 -0.608577 1.02394
17.7593 19.0803 24.3683 0.198513 -0.590515 1.06462
22.0758 16.8074 24.2391 -0.452035 -1.01962 0.31787
20.0694 15.3183 24.1088 -0.0402361 0.441266 0.649967
20.379 19.0147 22.9453 0.343907 1.15108 0.221877
19.5666 17.5373 25.4713 0.098633 0.0084533 -0.483645
23.1401 18.9679 23.1856 1.19959 0.572011 -0.580644
21.7988 19.0387 25.6278 0.150765 -2.14821 0.445391
20.7717 22.9312 22.4083 -0.456519 -0.251069 -0.0237335
19.5293 20.4595 25.5048 0.340683 -0.898286 -0.447948
21.8193 21.1981 24.1129 -0.363358 -1.52189 -0.502803
18.8012 21.3021 23.1028 0.413043 -1.09563 -1.08952
ITEM: TIMESTEP
2000
ITEM: NUMBER OF ATOMS
35
ITEM: BOX BOUNDS ss ss ss
1.7644595730146971e+01 2.3032288836018523e+01
1.5071627063474603e+01 2.4680273735266962e+01
1.4222066556254742e+01 2.5787703720965123e+01
ITEM: ATOMS x y z vx vy vz
22.8943 21.7881 14.7544 0.0133942 -0.8576 -0.414921
20.3548 21.8058 17.9636 -0.0995937 -1.65425 0.393039
20.9711 23.3767 15.7054 0.744388 1.0087 -0.882718
23.0697 22.6707 17.3081 -0.938471 -1.19489 0.924815
20.3593 21.0528 14.5155 -0.579957 -1.01046 0.164986
19.0647 19.9693 16.5473 0.55181 0.762877 -0.141761
18.5052 22.3818 15.8217 -0.0995689 0.420862 -0.826187
21.9182 19.9867 16.3117 0.0768146 0.958501 -0.966101
17.7415 22.246 18.3015 1.30901 -0.204224 0.031115
21.5323 24.6879 17.9121 -1.23667 0.143397 -0.576166
19.1031 24.5022 17.3461 -0.696586 1.41602 0.508243
22.367 18.4793 20.6323 -0.676746 -1.21517 -0.424891
18.0335 19.7622 19.0219 -0.200416 1.72898 -1.30643
19.597 17.7231 20.5464 0.188263 1.87418 -0.364807
17.7871 19.2467 21.5286 -0.827259 -0.25852 -2.11979
20.679 18.8477 18.4496 -0.916551 0.757665 3.24127
22.7695 20.584 18.8536 0.311654 -0.37493 -1.11254
22.3101 23.0032 19.942 0.840745 -1.87566 -0.796709
17.7875 21.8472 20.8223 -0.177301 0.435359 0.242539
19.5625 23.7575 19.7471 -0.262129 -1.57163 1.7413
20.2464 20.5691 20.4914 0.664232 0.708064 -0.646435
22.5102 21.0745 21.5242 -1.51711 0.338348 0.181071
18.6072 16.8045 23.0072 1.09893 0.787194 -0.410084
21.3523 16.5854 22.2533 -0.325835 1.09388 1.05375
17.6467 18.8475 24.1217 1.32439 0.457605 -0.895344
22.2524 16.838 24.6529 0.61029 0.692903 3.32336
20.3405 15.2628 24.1605 0.242785 -0.729431 -0.454057
20.2888 19.0119 22.8932 -0.420027 -0.289075 0.116963
19.6408 17.4839 25.4481 0.660138 -2.2604 -0.171619
23.0881 18.8565 23.0706 -0.0212523 1.12737 0.594793
21.9616 19.2225 25.38 -0.23991 -0.721195 0.388391
20.3148 22.9146 22.0515 -0.176181 0.117431 -0.692667
19.3331 20.1244 25.5925 0.860918 -1.34912 0.435743
21.2977 21.2553 23.8761 -0.590711 0.151096 0.64026
18.5372 21.2551 23.2708 0.504512 0.586134 -0.778407
ITEM: TIMESTEP
3000
ITEM: NUMBER OF ATOMS
35
ITEM: BOX BOUNDS ss ss ss
1.7644595730146971e+01 2.3032288836018523e+01
1.5071627063474603e+01 2.4680273735266962e+01
1.4222066556254742e+01 2.5787703720965123e+01
ITEM: ATOMS x y z vx vy vz
22.8201 22.0627 14.7573 1.07277 0.737867 -0.0335197
20.5738 21.865 17.8195 -0.733077 -2.13403 -0.177324
20.9459 23.6219 15.6575 0.550189 1.14344 -1.11448
22.9785 22.6391 17.2212 -0.567508 -1.42981 -0.877722
20.2984 21.1258 14.6322 0.541928 0.220381 1.57266
19.2296 20.0054 16.6181 2.52802 0.118483 1.35068
18.4529 22.4435 15.8294 -0.971498 -0.642848 1.43049
22.0336 20.0414 16.3292 -0.452506 1.05824 -0.598812
17.9414 21.9024 18.3686 0.934557 -1.77926 0.726917
21.3386 24.6826 17.9919 0.52836 0.90182 0.430404
18.8395 24.3231 17.4829 0.0874678 0.383246 -0.447871
22.1801 18.4498 20.6382 -1.38595 0.20009 -0.413885
18.23 19.4261 18.8401 -1.348 0.399638 0.999136
19.4463 17.6084 20.4432 0.0231543 -0.519254 0.413298
17.7807 19.1887 21.5852 1.25842 0.66822 0.8273
20.7985 18.7245 18.3809 1.36637 -1.04891 -0.686549
22.8998 20.5667 18.9187 1.2118 0.274275 0.169653
22.1057 22.8612 19.8801 -1.47587 0.528539 -0.0910354
17.9408 21.583 20.9418 -0.374153 -0.568645 -0.0100722
19.4627 23.6684 19.7997 -1.39211 -0.011527 0.785769
20.2582 20.5198 20.3064 0.0497548 -1.67446 -0.265921
22.7019 21.0822 21.5703 0.449688 0.132428 1.51587
18.475 16.9574 22.8408 -0.0562141 0.0443949 0.0248604
21.303 16.7163 22.3415 -1.84661 -0.922858 -1.27777
17.6119 19.011 24.2654 -0.549011 -1.53031 -0.494027
22.0897 16.7879 24.8052 0.390252 0.357851 -0.47893
19.9535 15.3901 24.0826 -1.01925 0.889083 -0.313229
20.3319 19.2596 22.7754 -0.451109 0.5802 -1.24478
19.6317 17.6233 25.1793 -0.289647 -0.854243 0.87469
23.1325 18.769 23.1298 1.11168 -1.38136 -0.716711
22.0216 19.2752 25.4608 0.401415 0.845746 -1.03961
20.4579 22.6147 21.9922 0.157781 1.14887 0.373933
19.517 20.3675 25.4418 -1.00291 0.98935 0.237038
21.5199 21.2659 24.0483 0.968222 1.37473 -1.94286
18.5224 21.3954 23.4495 0.283579 1.50063 0.492399
ITEM: TIMESTEP
4000
ITEM: NUMBER OF ATOMS
35
ITEM: BOX BOUNDS ss ss ss
1.7644595730146971e+01 2.3032288836018523e+01
1.5071627063474603e+01 2.4680273735266962e+01
1.4222066556254742e+01 2.5787703720965123e+01
ITEM: ATOMS x y z vx vy vz
22.9743 21.8278 14.8255 0.424287 -1.58478 -1.18525
20.3442 21.8362 17.7907 -0.127029 -1.12702 0.098978
21.3096 23.4622 15.635 0.401042 -1.05256 1.43167
23.0807 22.5586 17.303 -0.515059 -0.491632 -0.383155
20.5662 20.9008 14.9137 -0.376239 0.527393 -0.00895711
18.7982 19.9395 16.5758 -1.15702 -0.175105 -0.132986
18.5224 22.3493 15.536 -0.731718 -1.24958 0.836165
22.3389 19.8932 16.5938 0.255746 1.04423 0.450422
17.4864 22.2554 18.1169 0.861118 0.859556 -0.128695
21.2467 24.56 18.0207 1.66683 2.10858 1.65869
18.9651 24.3497 17.0962 0.0422361 0.231833 -0.839119
22.1373 18.3894 20.6167 1.05162 0.1075 -1.72204
18.0333 19.9011 19.0392 -1.12395 0.193381 2.02188
19.4569 17.8254 20.4695 0.490497 1.7599 1.27472
17.7882 19.2311 21.7951 0.678965 -1.7878 -0.893336
20.658 19.0076 18.4622 1.44751 -1.49021 0.210483
22.7468 20.5874 19.115 0.643663 -1.94271 0.197904
21.9933 23.0232 19.9427 1.86878 1.80467 0.984646
17.7119 21.8352 20.8468 -0.381572 -0.0260207 1.5773
19.3569 23.5105 19.6356 -0.454968 0.0139999 1.60679
20.2409 20.7365 20.529 -1.36367 -0.380291 -0.102418
22.5171 21.1503 21.7354 -1.42395 0.799883 -2.21378
18.5912 16.813 22.8175 -0.528988 -0.0883992 -0.398104
21.1474 16.5636 22.1938 -0.05624 -1.4533 -1.48537
17.7466 18.8433 24.367 0.877506 0.637808 -2.13769
22.3001 16.751 24.4008 0.982831 -0.312047 -0.306755
20.2737 15.1326 24.1497 -0.122092 0.951825 -0.743184
20.4598 19.187 22.8827 -1.02016 -1.4376 -0.547573
19.8798 17.5142 25.0106 0.432134 -0.14595 0.33828
23.0529 18.7291 23.1296 0.959626 1.1081 1.72386
21.9341 19.1957 25.3513 0.147968 0.0846963 -0.307834
20.3288 22.9147 22.1192 -0.400126 0.431762 -0.705264
19.6496 20.3143 25.4571 -1.6759 1.3026 1.26716
21.468 21.429 24.0787 -0.436878 0.0486085 -1.4517
18.7193 21.3072 23.2725 -1.3368 0.728676 0.0142585
ITEM: TIMESTEP
5000
ITEM: NUMBER OF ATOMS
35
ITEM: BOX BOUNDS ss ss ss
1.7644595730146971e+01 2.3032288836018523e+01
1.5071627063474603e+01 2.4680273735266962e+01
1.4222066556254742e+01 2.5787703720965123e+01
ITEM: ATOMS x y z vx vy vz
22.9943 22.1898 14.6475 0.989648 0.388645 0.266999
20.4681 21.8937 17.7308 -0.296601 -1.2543 1.35969
20.9239 23.4991 15.5561 0.867121 -0.372508 1.59957
23.0409 22.8284 17.1785 -0.910187 -0.274047 -1.05322
20.3208 21.0963 14.6835 -0.301164 0.162069 -1.72316
18.9133 19.785 16.4971 -0.424599 -2.2165 0.129689
18.2907 22.1696 15.5839 0.57779 -0.432646 0.255912
22.2637 20.2573 16.2524 -0.544473 0.8314 1.02017
17.6117 22.0901 18.0927 0.488405 -0.850749 -0.762563
21.3002 24.6451 18.0148 1.46597 0.705073 0.210858
18.7879 24.2902 17.0991 -2.09636 0.979689 1.1509
22.332 18.5849 20.7296 0.158238 -0.867822 -0.877804
18.3008 19.662 19.0114 -0.966391 0.528263 -0.449352
19.6039 17.8141 20.4557 0.580251 -1.88262 0.136361
17.6691 19.5065 21.7404 -2.34558 0.395977 -0.0370709
20.8518 18.984 18.3106 -0.088775 0.328244 0.429209
22.7445 20.5546 18.7682 1.07577 0.103555 -1.11438
22.1593 22.917 19.8344 -1.29157 0.53109 0.537715
17.9498 21.8791 20.7199 0.699816 0.914923 -1.96801
19.3917 23.5638 19.5004 -0.426173 1.13381 2.12598
20.2896 20.5669 20.5657 1.17894 -0.160209 0.944204
22.6153 20.9333 21.7666 -0.218269 -0.819279 1.30208
18.6439 16.983 22.7203 -0.799422 0.465566 0.636324
21.2925 16.5434 22.4176 1.01225 1.24217 0.319251
17.8643 19.044 24.2656 -0.041724 -0.880086 -0.988184
22.1737 16.531 24.7054 0.609096 -1.14121 0.763077
19.9938 15.226 24.3131 -0.208885 0.470667 -0.988353
20.3526 19.1259 22.966 0.0108141 -0.0487609 -0.15135
19.6927 17.4756 25.3033 -1.08449 1.78539 0.454124
22.8542 18.6614 23.4823 -0.526272 -0.895199 -1.23575
21.8172 18.8862 25.7344 0.751845 1.44264 -0.218439
20.5177 22.7873 21.9846 0.125468 -0.258036 -0.159316
19.6959 20.2773 25.7657 0.687399 0.46652 -0.956576
21.3579 21.1487 24.1395 1.87003 0.342995 -0.297151
18.7454 21.4245 23.2878 -0.577923 -0.864722 -0.661423
ITEM: TIMESTEP
6000
ITEM: NUMBER OF ATOMS
35
ITEM: BOX BOUNDS ss ss ss
1.7644595730146971e+01 2.3032288836018523e+01
1.5071627063474603e+01 2.4680273735266962e+01
1.4222066556254742e+01 2.5787703720965123e+01
ITEM: ATOMS x y z vx vy vz
22.7968 22.36 14.5593 0.596517 0.493198 -1.16852
20.139 21.9601 18.156 1.43764 0.93245 -0.256265
20.8275 23.2726 15.6749 -0.412474 -1.42542 -2.34677
23.043 22.588 17.3516 -1.40074 1.50302 -1.11949
20.5599 21.1111 14.0791 0.608582 0.45876 0.959509
19.0811 20.1922 16.4117 0.180192 -1.47954 0.992343
18.4245 22.3512 15.3564 0.853719 -0.184393 0.237384
21.7501 20.6158 16.4291 0.126781 -1.08612 -1.43764
17.463 21.9322 17.8392 -0.81317 1.31745 -0.0413785
21.4001 24.6545 17.8323 -0.965436 -0.723765 -0.883752
18.8114 24.1519 17.3421 0.173823 1.63113 0.0102647
22.2656 18.3596 21.1851 -0.957505 -1.46495 0.245986
18.1405 19.6136 18.8878 -0.441866 -0.360838 1.89093
19.5115 17.5452 20.5557 1.17779 0.571129 -0.509714
17.7957 19.1381 21.6014 -1.87302 0.628203 -0.107844
20.6395 18.9998 18.4803 0.586418 -1.01819 1.10928
22.7989 20.3787 19.0298 -1.28495 1.21088 0.0993787
22.1912 22.9345 19.8556 0.375908 0.045288 0.960873
18.2929 21.8844 20.4447 0.78584 0.931815 -0.135835
19.6879 23.9449 19.8211 1.16282 -0.911807 1.4568
20.5047 20.4036 20.7205 -0.292529 -0.195125 0.189686
23.0249 21.1968 21.7007 2.1598 0.0962011 -0.101615
18.2867 16.7692 22.9449 -0.641793 -0.981974 -0.292157
21.0954 16.207 22.1751 0.425559 -0.371173 0.267109
17.7607 18.8907 24.35 -0.651409 0.0552119 -0.385695
22.0956 17.0127 24.4186 1.59169 -0.255593 0.60054
20.0459 15.4574 24.2975 -0.512867 -0.510171 -1.55001
20.3014 18.7333 23.2101 0.419421 0.640102 -0.299748
19.638 17.4652 25.6078 -1.50153 0.0242418 -0.218042
23.2319 19.2025 23.3651 1.53453 0.334633 0.21377
21.8909 19.1353 25.7252 0.0189081 0.972121 0.152934
20.4705 22.8261 21.9693 -1.72731 -1.1637 -0.524179
19.5681 20.2796 25.4792 0.478344 -1.99038 0.124328
21.5228 21.0744 23.8652 -0.111023 1.13227 0.538976
18.7675 21.1826 23.1026 -1.10666 1.14505 1.32857
ITEM: TIMESTEP
7000
ITEM: NUMBER OF ATOMS
35
ITEM: BOX BOUNDS ss ss ss
1.7644595730146971e+01 2.3032288836018523e+01
1.5071627063474603e+01 2.4680273735266962e+01
1.4222066556254742e+01 2.5787703720965123e+01
ITEM: ATOMS x y z vx vy vz
22.7632 22.0705 14.5776 -1.30293 -0.861628 -0.466699
20.4071 21.7626 17.6887 1.33748 -1.56958 -1.07901
20.7968 23.3319 15.4825 0.391866 -1.00802 0.74684
22.9336 22.5592 17.1665 -0.48903 -0.875596 -0.0573405
20.5813 20.8555 14.4235 -0.687506 1.12591 -1.03863
19.3403 19.4668 16.2423 2.14865 -0.259201 0.904257
18.4514 21.6795 15.9094 -1.3128 1.3344 -0.306861
22.1653 20.0969 16.3602 0.158109 0.959246 -0.333583
17.3246 22.7449 18.4294 -0.0602952 0.741911 0.069639
21.3279 24.6481 18.0496 -0.0695067 1.9709 0.355411
18.9934 24.0491 17.0815 -0.359463 0.23187 1.37899
22.3359 18.552 20.6676 -0.519584 -0.672231 -0.738216
18.1869 20.225 18.7543 1.03518 -1.10852 -0.0363903
19.5429 18.0951 20.5049 -0.128255 0.418453 1.13174
17.6664 19.5347 21.5853 -0.29915 2.53577 -0.546943
20.7517 18.8897 18.3558 0.937509 -0.778695 -0.914894
22.7205 20.6599 19.0524 0.953448 -1.0105 1.62286
22.0983 22.9812 19.9488 0.278573 -0.354311 -0.177514
17.6985 22.0711 20.9592 0.0528051 0.261957 0.102295
19.5492 23.6212 19.8063 -2.21187 0.278028 -0.0718663
20.2222 20.8239 20.4698 2.3554 1.20151 -1.8361
22.6412 20.9367 21.8104 -0.46546 -0.35165 1.23952
18.5619 16.9633 22.7452 -1.01915 0.293021 0.882787
21.2781 16.8425 22.3182 0.69322 -0.118237 -0.708591
17.6574 18.8373 24.2233 1.35136 -1.70224 -0.473124
22.3298 16.6455 24.7811 -0.276931 -0.342859 0.058922
20.0274 15.2402 23.8856 0.489205 -0.735758 1.98602
20.2334 19.1147 22.9342 -0.985617 0.801252 -0.939516
19.9211 17.4814 25.1114 0.939448 -0.349198 1.53852
22.8526 18.7238 23.3566 -1.64634 0.361312 -1.09594
21.9804 19.0509 25.7746 -0.441511 0.287383 0.338627
20.5854 22.8177 22.1976 -1.726 -0.984285 1.15732
19.61 20.0288 25.5449 -0.38517 0.786868 -0.850337
21.5922 21.1626 24.2699 0.0440941 -1.02901 -0.75671
18.6967 21.2607 23.3564 1.22022 0.521732 -1.08548
ITEM: TIMESTEP
8000
ITEM: NUMBER OF ATOMS
35
ITEM: BOX BOUNDS ss ss ss
1.7644595730146971e+01 2.3032288836018523e+01
1.5071627063474603e+01 2.4680273735266962e+01
1.4222066556254742e+01 2.5787703720965123e+01
ITEM: ATOMS x y z vx vy vz
22.7807 21.8631 14.8093 0.232487 -0.208609 0.161
20.4294 21.854 17.7395 -0.047047 0.212303 0.28199
20.9395 23.5513 15.6612 -0.0717539 -0.532905 -1.3057
23.0732 22.7043 17.1538 -0.617854 -1.53216 0.0207796
20.383 21.2989 14.526 0.364387 1.61182 1.05403
19.0171 19.9523 16.4407 -0.410593 -0.717778 -1.98378
18.424 22.5909 15.4336 0.664037 -0.440516 -1.14006
22.0112 20.1446 16.4094 -1.04315 -0.00251805 1.30827
17.5908 21.9313 17.8975 1.12024 0.593883 -0.142251
21.2446 24.539 18.0128 -0.495511 0.153561 0.969937
18.6921 24.155 17.3872 1.08809 -0.0746004 0.826738
22.2871 18.6232 20.6093 0.258533 0.370928 0.880615
18.2578 19.7371 19.0154 0.345109 0.297849 0.255151
19.658 17.8748 20.47 -0.569624 -0.456614 -0.805215
17.6847 19.3318 21.7338 -0.42088 -3.29887 1.43037
20.7781 18.9898 18.3634 -0.42452 1.97524 1.26829
22.9091 20.6111 18.8661 0.103047 -0.536046 0.804319
22.2744 22.7973 19.9058 0.148987 0.623523 0.122909
17.5638 21.7098 20.5398 -1.3201 1.16335 -0.361038
19.4558 23.4738 19.6643 -1.62346 -1.37889 0.353261
20.2552 20.6329 20.5389 0.838134 -0.0897873 0.124918
22.8153 20.8803 21.7458 1.19376 0.81437 0.00251756
18.6206 16.9351 22.8715 -0.19175 0.28891 1.98582
21.307 16.6006 22.1084 -2.58733 0.865422 -1.01826
17.714 19.1839 24.3559 2.04789 0.410969 -1.11759
22.1985 16.7137 24.7632 1.67983 0.330742 0.582678
20.1698 15.4465 24.0755 -0.0710182 0.796812 0.128765
20.2927 18.9399 23.2984 -0.553004 0.0474034 -1.3224
19.4369 17.4517 25.5345 1.07937 0.298284 0.0263236
23.0443 18.7803 23.492 0.353022 -0.0674377 -0.804208
21.8503 18.9158 25.7915 -1.50127 -2.04546 0.0903787
20.6784 22.7599 22.0771 0.262738 -0.620147 -0.944236
19.6376 20.443 25.5644 0.588904 -0.7056 -0.894182
21.5547 21.0869 23.9456 -0.264342 1.30676 0.359038
18.7954 21.321 23.0234 -0.155358 0.54581 -1.19917
ITEM: TIMESTEP
9000
ITEM: NUMBER OF ATOMS
35
ITEM: BOX BOUNDS ss ss ss
1.7644595730146971e+01 2.3032288836018523e+01
1.5071627063474603e+01 2.4680273735266962e+01
1.4222066556254742e+01 2.5787703720965123e+01
ITEM: ATOMS x y z vx vy vz
22.7593 22.1519 14.6677 0.223748 0.888058 0.168719
20.3585 21.7635 17.9037 1.35789 1.44844 -1.01186
20.8769 23.4827 15.6485 -0.763986 -1.31384 -1.40811
22.9443 22.6326 17.3629 0.659041 -0.021488 -1.529
20.4052 21.3177 14.4851 -2.47464 0.407862 1.21767
18.9957 19.9851 16.296 -0.0514862 -0.646241 0.685603
18.3015 22.3074 15.422 1.33938 0.10624 -1.75192
22.034 20.2833 16.3083 0.503571 0.321576 -0.147255
17.7885 22.1228 18.0982 0.112866 -0.34025 -0.915138
21.3663 24.5112 18.0128 -0.343834 -0.100188 -1.26102
18.8541 24.296 16.9879 0.867566 1.12868 0.732923
22.3766 18.3352 20.5946 0.0891138 0.279483 0.0677339
18.2476 19.7543 18.9686 1.07365 1.19658 1.65519
19.7701 17.7673 20.5971 0.0660547 -0.407782 -0.0462592
17.7576 19.2047 21.7749 0.0211208 0.850061 0.398993
20.8997 18.9012 18.1962 0.233333 -0.617086 -0.702782
22.8701 20.477 18.9414 -0.972417 -1.59744 0.247335
21.933 22.7557 19.9902 -0.275235 0.557895 -1.51766
18.1431 21.6238 20.7619 0.877499 -1.18787 -0.123668
19.4438 23.8097 19.6064 -0.886718 -0.330741 0.860961
20.4375 20.4617 20.419 1.38429 1.96183 0.384233
22.5693 20.9831 21.9743 -0.760994 -0.0478856 1.54727
18.5393 17.0435 22.9732 -0.880369 -1.06642 0.220595
21.2537 16.4858 22.2983 -1.51788 0.0330996 0.105257
17.6878 19.1589 24.332 -1.09431 -0.25982 -0.0553185
22.0612 16.6717 24.8206 -1.18999 -0.630482 -0.0360465
19.8353 15.3033 24.1264 -0.166473 -0.568984 0.936051
20.5492 19.1971 22.9531 0.481479 1.41658 0.952521
19.7238 17.6223 25.2417 1.30167 -2.33444 -0.901893
23.1315 18.25 23.225 1.49929 1.13044 0.817324
22.114 19.3311 25.3416 0.293826 0.192064 0.566347
20.3736 22.677 22.1565 0.236505 0.747313 0.404945
19.5857 20.3088 25.7246 1.11643 -0.623993 -1.51332
21.2917 21.4084 24.1561 -1.44819 -0.279861 -0.461744
18.5457 21.4391 23.458 -0.911795 -0.29141 1.41332
ITEM: TIMESTEP
10000
ITEM: NUMBER OF ATOMS
35
ITEM: BOX BOUNDS ss ss ss
1.7644595730146971e+01 2.3032288836018523e+01
1.5071627063474603e+01 2.4680273735266962e+01
1.4222066556254742e+01 2.5787703720965123e+01
ITEM: ATOMS x y z vx vy vz
22.8733 21.8932 14.9735 -0.9124 1.56073 -0.11472
20.4729 21.7265 17.7877 0.833179 1.68371 -1.0835
20.9881 23.4507 15.6861 0.91747 0.276281 1.27494
23.1859 22.5108 17.4195 -0.82682 -0.399999 -1.87474
20.5058 21.0519 14.6238 1.90451 -0.0310379 0.439759
18.7408 20.1428 16.6359 -0.916646 -0.465223 0.385355
18.6754 22.6096 15.4564 -1.49349 1.31701 -0.821987
22.0411 19.9045 16.3754 -1.38313 -0.281404 0.293041
17.6576 22.2133 18.1691 1.33594 -2.0457 -1.07732
21.3793 24.546 17.9363 -1.69315 -0.808052 -0.516739
18.898 24.4797 17.2572 -0.180337 0.502094 -0.097201
22.0129 18.6277 20.6692 -0.373844 -0.755703 0.534886
18.0228 19.7233 19.1225 -0.449399 2.63529 -0.296292
19.5409 17.6195 20.4307 0.268274 0.887112 -1.23931
17.7548 19.2952 21.7513 1.82853 0.997004 0.908991
20.7046 18.7782 18.2854 1.4674 1.02687 -0.587476
22.8464 20.3719 18.9114 0.657905 -0.759267 0.757156
22.0914 22.8469 19.8627 0.518434 0.0161056 -0.137915
17.8438 21.8863 20.8365 0.849723 -2.45236 -0.830395
19.5025 23.4942 19.6627 1.06558 0.0265187 0.157768
20.1888 20.5598 20.3402 1.13796 -1.38552 -0.804014
22.6045 21.1912 21.65 -0.665622 1.07565 0.702736
18.5116 16.9007 22.7024 -0.944805 -0.258659 0.0574616
21.1789 16.6637 22.2311 0.579338 0.150595 2.87475
17.8038 18.7666 24.3765 -1.01916 0.520058 1.87924
22.3685 16.9472 24.6309 -0.852676 -0.962139 -1.25552
20.0895 15.2522 24.0475 -0.600643 -1.30584 0.599608
20.3122 19.0664 22.9569 -0.463888 -1.35173 1.13049
19.8979 17.4248 25.2236 0.951528 0.824926 0.273779
23.163 18.9681 23.3162 1.48216 -0.58358 -1.2094
21.8938 19.273 25.5918 -0.718236 -0.342142 -1.03786
20.4023 22.8008 22.0768 -0.276564 0.814333 -1.07429
19.5015 20.187 25.4596 -0.527182 0.898323 2.04817
21.5395 21.2296 24.0108 -0.0238677 0.294133 -0.590089
18.6309 21.4217 23.3572 -1.47606 -1.31839 0.330629
ITEM: TIMESTEP
11000
ITEM: NUMBER OF ATOMS
35
ITEM: BOX BOUNDS ss ss ss
1.7644595730146971e+01 2.3032288836018523e+01
1.5071627063474603e+01 2.4680273735266962e+01
1.4222066556254742e+01 2.5787703720965123e+01
ITEM: ATOMS x y z vx vy vz
22.8691 22.0152 14.8926 0.736157 -0.268187 1.55418
20.4727 21.7534 17.8819 -0.0717124 0.294078 0.343998
20.8254 23.4602 15.7583 1.44599 0.161801 0.290247
23.001 22.6105 17.2685 -1.73421 0.0637283 -1.07822
20.5188 21.3096 14.4663 -0.772988 0.327045 1.38212
19.1675 19.9848 16.4464 -1.7239 -0.72871 2.0863
18.4274 22.3401 15.5959 0.395289 0.115702 -0.11947
21.8756 19.9954 16.4867 0.702859 0.438308 -1.56099
17.6103 21.867 18.1526 -1.22492 -0.0465139 -2.18401
21.321 24.6236 18.1283 0.223294 -1.53834 -0.168592
18.8698 24.2442 17.3444 0.603442 0.860905 -0.480567
22.183 18.4702 20.6509 -1.77932 -0.0168384 0.585803
18.1336 19.4929 18.9187 0.217615 0.528094 -0.204609
19.5981 17.5768 20.4005 -1.09481 2.05149 1.21039
17.5217 19.324 21.6667 0.190618 0.633799 -0.138351
20.6152 18.8773 18.3428 1.83764 -0.988788 -0.0894957
22.744 20.4876 19.0763 -0.0661726 1.11903 -0.645511
22.1749 22.8773 20.0479 -0.740358 0.181022 -1.33152
17.8754 21.7814 20.8002 0.405306 -1.31142 0.856624
19.4346 23.4774 19.783 0.303136 -0.490976 -0.249553
20.3499 20.6588 20.6487 1.36527 0.0496428 -0.0393094
22.9092 20.8955 21.8263 0.457933 -0.0855628 -0.204598
18.6025 16.888 22.7534 0.0686476 0.828804 -0.445523
21.1775 16.5914 22.3111 1.09652 0.0818466 1.32662
17.7786 19.3167 24.1468 0.406831 1.50739 -0.321355
22.3377 16.8321 24.6235 0.630014 -0.334118 -0.416648
19.6681 15.1422 24.093 0.72645 -0.971483 -0.827869
20.2815 19.1383 22.8635 -0.728276 -1.55545 0.655988
19.9743 17.6049 24.9799 -0.034219 -0.761367 0.288059
23.088 18.8111 23.2228 -1.05477 1.035 -1.94616
22.0358 19.2102 25.5449 0.400296 -0.0957728 1.91414
20.6025 22.9895 22.0774 -0.73307 -0.687536 2.00291
19.4865 20.3614 25.4829 -0.635522 0.28756 -1.0342
21.4846 21.3207 24.0058 0.545436 -0.64832 0.245124
18.8091 21.4955 23.1361 -0.364494 -0.0358669 -1.25594
ITEM: TIMESTEP
12000
ITEM: NUMBER OF ATOMS
35
ITEM: BOX BOUNDS ss ss ss
1.7644595730146971e+01 2.3032288836018523e+01
1.5071627063474603e+01 2.4680273735266962e+01
1.4222066556254742e+01 2.5787703720965123e+01
ITEM: ATOMS x y z vx vy vz
22.7344 21.8865 14.784 -0.282344 -0.83059 1.45872
20.3534 21.7332 17.8254 2.01797 -1.11077 0.363463
20.9994 23.4641 15.8097 -1.10586 -1.35658 0.188705
23.1572 22.5925 17.2696 -0.636437 -0.727134 -0.0280443
20.3901 21.359 14.5403 0.376529 2.12814 -0.702581
19.0985 19.9211 16.3671 0.82002 -0.786183 0.481406
18.3037 22.3757 15.7951 1.53514 -0.781837 2.1479
21.8873 20.0313 16.3873 0.046164 -1.09932 0.240873
17.7813 21.9695 18.3907 -0.307556 0.757899 -0.919832
21.7576 24.6551 18.0475 1.63737 -0.548554 1.38072
18.9269 24.3515 17.2725 -1.86083 1.23586 0.885518
22.2348 18.6117 20.6558 -1.0995 0.00336471 -0.662187
18.3421 19.4634 18.8742 0.20466 -0.32895 -0.897098
19.694 17.7219 20.3871 -0.148925 1.61223 0.828316
17.9439 19.3521 21.5195 -0.285167 -0.759336 -1.34215
20.848 18.6045 18.1163 -0.875038 0.111688 -1.45754
22.8078 20.3681 18.8968 0.0597057 1.8837 -0.180908
22.0815 22.8374 19.9699 -1.05274 -0.950717 -0.681782
17.9157 22.0573 20.9825 0.595941 -0.210696 0.572679
19.4949 23.7739 19.6354 -0.531589 -0.529227 -1.4395
20.2276 20.5761 20.365 0.874522 -1.14812 0.182365
22.4599 20.9761 21.9232 0.645947 0.66076 -1.7489
18.3383 16.9152 23.1572 1.70065 0.774515 1.37042
21.1682 16.6001 22.2542 0.310517 0.512667 -0.143162
17.5666 18.9963 24.3087 -0.881908 0.385331 0.0766703
22.2643 16.8028 24.6211 0.918685 0.0309596 0.0932547
20.0957 15.323 24.1278 -0.77507 0.363499 -1.17927
20.4074 19.1003 23.0073 0.243974 1.37939 0.788263
19.7791 17.6193 25.1822 0.456372 -0.573504 0.298287
23.1609 18.7104 23.0061 0.568543 -1.27407 -1.11291
21.9563 19.2751 25.4507 0.248408 -0.741606 0.245043
20.3392 22.8242 22.0049 -0.847637 0.376449 0.0325696
19.5246 20.1971 25.3642 -0.717297 0.278925 -0.531022
21.1879 21.497 24.197 -1.00067 -0.207884 0.818894
18.5966 21.2822 23.3289 -0.852548 1.4697 0.572821
ITEM: TIMESTEP
13000
ITEM: NUMBER OF ATOMS
35
ITEM: BOX BOUNDS ss ss ss
1.7644595730146971e+01 2.3032288836018523e+01
1.5071627063474603e+01 2.4680273735266962e+01
1.4222066556254742e+01 2.5787703720965123e+01
ITEM: ATOMS x y z vx vy vz
22.9811 21.8168 14.9189 -1.36665 0.547819 0.293152
20.4195 21.8638 17.7586 0.199349 -0.792871 -0.112373
20.9108 23.5611 15.4922 -0.00589415 -0.400856 -0.0781341
22.9777 22.645 17.2301 -0.239737 1.33932 -1.32746
20.5095 20.9709 15.0398 1.30935 0.910069 0.598333
18.8338 19.7886 16.6574 0.493377 0.236121 1.52636
18.6104 22.5388 15.5272 0.159421 -2.04445 1.1761
22.3038 19.9966 16.646 0.103157 -1.96592 0.615777
17.8575 21.9043 18.0028 0.0768024 0.225591 0.469991
21.2911 24.8623 17.9171 2.73341 0.632596 1.31325
18.7905 24.361 17.1624 -0.402823 -0.411865 1.19085
22.1393 18.5599 20.6195 -0.234407 -1.04945 0.830245
18.0559 19.4116 19.1297 0.435621 0.26222 0.26737
19.6301 17.8233 20.5232 0.370353 1.54337 1.00806
17.7013 19.3789 21.7745 0.718647 -1.89343 -0.691287
20.716 19.046 18.2538 -1.52343 -2.59306 -0.942455
22.812 20.6953 19.1391 0.0193582 0.529846 -0.26209
22.1341 23.2278 19.8234 0.59672 -0.992683 -1.23453
17.9221 21.8525 20.726 -1.15971 1.0279 1.62596
19.4045 23.7264 19.5878 -0.661395 -0.508256 0.428709
20.1965 20.7118 20.3615 1.22776 0.326543 -0.919963
22.6746 21.2534 21.6361 1.08848 2.28916 -0.816961
18.5416 16.8972 22.8599 -1.25542 0.494134 -0.378167
21.4163 16.3787 22.146 1.29948 -0.0066981 -1.50775
17.8177 19.1684 24.4963 1.04165 -0.606304 0.578705
22.0657 16.5075 24.6157 -1.1668 2.36411 -0.949322
20.0703 15.2767 24.1848 0.852615 0.390728 -1.29044
20.3186 18.7572 23.1474 -0.405411 -0.738094 0.958718
19.6116 17.5165 25.4173 -1.08927 -0.00523205 -1.41305
23.0195 18.9102 22.97 -0.976341 -0.00965915 -0.303449
21.9071 18.7501 25.4874 -0.767441 -0.14418 -0.396973
20.4973 22.9484 21.9459 -0.678874 0.214365 -0.0868445
19.741 20.2152 25.6046 -0.313918 0.940399 1.1725
21.29 21.1433 23.7787 -0.329376 -0.31965 -0.432173
18.6559 21.3596 23.2439 -0.148641 0.208384 -0.910655
ITEM: TIMESTEP
14000
ITEM: NUMBER OF ATOMS
35
ITEM: BOX BOUNDS ss ss ss
1.7644595730146971e+01 2.3032288836018523e+01
1.5071627063474603e+01 2.4680273735266962e+01
1.4222066556254742e+01 2.5787703720965123e+01
ITEM: ATOMS x y z vx vy vz
22.7229 21.9629 14.3873 -0.539785 1.52008 0.990742
20.2681 21.9141 18.0609 -0.183682 0.65846 -1.46067
20.74 23.138 15.4587 0.744329 0.510494 -1.14037
22.9211 22.5736 17.1696 -0.359282 0.401906 -0.0191097
20.1264 21.021 14.3174 0.00838148 0.598649 -0.282238
19.4071 19.7074 16.3113 -0.297821 -0.558395 2.15538
18.2689 22.219 15.7265 0.0177259 -0.0735999 0.694776
21.9017 20.3229 16.2028 -0.451523 0.268895 0.878989
17.6741 22.2566 18.0678 1.18955 -0.606733 0.306976
21.4155 24.6442 17.8663 0.442068 0.319695 -0.800091
18.868 24.354 17.1163 -0.0282769 1.85738 -1.81101
22.241 18.5514 21.1359 -0.51561 -1.72714 -1.49997
18.4735 19.8127 18.9102 0.721957 -1.50952 0.370175
19.6751 17.5557 20.4271 -1.62729 -0.203815 -0.228131
17.9439 19.3662 21.4736 0.174769 -1.18708 0.653082
20.8397 18.8007 18.3211 -0.994779 0.957208 0.470303
22.5127 20.7885 19.0787 1.8098 0.702344 1.62378
21.9867 23.2248 19.9528 0.455651 -0.62548 -0.915544
18.2969 22.0656 20.6841 0.863908 -0.407767 -0.400823
19.5247 24.1052 19.6522 -1.50518 0.603024 0.753879
20.3491 20.5535 20.7592 -0.178906 -1.10993 -1.33439
22.6713 21.2435 21.8137 0.572241 -1.80157 0.433466
18.6148 16.7491 22.888 -0.987335 0.0380197 -1.25629
21.2356 16.3258 22.1943 1.36177 -0.771242 1.60959
17.746 18.9009 24.0567 -1.90799 -0.665164 1.1312
21.9009 16.6817 24.6183 -1.82616 1.14828 -0.0544216