ITEM: TIMESTEP
0
ITEM: NUMBER OF ATOMS
35
ITEM: BOX BOUNDS ss ss ss
1.6519391685456039e+01 2.4125217583596079e+01
1.6044787972476389e+01 2.3751569724325005e+01
1.6022230508211852e+01 2.4831743519732228e+01
ITEM: ATOMS x y z vx vy vz
18.9822 19.1726 16.0263 -0.411974 0.761389 0.208767
19.8918 17.3697 17.9391 0.226996 0.0132712 -0.556931
19.0801 19.8705 18.681 0.871287 0.54672 -1.0097
17.2119 18.0888 17.8027 -0.932423 0.0827194 -0.0852095
18.155 17.8361 20.4099 -2.07383 0.374196 -0.243408
20.2372 16.0489 20.2159 -1.40445 0.299039 0.322317
21.4618 19.5498 17.1829 1.01753 -0.469404 0.152986
22.5035 17.6689 18.8879 -0.342815 0.144904 1.44876
16.5302 20.0113 19.7023 2.0474 -0.815699 -0.10314
17.02 20.712 17.0643 0.766252 -0.699985 1.49669
19.5902 21.7941 16.8067 0.888803 0.643822 1.31656
17.9732 22.4605 18.9816 0.0393699 0.351609 1.59542
23.6949 20.4684 18.5598 1.11348 0.387301 0.722893
23.1473 23.4298 18.9339 0.507728 0.434962 -1.37209
22.2403 22.1321 16.8585 -0.122974 -0.22747 1.12901
21.3269 21.3659 19.3801 -0.890218 2.2436 -2.81173
20.3879 23.7475 18.653 -1.63763 -0.765296 -2.34658
17.1554 19.5344 22.3469 1.23064 0.129385 0.135418
19.8003 17.2654 22.611 -0.331008 -1.55566 -0.19647
19.6214 19.8182 23.6546 -2.78388 -2.2373 -0.373081
22.1071 18.5425 23.4287 1.213 -0.53484 -0.448347
22.4363 16.7061 21.4963 0.0417943 -0.761465 0.129504
23.5892 19.1337 20.9674 -1.86669 -1.53135 0.906361
20.7859 18.7609 20.6179 1.29104 -0.737415 -1.43827
19.0538 21.044 21.2061 1.74234 0.45807 0.632012
20.295 22.7972 23.4986 -1.08107 1.10945 1.05441
18.851 23.7067 21.2862 -0.934392 1.01288 -0.867014
17.8043 21.8796 23.5638 2.71231 -0.53034 0.807257
16.5235 22.18 21.2887 -2.26006 -0.475355 -0.0387092
21.5886 23.5871 21.1536 0.0075246 1.66256 -1.78037
23.0724 22.9348 23.3886 -1.47505 1.1967 0.245605
21.8814 20.9431 24.8277 1.67837 0.835897 0.19895
24.1211 20.445 23.3435 -1.25257 -0.717182 0.141727
23.9917 21.8965 20.9535 1.00713 -0.227184 0.306226
21.7124 20.9228 22.1061 1.39806 -0.40253 0.720155
ITEM: TIMESTEP
1000
ITEM: NUMBER OF ATOMS
35
ITEM: BOX BOUNDS ss ss ss
1.6519391685456039e+01 2.4125217583596079e+01
1.6044787972476389e+01 2.3751569724325005e+01
1.6022230508211852e+01 2.4831743519732228e+01
ITEM: ATOMS x y z vx vy vz
18.8987 19.2506 16.0162 0.308088 -0.556763 0.25994
19.8004 17.4418 17.8271 1.04182 0.952173 0.78181
18.862 19.9173 18.7215 -0.166568 2.54172 -0.486225
17.225 18.0263 17.7704 -0.350637 -1.17979 0.0231035
18.1576 17.5241 20.2152 -0.687623 -1.36631 1.394
20.5488 16.0744 20.1135 0.651119 0.0422546 -0.656459
21.3331 19.6922 17.08 0.308441 -0.313783 0.224498
22.3442 17.8827 18.8933 1.66607 -0.0653532 0.0612055
16.4091 19.7595 19.6859 -0.439776 -0.811162 0.324699
17.0074 20.6836 17.1741 -1.34642 -0.241117 -0.729114
19.5043 21.7974 16.8102 -0.473542 0.457927 -1.39728
18.0559 22.6947 18.8231 -0.406525 0.822906 1.69378
23.6994 20.4606 18.4212 -0.670318 1.94446 -0.501128
23.2511 23.2951 18.8525 -0.137218 -0.878899 0.376557
22.1088 22.2353 16.8479 1.28704 -0.107563 -0.0709266
21.3999 21.1142 19.3325 2.86324 -1.76499 -0.831973
20.68 23.5381 18.7905 -0.00311077 1.32641 -0.736509
17.5342 19.4252 22.1442 -0.776626 0.312103 0.585731
19.7924 17.5086 22.8633 -0.10462 -1.21362 -0.740823
19.7766 19.9601 23.9172 -0.756823 -0.506603 -0.325524
22.0368 18.5117 23.6969 0.79704 -0.396716 -0.933964
22.3357 16.9763 21.5903 -0.141312 0.00499846 0.00925165
23.5488 19.2772 20.8189 -0.931469 -0.818816 0.269146
20.5014 18.7065 20.7553 -0.87928 -0.443357 1.51549
19.2323 21.2876 21.2498 2.1345 0.399545 -1.01359
20.2834 22.8322 23.4414 -0.517591 1.07358 0.739441
18.6851 23.7533 21.3112 -1.37911 0.241876 -0.372587
17.8364 21.9806 23.3537 1.09493 1.95544 0.654065
16.6026 21.9823 21.0134 -0.268989 0.422571 0.258701
21.4877 23.4424 21.1937 -1.13298 -0.13849 -0.768813
23.1123 22.7774 23.4961 0.415758 0.711857 1.022
21.9576 20.9975 24.9739 -0.711024 -0.0848157 -0.486931
24.0481 20.2732 23.367 0.299328 -1.28459 0.231952
23.9768 21.8969 20.9677 -0.111776 -0.0823954 -0.731331
21.7913 20.8479 22.2959 -0.474037 -0.954677 0.35782
ITEM: TIMESTEP
2000
ITEM: NUMBER OF ATOMS
35
ITEM: BOX BOUNDS ss ss ss
1.6519391685456039e+01 2.4125217583596079e+01
1.6044787972476389e+01 2.3751569724325005e+01
1.6022230508211852e+01 2.4831743519732228e+01
ITEM: ATOMS x y z vx vy vz
19.0723 19.1834 15.9495 -0.57921 -0.446069 -0.370474
19.7052 17.3124 17.8506 1.22285 0.451157 -0.647453
19.1344 19.811 18.7084 0.962259 0.935777 1.34034
17.2371 18.079 17.675 0.406189 0.148273 -0.0891271
18.2205 17.8319 20.3936 0.504541 -1.16771 -1.01508
20.2745 16.1331 20.1603 1.08704 -0.775259 -0.591074
21.453 19.6219 17.1859 -0.100875 1.36413 -0.183781
22.0849 17.6802 18.9242 -0.0833623 -1.48361 0.726519
16.5323 19.944 19.6239 -0.863039 0.138764 1.64446
17.0683 20.7873 17.1691 -0.13735 1.09531 0.675813
19.6435 21.743 16.6585 0.4909 0.991234 0.234867
17.8873 22.4448 18.9502 -0.434574 -1.02767 -0.147176
23.7284 20.4779 18.432 0.856345 -0.751882 0.128774
23.1408 23.3633 18.9794 -1.21908 1.75345 -1.6698
22.3944 22.2248 16.8604 0.666052 0.967761 0.758276
21.5061 21.2857 19.2871 -0.0607816 0.624983 -1.99759
20.3632 23.5687 18.7341 1.12639 0.35429 -1.43498
17.5328 19.4228 22.3568 -0.425804 -0.1322 1.30277
19.599 17.3387 22.6486 0.770503 -0.991055 1.96926
19.7089 19.8666 23.7225 -0.807337 0.734025 1.2151
22.1311 18.6136 23.6167 -0.452834 -0.748366 0.0172038
22.255 16.8548 21.5631 -0.507632 -0.677666 -0.542338
23.4707 19.2514 20.8524 -0.228553 -1.36834 0.250354
20.587 18.8894 20.9009 -0.173596 0.0864562 0.413713
19.1729 21.15 21.2431 -0.260467 -1.195 -0.18129
20.3619 22.6347 23.7162 0.0264863 -0.41766 0.541408
18.823 23.6006 21.3247 0.792063 0.483639 -0.00317333
17.7444 21.9183 23.43 -1.60972 0.97502 -0.407784
16.5248 21.8734 21.2529 0.274703 0.653832 -0.0600015
21.5258 23.6903 21.0985 0.224108 1.18884 -2.55857
22.9963 22.9747 23.2821 -0.526416 0.62605 -1.10079
21.9232 20.8774 24.8923 -0.0706832 -1.1689 0.894214
24.2593 20.4565 23.2984 -0.532793 -0.152604 -0.0597319
24.0061 21.9159 20.9225 -0.715822 0.0441381 0.0687398
21.757 21.0033 22.1611 0.379507 -1.11313 0.87839
ITEM: TIMESTEP
3000
ITEM: NUMBER OF ATOMS
35
ITEM: BOX BOUNDS ss ss ss
1.6519391685456039e+01 2.4125217583596079e+01
1.6044787972476389e+01 2.3751569724325005e+01
1.6022230508211852e+01 2.4831743519732228e+01
ITEM: ATOMS x y z vx vy vz
18.9222 19.3189 16.1188 -0.598609 -0.3323 0.359708
19.7422 17.3384 18.0266 1.46466 -0.38736 0.129798
18.8885 19.7681 18.7282 -0.668987 0.528574 -0.952815
17.1724 18.1388 17.8464 0.14273 0.608451 -0.0695026
18.1246 17.8251 20.4373 -0.229469 0.0617697 -0.967853
20.4387 16.1258 20.046 0.0768674 -1.47764 1.3188
21.3065 19.4905 17.3396 0.025112 1.28517 0.629311
22.5851 17.8904 18.8619 1.75626 0.902426 -0.30055
16.3183 20.0476 19.6709 0.54444 -1.44213 -0.513114
16.8811 20.8078 16.9754 0.709536 -0.244178 1.76646
19.5493 21.8608 16.7764 0.682484 0.278314 -1.05115
17.8841 22.3963 18.8767 -0.351233 -0.0934775 -0.989816
23.4154 20.4381 19.0398 -0.00411696 -0.53992 0.12533
23.3051 23.2135 18.9185 -1.66078 0.6235 -1.85564
22.0544 22.0945 17.0331 0.638536 -0.692135 -0.388977
21.1372 21.532 19.3974 -0.440426 0.505527 -1.00502
20.4798 23.7756 18.5487 1.57394 1.40412 -0.860073
17.1763 19.4849 22.2149 -1.40396 -0.639964 2.27621
19.8334 17.3949 22.5122 -0.411501 -0.00449831 -0.980227
19.6009 19.8084 23.6633 -0.550476 -1.61117 0.731101
22.2673 18.5481 23.4502 -0.156317 0.0148134 -0.800767
22.4114 16.7587 21.5621 -1.78369 0.655574 0.2923
23.8091 18.8915 21.1934 0.707853 0.228613 0.612776
20.9032 18.7816 20.5753 0.407587 0.355989 -0.274951
19.1227 20.8969 21.2443 -0.355952 -0.856151 1.00791
20.2433 22.92 23.2117 1.08176 1.10976 -0.156488
19.0471 23.5602 20.8917 -2.02113 -0.270472 0.574523
17.9651 21.7754 23.4361 0.973891 0.663439 -0.223592
16.5186 22.0253 21.2852 -0.162479 1.30622 0.687747
21.7331 23.5986 21.1906 1.0291 0.694946 0.547079
22.9791 22.8942 23.5271 -0.77132 -1.08442 0.142101
21.992 20.8506 24.6842 0.387308 0.602389 0.218411
24.202 20.5727 23.2872 -1.02013 -1.19942 -0.642613
24.0809 22.0189 21.1991 0.26922 0.00997661 -0.118659
21.7348 20.9817 22.0547 0.119296 -0.964341 0.732251
ITEM: TIMESTEP
4000
ITEM: NUMBER OF ATOMS
35
ITEM: BOX BOUNDS ss ss ss
1.6519391685456039e+01 2.4125217583596079e+01
1.6044787972476389e+01 2.3751569724325005e+01
1.6022230508211852e+01 2.4831743519732228e+01
ITEM: ATOMS x y z vx vy vz
18.8808 19.1177 15.979 0.784492 1.51526 1.30024
19.7808 17.322 17.862 0.617615 -1.284 0.699231
19.0858 19.742 18.5688 -0.290761 1.53759 0.705657
17.2461 18.0788 17.7046 1.02243 -0.416026 1.23492
18.0901 17.9762 20.3263 -0.570648 0.534049 0.992232
20.2827 16.4392 20.1036 -0.165825 -0.725998 -0.440682
21.3853 19.3913 17.0996 0.239075 -1.51661 0.584957
22.6293 17.5803 18.8495 0.308782 -1.33315 0.90068
16.3253 19.9647 19.4745 0.428191 0.755953 0.779969
17.1722 20.7847 17.0414 0.329472 2.38016 0.360159
19.7586 21.7035 16.8788 -0.443563 0.115578 0.330586
17.9513 22.2684 19.0132 0.485273 -0.395352 -1.04382
23.2646 20.309 18.7484 0.604274 0.411701 0.819491
22.9677 23.3565 18.9694 -0.68101 -0.494354 0.838449
22.2818 21.9601 16.9848 0.851186 1.2243 -0.883162
20.9938 21.5206 19.3663 -0.621575 -0.423703 -0.445584
20.2773 23.9084 18.7985 -1.63839 1.23312 -2.4517
17.0445 19.3912 22.3175 0.320141 -1.93991 0.370283
19.6963 17.8352 22.3545 0.361916 -0.300618 0.753348
19.7219 20.0109 23.9814 0.248366 -1.4008 -0.262863
22.1639 18.6358 23.5547 -2.76696 0.295423 0.155579
22.3104 16.7947 21.6156 0.93419 -0.457791 -0.830413
23.6001 19.173 21.145 -0.59031 0.214464 0.652261
20.9584 18.9305 20.3213 -0.52054 -0.473465 -2.39209
18.9669 20.6643 21.1915 0.707261 -0.100625 -0.684828
20.5524 22.7132 23.7545 -0.780472 -0.591009 0.0446916
19.1316 23.2148 21.3265 0.761981 1.20143 0.141493
18.0281 21.8838 23.4956 -0.1796 0.0780071 0.67955
16.5 21.8914 21.1113 -0.131442 -0.272782 1.16394
21.7076 23.6859 21.1876 0.709782 -0.0516105 -1.12936
23.196 22.9889 23.2981 -0.502654 -1.46636 -0.401753
22.0154 21.0227 24.8141 -1.28044 0.645152 -1.45825
24.1825 20.6021 23.5154 0.12713 -0.177698 0.671082
24.0274 21.9202 21.0161 0.978725 1.28225 -1.41457
21.6481 21.043 22.0555 0.343906 0.397408 -0.339721
ITEM: TIMESTEP
5000
ITEM: NUMBER OF ATOMS
35
ITEM: BOX BOUNDS ss ss ss
1.6519391685456039e+01 2.4125217583596079e+01
1.6044787972476389e+01 2.3751569724325005e+01
1.6022230508211852e+01 2.4831743519732228e+01
ITEM: ATOMS x y z vx vy vz
18.9209 19.0195 16.092 0.769822 -0.0197619 -1.66022
19.914 17.4412 17.9835 -1.15095 -1.42337 0.983999
18.8961 19.8918 18.5943 0.506653 0.60368 -1.48317
17.1691 18.0473 17.6851 -1.01185 1.37227 0.28826
18.0679 17.8298 20.2538 0.208075 0.317071 -1.78422
20.2698 16.2442 20.1617 2.23373 0.719741 1.78662
21.3589 19.54 17.1341 0.817399 0.324822 -0.458489
22.5743 17.7369 18.9448 1.04934 -0.974044 -0.965599
16.4523 19.939 19.6822 0.383851 0.139759 0.113256
16.9749 20.7273 17.001 -0.0051101 0.987376 1.22383
19.6208 21.6352 16.7451 -0.297506 -1.03187 0.848288
18.0426 22.4236 18.9349 -0.372967 -1.17291 0.388152
23.2031 20.4105 18.9441 0.483914 0.216002 0.122078
23.0813 23.2867 19.1014 0.856591 -0.237264 0.605628
22.2627 22.1584 16.8682 -1.08522 0.406599 1.53897
20.989 21.6444 19.3806 -0.161391 -0.786264 -0.186688
20.4135 23.802 18.5923 0.162802 0.0473826 -0.285113
17.1394 19.4717 22.4778 -0.206945 1.62584 0.825088
19.614 17.7825 22.3386 0.330024 0.528253 -0.00538351
19.6596 19.9413 23.7779 0.811431 0.171671 1.87054
22.2808 18.7252 23.4547 -0.481121 -2.22114 0.0457147
22.3156 17.0001 21.5096 -0.706267 0.340778 0.0481321
23.924 19.0312 21.2769 -0.719053 -0.156059 -1.76408
20.9448 18.963 20.2176 -0.459836 -1.15001 0.390083
19.1466 20.7142 21.3243 0.299231 0.0351142 1.20031
20.4575 22.5922 23.5826 -1.06399 -0.0341797 0.182192
18.9626 23.4223 21.2758 -0.376929 -0.57533 -0.220006
17.8685 21.9114 23.4063 1.93662 0.957678 -2.38789
16.537 21.938 21.1858 0.0476765 -0.554934 -0.513264
21.568 23.4448 21.2986 -1.68828 -0.695649 0.0259479
23.1963 22.8698 23.2618 -0.020627 -0.045934 -1.29047
21.8296 21.1004 24.8309 -0.429763 -1.42462 0.603613
24.1529 20.4805 23.518 -0.360197 -0.106948 0.207675
24.089 21.8268 20.9843 -0.26555 1.50003 -0.083638
21.9277 20.8318 22.0045 -0.0336075 2.31623 -0.210138
ITEM: TIMESTEP
6000
ITEM: NUMBER OF ATOMS
35
ITEM: BOX BOUNDS ss ss ss
1.6519391685456039e+01 2.4125217583596079e+01
1.6044787972476389e+01 2.3751569724325005e+01
1.6022230508211852e+01 2.4831743519732228e+01
ITEM: ATOMS x y z vx vy vz
18.8135 19.2254 15.9265 -0.0763883 -1.47298 0.0974026
19.9095 17.4558 17.914 -0.393788 0.359571 -0.230824
19.0921 19.8487 18.5501 -0.978972 0.827908 1.37075
17.2178 18.1023 17.7425 -1.22778 -1.22886 -1.34665
18.0571 17.8696 20.3549 -0.469813 0.371127 -2.05061
20.209 16.1043 20.3046 0.38197 -0.436139 -0.132684
21.3893 19.5419 17.2499 -0.106754 1.46546 -1.17185
22.7443 17.8546 18.9287 -1.55757 0.327635 -0.146874
16.5336 19.9987 19.6329 0.999901 0.586507 1.38077
17.0933 20.8248 16.9745 0.410872 0.0174102 -0.583967
19.7039 21.6358 16.6638 0.416777 -0.568646 -0.118385
18.0559 22.294 19.0168 1.57271 0.511965 -0.798085
23.479 20.3831 18.892 -0.107738 -0.0224532 0.601017
23.1407 23.2309 18.958 -0.107362 -0.423227 1.65861
22.2619 22.1578 17.0873 -0.684901 -1.55714 -0.453008
21.0365 21.3346 19.3886 -1.14184 0.0772417 2.47909
20.4086 23.7059 18.67 0.483816 -0.292322 -1.19397
17.1544 19.5166 22.4927 1.80602 0.258129 -0.500805
19.5543 17.6052 22.4295 0.469771 1.2385 0.35586
19.7403 20.0268 23.7664 0.687483 0.625037 -0.019149
22.0918 18.4697 23.2603 0.112914 -0.043848 -1.29601
22.421 16.8757 21.5405 0.10686 -2.22862 -0.101904
23.6937 19.1345 21.2039 1.47368 1.49982 -0.406021
20.8229 18.7024 20.3883 1.18623 -0.544123 0.831404
18.9725 20.6834 21.203 -2.23531 1.09958 -0.613187
20.3167 22.7796 23.4692 1.13986 -0.444925 -0.232785
18.9403 23.327 21.3425 -0.57243 0.0255456 -0.392114
17.8497 21.9485 23.5855 -0.588029 -1.00639 0.321484
16.559 22.0002 21.3905 -1.21523 -0.51598 0.573049
21.6108 23.7172 21.0749 0.561407 -0.765692 0.748885
23.1333 23.1113 23.2876 0.914865 0.789224 -0.924399
22.1013 21.0118 24.6859 -1.22338 0.775361 1.53572
24.1865 20.5442 23.3222 0.323206 -1.20341 0.267842
23.8952 21.9882 21.0622 0.43641 1.7973 -0.00839539
21.6351 20.8144 22.065 -0.79745 0.101449 0.499803
ITEM: TIMESTEP
7000
ITEM: NUMBER OF ATOMS
35
ITEM: BOX BOUNDS ss ss ss
1.6519391685456039e+01 2.4125217583596079e+01
1.6044787972476389e+01 2.3751569724325005e+01
1.6022230508211852e+01 2.4831743519732228e+01
ITEM: ATOMS x y z vx vy vz
19.0403 19.432 16.1202 0.0752878 1.71648 -1.93067
19.8611 17.4639 17.8491 -1.70423 -1.31211 1.69187
18.9999 19.9567 18.6722 -0.50901 -0.716224 0.301804
17.1102 18.0316 17.7385 0.658049 0.974422 -0.065804
18.1898 17.8798 20.4143 -1.20938 0.480123 0.0902446
20.1807 16.3103 20.1329 -0.136506 -0.0069989 -0.598732
21.5085 19.3036 17.3303 -1.05435 0.583773 0.585773
22.9307 17.6295 18.9579 0.62238 -1.49949 -0.410431
16.4589 19.8935 19.5814 0.847432 0.135047 -0.973835
16.9385 20.6556 17.0947 1.92516 -0.921674 -0.456019
19.4747 21.9016 16.8027 0.339365 0.327712 -0.350359
17.8252 22.4276 18.8561 0.360531 -0.0582854 0.698273
23.3848 20.4143 18.8395 -0.405047 0.747326 -0.379226
23.1104 23.2261 19.0385 0.0340079 -0.583152 1.4172
22.0253 22.1005 16.9546 -0.0889402 -0.99471 -2.21845
20.9266 21.6735 19.4081 0.640817 -0.603831 -0.00399749
20.3413 23.8749 18.3319 -1.99391 -0.239374 -0.413228
17.3293 19.4102 22.3886 0.370297 -2.0718 0.583442
19.7883 17.8425 22.4651 -1.92126 1.92268 0.111206
19.6815 20.161 23.9512 0.321171 -0.61719 -0.712479
22.1275 18.6275 23.471 0.500514 -0.0173584 1.23075
22.209 16.8199 21.5978 1.19992 1.09397 -1.15498
23.7416 18.987 21.1875 0.367032 1.10491 -1.37642
21.1295 18.9342 20.2625 0.625126 0.00268001 1.56623
19.0353 20.7325 21.2286 -1.33752 0.815805 -0.977975
20.279 22.7189 23.5399 -1.29809 -0.529733 0.842203
19.0433 23.2999 21.0226 1.01912 0.570699 -0.278915
17.9384 21.8421 23.3251 0.258231 0.994945 1.25936
16.4323 21.9589 21.158 1.99584 -1.25061 0.00307228
21.6811 23.6136 21.2441 -1.65524 0.188669 -0.714235
23.1591 22.8214 23.3552 0.803403 0.431167 -0.603015
22.0716 21.0161 24.8774 0.340539 0.392275 0.622328
24.209 20.3668 23.4744 -0.12995 -1.97382 0.242266
23.953 21.7071 21.019 -0.623598 -0.890847 1.1415
21.7094 20.7902 22.1341 0.762813 1.80453 1.23126
ITEM: TIMESTEP
8000
ITEM: NUMBER OF ATOMS
35
ITEM: BOX BOUNDS ss ss ss
1.6519391685456039e+01 2.4125217583596079e+01
1.6044787972476389e+01 2.3751569724325005e+01
1.6022230508211852e+01 2.4831743519732228e+01
ITEM: ATOMS x y z vx vy vz
18.9126 19.1701 15.9113 -0.917122 -1.03229 -0.0405304
20.0475 17.4067 17.6684 -1.15602 -2.18103 -0.371137
18.9681 19.8331 18.694 0.877533 -0.472161 -1.22323
17.3023 18.0578 17.6531 -0.508177 1.47579 0.103319
17.997 17.9086 20.4784 0.698053 1.8609 0.0815953
20.1261 16.4525 20.0863 -0.312056 -1.02344 -0.481681
21.3516 19.7039 17.2931 1.06194 0.39974 0.616468
22.538 17.5856 18.7233 0.478653 0.244444 -0.449451
16.4927 19.8765 19.8252 0.415931 0.752528 1.39785
16.9204 20.532 17.2871 -1.66892 -0.74623 -1.32743
19.483 21.5993 16.7967 0.526143 1.88937 -0.481172
18.0874 22.5069 18.7907 0.118105 -0.344319 0.222619
23.3677 20.4154 18.9019 -0.751083 0.330278 -0.101541
23.1923 23.434 19.0081 2.11211 -1.04434 0.0495861
22.342 22.131 17.0664 0.0813864 0.850207 -0.67286
21.0171 21.5668 19.4845 0.39216 -1.00167 -0.0197846
20.5504 23.7883 18.2659 -0.827518 0.965209 -0.138467
17.4587 19.1503 22.7917 -0.194501 0.0759015 0.730108
19.6552 17.6506 22.5645 0.585036 1.50566 -1.07817
19.6 19.9472 23.8721 0.0166863 0.636686 1.17361
22.0736 18.6529 23.4375 -1.59459 -0.352821 0.377201
22.3001 16.8143 21.4462 0.388581 0.004903 0.724944
23.5718 18.9466 21.0666 1.31716 1.72885 0.495147
21.0194 18.9021 20.4975 -1.07288 0.401373 0.485293
18.969 20.5881 21.2047 -0.936029 -1.13682 -0.0976563
20.3808 22.8254 23.5293 -0.580282 -0.22531 0.418048
19.1011 23.4656 21.1512 -0.335064 1.53239 -1.40828
17.87 21.823 23.2799 0.599714 -0.550382 0.268146
16.8313 22.0521 21.008 0.0983511 -2.14261 0.759098
21.7879 23.6853 21.3115 -0.0399987 -2.49864 0.239114
23.0889 22.8904 23.5011 0.0774031 -0.130371 -0.271099
21.9226 20.9666 24.8622 -0.820744 -0.129731 -0.994462
24.0584 20.4845 23.1801 0.251239 0.176813 1.12334
23.8845 22.0003 20.9966 0.344388 1.92618 0.126501
21.5555 21.0111 22.1897 1.27441 -1.74506 -0.235031
ITEM: TIMESTEP
9000
ITEM: NUMBER OF ATOMS
35
ITEM: BOX BOUNDS ss ss ss
1.6519391685456039e+01 2.4125217583596079e+01
1.6044787972476389e+01 2.3751569724325005e+01
1.6022230508211852e+01 2.4831743519732228e+01
ITEM: ATOMS x y z vx vy vz
19.0567 19.3105 15.9437 0.602613 -1.60437 0.634299
19.9788 17.3962 17.8584 -0.919586 -1.40561 0.0845319
19.1904 19.925 18.5648 0.281789 -1.33296 0.9719
17.3035 18.3013 17.6793 0.871613 -1.6012 -1.27338
18.1391 17.6454 20.5094 0.42164 1.47646 0.976974
20.1485 16.0199 20.1135 0.853925 0.430018 -0.419694
21.4382 19.5386 17.1837 0.832054 2.29557 -0.679629
22.414 17.589 18.8759 0.167019 1.34536 -1.17217
16.7586 19.7427 19.8363 -1.68187 -0.430849 -0.323084
17.0266 20.8018 17.0769 1.04377 0.860643 -0.0498012
19.6746 21.8911 16.7942 1.41419 0.785022 -0.67314
18.0914 22.3811 18.8846 -0.82501 -0.597536 0.322942
23.5795 20.5342 18.592 1.09548 -0.781026 -0.341725
23.0674 23.4988 18.8725 -0.0953642 -0.260694 -0.612998
22.1535 22.1276 16.9711 -0.253908 -0.574697 0.40585
21.1522 21.5963 19.4917 0.427676 0.351456 -0.375967
20.3422 23.8784 18.4704 -0.13359 -0.184605 -0.313237
17.2562 19.4269 22.6283 0.382718 -0.374743 0.895144
19.6994 17.68 22.7537 -1.96062 -0.834843 0.0854385
19.7084 20.0616 23.8602 -0.306295 -0.818579 -0.268
22.0691 18.5846 23.3956 0.901443 -0.351017 0.890565
22.1936 16.6897 21.6741 -0.742465 -0.866324 -0.625168
23.5765 19.1644 21.0868 -0.165826 0.49777 -1.23403
20.7871 18.7311 20.3342 -2.12659 0.124496 -0.755977
19.0175 20.7424 21.3133 -0.435284 -0.0886182 2.91926
20.436 22.7005 23.4774 -0.172061 1.51774 0.463752
19.0715 23.3552 21.0555 -0.824546 -0.545465 -0.494088
17.8419 21.8975 23.4501 0.790867 0.423823 1.75573
16.6126 21.8244 21.2963 0.847343 1.27937 -0.0968322
21.5702 23.6792 21.2041 1.23054 -1.035 -0.110456
22.9593 22.7896 23.3943 -0.363461 -0.313188 0.108169
22.023 20.9351 24.9656 -1.61782 -0.404043 0.532136
24.0026 20.4602 23.363 0.0357343 0.684653 -1.83713
23.8314 22.0631 20.8527 0.883454 1.09184 0.211348
21.6536 20.8616 22.0014 -0.459563 1.24114 0.398466
ITEM: TIMESTEP
10000
ITEM: NUMBER OF ATOMS
35
ITEM: BOX BOUNDS ss ss ss
1.6519391685456039e+01 2.4125217583596079e+01
1.6044787972476389e+01 2.3751569724325005e+01
1.6022230508211852e+01 2.4831743519732228e+01
ITEM: ATOMS x y z vx vy vz
18.9659 19.4428 15.9314 0.0991868 -0.94278 0.989714
19.8946 17.46 17.9521 0.782998 0.0941761 -0.858421
19.0253 19.9094 18.6107 -0.705692 -0.251492 -1.02153
17.2074 18.0958 17.7263 -0.581712 -0.436352 1.32417
18.1779 17.6413 20.2514 -0.748905 -0.512582 -0.0997016
20.377 16.3622 20.1982 -0.483916 2.38341 -1.56744
21.4544 19.5711 17.3446 -0.45829 -1.08674 1.9038
22.6281 17.4559 18.8122 -0.565264 0.520142 0.515569
16.6152 19.681 19.9003 -0.0570773 -0.372523 -1.14203
16.8877 20.5601 17.1902 -1.11706 0.365881 -0.794256
19.519 21.8316 16.9107 1.91115 1.2428 -0.342455
17.9062 22.4526 18.9407 -1.4675 -0.54099 0.658319
23.1933 20.4094 18.9108 -0.667865 -0.998991 -1.28618
23.0532 23.3612 18.9285 0.563594 -0.33423 0.406602
22.198 22.0988 16.9104 -0.464791 0.469549 1.36695
20.94 21.7812 19.3568 -0.467348 1.89698 -0.290838
20.6101 23.9361 18.2964 1.14119 1.35169 -1.15243
17.3054 19.2568 22.5337 -0.232524 -1.83629 0.150702
19.6393 17.9196 22.5323 -0.487229 1.34895 1.29182
19.5204 20.1573 24.006 1.92424 -0.223652 -1.17769
22.0591 18.5755 23.4488 1.89789 -0.901452 2.1772
22.51 16.8784 21.5592 -0.294936 -0.378186 0.590249
23.7326 19.0692 20.999 0.547047 -0.496882 0.469421
21.0681 19.0276 20.2185 2.47962 0.542178 -0.0284591
18.9945 20.6227 21.4225 0.433655 0.293845 0.310469
20.3406 22.5861 23.4566 0.445653 -0.779874 0.623176
19.1625 23.3217 20.956 -0.657391 -0.933795 -1.36815
17.7145 22.1243 23.2627 -0.885969 -0.205723 1.28038
16.6148 21.9282 21.1654 -0.33709 0.968038 -0.249874
21.7383 23.6735 21.2236 -0.484855 -0.138506 -0.545771
23.0864 22.7745 23.5335 -0.307591 -0.891522 -0.561946
22.0018 20.7726 24.8213 0.206516 0.053509 0.34539
24.1692 20.3575 23.3887 -1.19654 -1.52396 2.05781
23.8703 21.8596 21.0655 0.732093 1.30402 -1.71883
21.6441 20.8694 22.0601 -0.495286 0.95134 -2.25574
ITEM: TIMESTEP
11000
ITEM: NUMBER OF ATOMS
35
ITEM: BOX BOUNDS ss ss ss
1.6519391685456039e+01 2.4125217583596079e+01
1.6044787972476389e+01 2.3751569724325005e+01
1.6022230508211852e+01 2.4831743519732228e+01
ITEM: ATOMS x y z vx vy vz
18.9495 19.3177 16.1199 -0.209429 0.558333 0.304686
19.9056 17.5045 17.9626 0.631925 -0.0950532 1.22506
19.1609 19.9091 18.6372 -0.0988102 -0.344249 0.117911
17.2525 17.9967 17.544 0.270749 -0.777664 0.833735
18.228 17.8307 20.3238 0.009359 1.76111 -0.865965
20.3195 16.3337 20.3903 0.569116 0.0445652 -0.491345
21.5948 19.4562 17.206 -0.235319 0.395566 1.19105
22.495 17.5904 18.7816 1.68267 1.17799 0.264228
16.5463 19.899 19.7229 -1.011 -2.44936 0.195725
17.0155 20.5621 17.0468 -0.0605724 1.01917 -0.465642
19.5414 21.8544 16.8991 0.105574 -1.18282 -0.351599
18.0541 22.4973 19.0452 1.36703 -0.493293 -0.82853
23.4444 20.5007 18.6331 0.282078 -0.752933 -0.355806
23.0089 23.5016 18.8233 -0.0554383 1.15732 0.482379
22.1779 22.0633 16.9696 0.578442 -1.27378 0.294931
21.0044 21.6856 19.4886 -0.956881 -0.494165 0.650697
20.4925 23.9442 18.4864 0.286552 1.33229 0.219273
17.328 19.2275 22.5827 -2.13245 -0.368674 -0.833042
19.6923 17.7256 22.6072 1.46175 0.215767 0.327271
19.7265 19.9785 23.9153 0.175542 -0.35313 0.798222
22.036 18.5104 23.2509 0.322003 -1.5308 -0.674154
22.558 16.7096 21.5796 -0.560317 0.345302 -0.28596
23.6325 19.0199 20.9002 -1.39543 0.691147 -1.87452
20.8753 18.8843 20.5372 -1.43227 0.0731598 -1.05339
18.8883 20.6006 21.3001 0.084825 -0.746309 0.475331
20.3056 22.7891 23.5426 1.78719 -1.30407 0.243794
19.179 23.5025 21.1961 0.933975 0.932943 -1.09574
17.7887 22.0136 23.1727 -0.190043 1.91044 2.6391
16.4322 21.891 21.1469 -0.434094 0.073312 -0.542335
21.7969 23.6615 21.282 -0.0384648 0.749254 0.724671
23.0496 22.8564 23.5674 0.33079 -0.229875 -1.46971
22.0963 21.0027 24.835 -0.889483 2.08144 -0.366708
24.0704 20.3112 23.2337 -0.643311 0.374995 -0.707201
23.6554 21.8141 20.9546 0.588529 -0.419628 1.01685
21.5228 20.8795 22.1404 -1.12478 -2.07832 0.256723
ITEM: TIMESTEP
12000
ITEM: NUMBER OF ATOMS
35
ITEM: BOX BOUNDS ss ss ss
1.6519391685456039e+01 2.4125217583596079e+01
1.6044787972476389e+01 2.3751569724325005e+01
1.6022230508211852e+01 2.4831743519732228e+01
ITEM: ATOMS x y z vx vy vz
18.9102 19.2911 16.0005 -0.446436 -0.815986 0.957544
19.8548 17.4401 17.8301 -0.286963 0.18887 2.99814
19.1206 19.9616 18.5899 0.388102 -0.784446 -0.986983
17.3523 18.1419 17.6065 -0.361802 1.91465 0.571257
18.2937 17.7503 20.417 -0.285823 0.096868 -0.271575
20.3407 16.1082 20.0867 0.458607 -0.343576 0.265045
21.4085 19.349 17.2256 1.57552 0.40156 -0.404266
22.5594 17.5065 18.8528 -0.562713 -0.666078 -0.247423
16.7051 19.872 19.7124 -1.27912 0.388198 -0.390706
17.0208 20.721 17.1509 0.108926 -1.90271 1.34843
19.582 21.9463 16.7598 -0.455153 0.771252 -0.220548
18.0453 22.5579 18.9603 0.533314 0.159217 -1.24796
23.1529 20.4326 18.9119 0.0908907 1.25688 -0.0317421
23.1209 23.429 18.9627 1.01154 0.455095 -0.749334
22.1862 21.9994 17.0664 1.97152 -0.724394 0.571295
20.7706 21.7617 19.4368 0.747334 1.50774 -0.810957
20.5131 23.9764 18.1763 -0.918603 1.37162 0.476169
17.2293 19.1827 22.5035 -0.0396093 -0.472866 0.55513
19.7794 17.6279 22.5469 -0.385625 0.665239 -1.28381
19.6779 19.8326 23.9327 -0.0699644 -1.99124 0.371265
22.0651 18.6829 23.467 -0.943388 0.55198 -0.257806
22.2469 16.8097 21.5624 -1.39893 -0.0289782 -0.197893
23.5534 19.1192 21.2321 -0.0822683 -0.615573 -0.869657
20.9057 18.8164 20.1832 1.20358 -2.21228 0.663936
19.1106 20.5966 21.5407 0.276635 -1.25448 -0.957215
20.4074 22.8117 23.363 -0.507753 -1.91596 2.15397
18.9708 23.3188 21.269 0.63941 1.37143 1.68618
17.7477 21.8454 23.6262 0.843006 1.00862 -2.58866
16.7709 21.9122 21.3099 -0.695789 -1.29329 1.00859
21.6383 23.7784 21.0484 -0.0413387 0.392997 1.03258
23.0455 22.8143 23.1685 1.08563 0.537616 -0.217304
21.9557 20.9941 24.821 -1.19855 1.02618 -0.995683
24.1229 20.5562 23.4791 -1.77053 1.56002 -1.09999
23.9896 21.9701 21.0573 -0.0470529 0.373139 -1.75715
21.671 20.9107 21.9674 0.843378 -0.97731 0.92712
ITEM: TIMESTEP
13000
ITEM: NUMBER OF ATOMS
35
ITEM: BOX BOUNDS ss ss ss
1.6499590313712417e+01 2.4211726868370338e+01
1.6339150766531414e+01 2.3812703367818074e+01
1.5943320478496885e+01 2.4780137902785231e+01
ITEM: ATOMS x y z vx vy vz
19.0516 18.9615 16.0504 -0.185851 0.0515994 -0.0205904
20.2201 17.4358 18.0272 0.0621745 0.196408 -0.202537
19.0573 19.8463 18.5334 0.505958 0.313105 1.27208
17.4028 17.9761 17.6477 0.273463 1.37321 -0.0623916
17.9837 17.863 20.5304 1.01316 -2.47342 0.38642
20.1399 16.2154 20.4174 -0.107104 -0.864243 -0.431542
16.5804 19.912 19.7053 0.387061 0.632598 -1.23304
16.9715 20.7575 17.0033 -1.01031 0.780133 0.858542
19.427 21.7019 16.7392 0.991944 -0.936359 -0.168042
17.9867 22.3757 19.0494 0.467545 0.105596 -2.71278
20.3223 23.756 18.6033 -0.523159 0.203814 0.396762
21.4499 19.7529 17.1496 -2.31558 0.564253 0.793602
22.6665 17.78 18.7125 1.02553 1.55718 1.36041
23.4584 20.4653 18.6036 0.232921 -0.516365 0.160624
23.1645 23.3523 18.8888 0.0812283 -0.452933 -0.725201
22.0838 22.393 16.8848 -0.157191 0.43599 -0.125439
21.0316 21.5355 19.3874 -1.07339 0.228013 0.37885
17.2674 19.4974 22.7134 1.86805 -2.12989 0.0376879
19.6328 17.8151 22.5204 1.07317 -1.19383 0.726276
19.7307 20.0895 23.9479 -0.761498 0.954874 -0.909238
19.0341 20.5895 21.1749 -0.170214 0.368303 -1.34619
19.0054 23.3834 21.181 0.568925 -0.437322 0.384123
17.9321 22.0414 23.3204 -1.78802 1.30011 1.40493
16.6768 21.9318 21.3016 0.157468 1.65048 1.37896
21.9687 18.5644 23.5401 1.62058 0.42953 -0.0702177
22.4994 16.8477 21.4304 -0.93696 -0.645787 0.687032
23.5798 19.1978 21.0354 0.26231 -0.789594 0.209924
20.9974 18.7808 20.2136 -0.49353 0.15029 0.515408
20.4201 22.8587 23.3902 -0.779319 1.75517 -1.77979
21.7144 23.5143 21.1077 0.545461 1.07798 -1.51485
23.1104 22.721 23.5511 -2.39773 -0.388099 1.28167
21.9667 20.9627 24.92 -1.05764 -1.75522 0.401235
23.8891 20.1247 23.4669 1.01865 -1.44341 -0.35859
23.7813 21.9567 21.0862 0.961344 -0.546937 -1.53486
21.6207 20.8675 21.9901 0.640546 0.444769 0.560767
ITEM: TIMESTEP
14000
ITEM: NUMBER OF ATOMS
35
ITEM: BOX BOUNDS ss ss ss
1.6499590313712417e+01 2.4211726868370338e+01
1.6339150766531414e+01 2.3812703367818074e+01
1.5943320478496885e+01 2.4780137902785231e+01
ITEM: ATOMS x y z vx vy vz
19.0368 19.0208 16.0458 0.164811 0.53718 -0.0253856
19.8279 17.3572 17.8361 1.52716 -1.43334 -0.633667
19.0249 19.8844 18.4868 -0.893297 -0.689804 0.195274
17.0227 18.096 17.6814 0.839474 -0.770523 -1.34341
18.1508 17.789 20.2951 -0.378673 1.17925 -0.22891
20.4014 16.3476 20.2081 -0.41731 0.56199 -0.537351
16.565 19.8516 19.7202 -0.955269 -0.295901 0.732851
17.063 20.6998 16.9277 1.02285 -1.38019 -0.805206
19.508 21.8102 16.8507 -0.614008 0.770583 1.9549
17.9976 22.2941 19.0969 -0.58885 0.486192 -1.16822
20.533 24.0299 18.6493 -0.0582597 -2.28785 -0.276139
21.3565 19.5798 17.096 -0.636234 0.542384 -0.598767
22.6663 17.6054 18.9494 -0.448686 0.325704 -0.646223
23.2863 20.2513 18.7636 1.66257 -0.47181 -0.00605399
23.0856 23.321 18.9844 -0.465933 -0.46808 0.234723
22.3034 21.9047 16.895 -1.64198 1.17767 -0.715417
21.0368 21.6858 19.394 0.13239 0.819777 1.72909
17.2079 19.3577 22.4572 -1.55151 2.67774 0.803811
19.7261 17.9368 22.4701 0.29961 -1.18556 -0.604237
19.4113 19.9937 24.2225 0.00690382 0.633508 -0.0442385
19.0178 20.6462 21.2801 0.800713 1.42214 0.215727
19.0035 23.4136 21.237 -0.0402892 -1.5079 -0.514
18.0442 22.0787 23.4602 -0.677981 0.0168789 -0.456921
16.5234 21.6465 21.2844 -1.09482 0.158108 0.183314
22.1885 18.6427 23.2728 -0.941988 1.25655 1.28847
22.3896 16.7296 21.5264 1.12281 -0.236437 0.0521972