ITEM: TIMESTEP
0
ITEM: NUMBER OF ATOMS
35
ITEM: BOX BOUNDS ss ss ss
1.6620984610715890e+01 2.4657984795385001e+01
1.6391728178235997e+01 2.4315554349316610e+01
1.5914768888406737e+01 2.3914232546208265e+01
ITEM: ATOMS x y z vx vy vz
18.5879 19.157 15.9188 -0.424978 0.753356 0.251876
19.8272 17.1994 17.1509 0.0816971 0.00876439 -0.50868
17.4848 18.0138 18.2942 -0.942656 0.104912 -0.0951241
19.3895 19.8182 18.7159 -2.18401 0.411907 -0.275135
19.7059 16.5648 19.73 -1.54238 0.341166 0.451297
22.4462 20.3448 18.9262 1.15392 0.320726 0.849337
21.188 19.5134 16.6153 0.96721 -0.525962 0.197486
21.988 17.6859 18.6963 -0.425925 0.0913344 1.55472
20.5627 22.4858 19.1175 -0.138427 1.74532 -1.76465
16.8787 20.5374 17.3273 0.813195 -0.656886 1.47466
19.3414 21.6688 16.7046 0.940778 0.623162 1.30571
17.833 22.4436 18.9876 -1.57108 -0.662931 -2.21787
22.0125 22.0723 16.8545 -0.050073 -0.327705 1.13189
23.2956 22.9835 19.0913 -0.791023 2.09969 -2.95076
16.7348 20.0171 22.6674 1.24517 0.27132 0.172838
16.6251 20.2469 19.9737 2.07802 -0.727333 -0.12796
18.0472 18.2333 21.0325 0.979011 0.557215 -0.962077
19.8563 16.6573 22.466 -0.483655 -1.50148 -0.167574
19.19 19.0763 23.4028 -2.88761 -2.13154 -0.350219
22.0175 18.2212 23.2498 1.10455 -0.524597 -0.404695
22.1077 16.3958 21.1094 -0.122859 -0.775272 0.227103
23.5501 18.6531 20.9228 -1.93812 -1.61153 0.943541
20.8011 18.9055 20.9545 1.27897 -0.754009 -1.40634
19.0088 23.9581 20.8922 0.801386 0.510815 -1.03983
19.1352 21.1185 21.2956 1.76734 0.504084 0.606232
20.4077 23.2808 23.0558 -1.04611 1.16904 1.01561
18.4117 21.6987 23.8641 2.74823 -0.442671 0.707663
16.8555 22.5019 21.6459 -2.16798 -0.375052 -0.117976
22.947 22.8121 23.7957 -1.39651 1.16708 0.230737
21.1693 20.7826 23.9102 1.57535 0.927997 0.257436
23.7941 20.3586 23.0427 -1.30368 -0.750875 0.194311
24.6539 21.0655 20.5112 0.963918 -0.347721 0.232187
24.2045 23.4398 21.5929 -0.834083 0.773277 -1.39427
22.0272 21.6019 21.3852 1.37708 -0.412302 0.710679
21.7388 24.3115 20.9239 0.375331 0.14671 1.26786
ITEM: TIMESTEP
1000
ITEM: NUMBER OF ATOMS
35
ITEM: BOX BOUNDS ss ss ss
1.6620984610715890e+01 2.4657984795385001e+01
1.6391728178235997e+01 2.4315554349316610e+01
1.5914768888406737e+01 2.3914232546208265e+01
ITEM: ATOMS x y z vx vy vz
18.7207 19.1967 16.0904 0.566524 -1.67769 -0.949365
19.7552 17.2814 17.2592 -1.08076 0.0846448 -0.465335
17.4175 17.997 18.401 -1.1817 -0.531341 -0.611517
19.4081 19.6833 18.6999 -0.533128 0.784779 -1.35589
19.8353 16.556 19.7792 0.122624 -0.250246 -1.35719
22.5443 20.279 18.8047 0.118768 0.191381 1.28273
21.2705 19.6158 16.4649 -1.26677 -0.454239 0.4707
21.9714 17.8311 18.6975 -0.380676 -1.07462 -0.0303747
20.6276 22.4467 19.1589 -0.584058 1.2989 1.4095
16.8323 20.5306 17.3701 -1.34598 -0.339114 -1.51137
19.2915 21.8273 16.7593 -0.420605 0.386013 -0.442335
17.9751 22.3827 18.9973 -0.330459 0.0558813 -1.36705
21.9606 21.9974 16.9169 -0.187137 0.333975 1.43561
23.2106 22.9216 19.1791 1.38696 1.30192 -0.395427
16.8888 20.1601 22.687 -0.645143 -0.926433 0.80627
16.6318 20.3343 20.0291 0.308904 -0.711907 -0.44329
18.0152 18.217 21.1375 0.59727 0.83105 0.136259
19.9985 16.7072 22.4077 -0.713468 -1.21409 1.24913
19.1247 18.9954 23.5327 1.24465 -0.29171 -0.983183
22.1434 18.1016 23.2079 -1.31736 -2.01411 -0.798028
22.2971 16.496 21.0298 0.12871 -0.302087 0.871319
23.6222 18.7868 20.8879 -0.428781 -1.22907 -0.834583
20.7161 18.8043 21.0001 0.712055 -1.08869 1.67305
19.103 24.1988 20.515 -0.567609 -1.70815 0.269118
19.1287 21.1198 21.4056 1.52599 1.82972 2.40667
19.9161 23.1744 22.9025 -0.465657 0.494569 0.322906
18.1611 21.7447 24.0947 -1.14543 1.11554 -1.06258
17.1664 22.8198 21.6617 1.20839 0.773958 -0.623162
22.4652 22.9009 23.5621 0.215637 -0.37792 -0.16226
21.0402 20.6233 23.636 2.10925 -0.21062 -0.164886
23.8645 20.536 22.9491 -0.306566 0.899299 -0.408009
24.7476 21.0534 20.2894 -0.0308998 1.60219 1.53074
24.2764 23.1409 21.7202 0.320981 0.9079 -1.07235
21.9664 21.2882 21.3121 2.27304 0.24682 0.738088
21.7309 24.0755 21.2785 0.0924297 1.2635 0.436109
ITEM: TIMESTEP
2000
ITEM: NUMBER OF ATOMS
35
ITEM: BOX BOUNDS ss ss ss
1.6620984610715890e+01 2.4657984795385001e+01
1.6391728178235997e+01 2.4315554349316610e+01
1.5914768888406737e+01 2.3914232546208265e+01
ITEM: ATOMS x y z vx vy vz
18.6325 19.2057 15.7605 -0.124941 -0.695998 1.31977
19.7941 17.585 17.2567 -0.895602 0.229247 2.56806
17.4669 17.8852 18.4316 -0.655593 -0.893548 -0.553129
19.4496 19.8321 18.7969 0.294804 -1.67521 -1.03388
19.7459 16.5175 19.7858 -0.326209 -0.0351457 0.714301
22.4921 20.237 18.7505 0.437167 -0.744075 -1.20734
21.2575 19.612 16.636 -0.803538 1.1181 -1.26976
21.8787 17.6032 18.7208 -1.98877 0.801277 0.141129
20.4523 22.5716 19.1051 -1.47358 0.310722 0.193066
17.1666 20.3209 17.4026 0.437766 -0.890622 -0.370623
19.2975 21.7539 16.6335 -1.39046 1.89485 -1.20055
17.9785 22.3593 19.0076 -0.878804 0.386635 -1.17229
21.8715 22.1313 16.9975 0.178356 0.00773169 0.823726
23.1856 23.1179 19.1705 0.442414 0.498823 1.40897
16.6913 20.0529 22.6474 1.73667 -0.717925 -1.42077
16.8053 20.1109 19.9438 1.92456 0.0771609 -0.503582
18.1115 18.2021 21.1057 0.782307 1.15671 0.759838
19.902 16.8891 22.5524 0.244575 0.927588 -0.205185
19.0677 19.2377 23.5144 -1.08937 -1.11971 -0.179437
22.0094 18.4871 23.1209 1.22641 0.133429 0.679509
22.0756 16.5534 21.1315 0.2428 -0.280731 1.45876
23.6579 18.5443 20.8379 -0.550017 -1.5594 -1.61977
20.7225 18.9002 20.9105 -0.318365 -0.657481 -1.51304
18.9931 23.8199 21.0684 -1.08257 0.52312 -0.824508
19.1114 21.1499 21.4131 -0.853521 -0.159839 -0.869195
20.2937 23.224 23.2485 -0.0966519 0.89387 0.856261
18.3451 21.7692 23.8113 -0.0932649 0.223175 0.510684
16.7331 22.3931 21.4126 0.515587 -0.360265 -0.176201
22.874 22.9229 23.7153 -0.18477 0.676143 0.6841
21.0641 20.907 23.6366 -0.0593268 -1.83782 -0.803294
23.8337 20.5052 22.8631 -0.140018 1.02999 -0.0369228
24.6557 20.9298 20.2039 1.10518 -0.654606 1.85151
24.3649 22.9374 21.6607 0.716779 -0.142958 -0.389673
21.9655 21.4939 21.1997 1.7445 0.794392 0.084666
21.8782 24.0625 21.3715 0.975504 0.742365 1.29479
ITEM: TIMESTEP
3000
ITEM: NUMBER OF ATOMS
35
ITEM: BOX BOUNDS ss ss ss
1.6620984610715890e+01 2.4657984795385001e+01
1.6391728178235997e+01 2.4315554349316610e+01
1.5914768888406737e+01 2.3914232546208265e+01
ITEM: ATOMS x y z vx vy vz
18.6619 19.2861 15.8137 -0.315728 -0.669945 0.815535
19.8859 17.2779 17.1262 -0.38852 0.27501 -0.880175
17.5151 18.0369 18.25 -0.646261 -0.508703 -1.18996
19.6204 19.7597 18.7285 0.302147 1.4076 0.460844
19.5363 16.5004 19.6014 -1.65411 -1.54366 0.646113
22.4105 20.1274 18.9434 -0.455468 -0.4761 0.0448312
21.2059 19.6271 16.5599 1.15885 -0.565693 0.552795
21.8762 17.5905 18.6147 -0.244325 0.621653 -0.558299
20.6072 22.3789 19.0912 0.567832 0.607572 2.15409
16.9794 20.4717 17.3646 1.02866 -0.670408 -0.245223
19.295 21.6218 16.5326 -0.976672 0.204728 -1.27307
17.9363 22.2646 18.8782 -0.209794 0.0570405 -0.339647
21.9553 22.0129 17.0484 -0.738522 1.14886 -0.736429
23.2474 22.9694 19.2149 -0.302796 0.0122711 -0.163662
16.8887 19.9625 22.6636 -0.545006 0.485056 -0.463426
16.7007 20.3798 20.1661 -0.483025 0.762025 -0.782511
18.1068 18.2793 21.045 2.47892 -1.1861 0.791199
19.8061 16.7316 22.3935 0.729807 0.274189 -0.334417
19.1889 18.9446 23.4739 0.551738 0.881501 0.569506
21.9981 18.3119 23.2849 1.59137 0.230004 0.996035
21.9046 16.5173 21.0812 0.249321 -2.43578 -1.38357
23.488 18.5921 20.8334 -0.94206 -0.607456 -0.632177
20.8697 18.917 21.0199 -0.264541 0.367228 1.29556
19.0229 23.8351 20.5227 -0.224621 0.64677 0.635852
19.2007 21.1227 21.4267 0.626613 1.50141 -0.397249
19.8271 23.386 22.968 -0.587087 -0.958348 -0.64646
18.5843 21.4596 24.2562 0.835449 -0.349919 -0.824735
17.2895 22.5614 22.0774 0.334365 -0.146488 0.171991
22.639 23.2751 23.4958 -1.97354 0.485603 -0.766132
21.1468 20.9251 23.6774 -0.550196 1.72095 0.739527
23.7914 20.5321 22.8654 -0.631329 -0.0187261 0.374283
24.5719 21.0724 20.6439 0.147048 -1.0942 0.273238
24.3077 23.3457 21.6575 1.65007 -0.662354 0.253625
21.9536 21.5733 21.2782 0.623076 0.939865 0.0454568
21.8054 24.1749 21.2266 -0.741662 -0.735459 0.796657
ITEM: TIMESTEP
4000
ITEM: NUMBER OF ATOMS
35
ITEM: BOX BOUNDS ss ss ss
1.6620984610715890e+01 2.4657984795385001e+01
1.6391728178235997e+01 2.4315554349316610e+01
1.5914768888406737e+01 2.3914232546208265e+01
ITEM: ATOMS x y z vx vy vz
18.6575 19.0321 15.8992 1.6003 -1.56366 0.803276
20.0252 17.2844 17.2515 -0.897352 -0.572717 -0.828092
17.4307 17.9666 18.1553 0.458443 -0.344363 0.938604
19.3978 19.799 18.721 1.47181 0.312167 1.52279
19.6417 16.5892 19.7772 1.21212 0.377237 -0.960116
22.6177 20.2912 18.821 -1.49475 -0.441325 0.210676
21.1777 19.7086 16.7141 0.200515 -0.112425 1.07732
21.9934 17.7398 18.8294 -0.741112 1.10296 -0.794996
20.669 22.5578 19.075 -1.04628 0.3872 -0.854662
16.9727 20.3023 17.3226 1.16173 1.39059 -0.912433
19.2556 21.7414 16.7748 0.308828 0.316368 1.01093
17.7742 22.4878 19.0167 0.350687 0.538814 0.464728
21.8964 22.1981 16.9057 -0.177619 1.23716 0.341357
23.2326 22.9242 19.0882 0.867109 -2.21795 -1.07578
16.7935 20.0446 22.6273 -0.133766 0.728855 0.449488
16.5966 20.2775 19.8863 -0.0314502 -0.211069 0.643076
18.0678 18.505 20.8869 -1.12279 -0.173518 -0.809379
19.7609 16.9672 22.3967 -0.430407 -0.804912 0.554709
19.2177 19.0518 23.599 1.52145 2.02758 0.47595
22.0391 18.3787 23.1964 0.387645 -1.4509 0.34966
21.9866 16.4756 21.2461 -0.0301284 -0.0616243 -3.2483
23.5838 18.5486 20.9033 0.111745 -0.313362 0.211648
20.8583 18.972 20.9829 -0.363922 0.724164 1.32975
19.0534 23.7461 20.9453 -1.69062 -0.37318 -0.47026
19.1877 21.0278 21.3654 0.222177 -0.851064 -2.52759
20.1265 23.2219 23.308 -0.888523 1.90926 0.130066
18.3855 21.5941 23.9304 0.303988 -0.665255 0.560238
16.9722 22.4514 21.7315 -0.0174175 0.385154 -0.31351
22.7572 22.8826 23.5661 -0.906208 1.95021 0.179351
21.2303 20.7961 23.7116 0.332443 0.225167 1.95698
23.8078 20.672 22.9224 -0.144024 -1.25666 0.0566899
24.6593 20.8795 20.2958 0.728231 0.116078 -0.0852138
24.2275 23.1688 21.5568 -0.749339 -0.51348 -1.51863
21.9494 21.3765 21.2066 0.257235 -0.496414 0.553231
21.8217 24.1646 21.2082 -0.630749 -1.30509 0.578439
ITEM: TIMESTEP
5000
ITEM: NUMBER OF ATOMS
35
ITEM: BOX BOUNDS ss ss ss
1.6620984610715890e+01 2.4657984795385001e+01
1.6391728178235997e+01 2.4315554349316610e+01
1.5914768888406737e+01 2.3914232546208265e+01
ITEM: ATOMS x y z vx vy vz
18.5794 19.1119 16.0145 -0.474643 -1.01641 -0.700685
19.8956 17.2084 17.3342 0.541833 -0.183456 -0.145388
17.3504 17.9996 18.3501 -0.357923 0.639796 0.10543
19.3948 19.7292 18.7174 0.383704 -1.32721 1.24304
19.7217 16.6374 19.7936 0.221286 1.47968 0.0223606
22.8073 20.4104 18.6869 2.09211 1.03227 0.138455
21.2413 19.6251 16.6116 -0.996331 -1.15756 -0.766564
21.9935 17.8416 18.7871 -0.0265654 0.281586 0.722505
20.5029 22.2748 19.1098 -0.669048 0.523826 -0.974035
16.9119 20.558 17.3904 0.470141 0.792234 0.339014
19.3645 21.6386 16.7372 1.71728 -0.823103 0.693632
17.8282 22.4092 19.1541 -1.83014 -0.0263124 -0.588113
21.8671 22.1233 16.915 -0.86809 0.183973 1.36555
23.2466 22.9415 19.0962 -1.09581 0.496096 -0.517273
16.724 20.1785 22.576 1.04374 1.29283 0.587047
16.6305 20.3236 19.9381 1.65899 -0.0514152 -0.713089
18.1003 18.5194 20.9908 -1.43464 0.821545 -1.05239
19.9738 16.5823 22.3152 1.48715 0.0738153 -1.78994
19.3715 18.9099 23.393 -0.43384 1.0608 -0.6618
22.0243 18.3355 23.1601 0.0390377 1.62134 0.407336
22.1279 16.5216 21.0863 -1.11892 -1.33178 0.0370125
23.6023 18.7854 20.9276 1.44968 -0.461729 0.556993
20.7622 19.0597 20.9551 0.977679 0.937018 2.1934
19.0541 24.0822 20.6726 -0.723197 0.294805 1.19792
19.1072 21.2302 21.3424 -0.59379 1.13312 0.299539
19.8533 23.1334 23.0536 1.54194 0.00342028 -1.25184
18.3132 21.302 24.0667 0.851649 -0.901177 -0.681192
17.0919 22.8141 21.9047 -2.66225 -0.598805 1.0571
22.5567 23.0443 23.3764 -0.206195 -0.750879 -0.322755
21.1137 20.7225 23.9883 1.42253 -1.37344 -1.17671
23.7432 20.6222 23.1337 -2.69854 -0.17835 -0.23723
24.7958 20.8954 20.3368 0.419123 -0.655411 -0.177267
24.3119 22.9724 21.6677 0.938992 -0.602554 0.012797
22.0654 21.2458 21.2618 -0.538149 -0.994379 1.24644
21.7969 24.0354 20.9799 -0.528777 -0.234188 -0.469288
ITEM: TIMESTEP
6000
ITEM: NUMBER OF ATOMS
35
ITEM: BOX BOUNDS ss ss ss
1.6620984610715890e+01 2.4657984795385001e+01
1.6391728178235997e+01 2.4315554349316610e+01
1.5914768888406737e+01 2.3914232546208265e+01
ITEM: ATOMS x y z vx vy vz
18.6461 18.9766 15.9152 -0.276017 -0.347678 -0.573244
19.7578 17.1955 17.2901 1.80223 -1.92989 -1.57481
17.4121 18.1576 18.3647 -1.84099 0.149249 -0.717417
19.5398 19.778 18.7705 1.25327 0.45551 -2.73643
19.8369 16.7969 19.8074 -0.329969 0.303171 0.722728
22.4849 20.3337 18.81 -0.0621181 -1.26511 0.456625
21.1498 19.5271 16.4899 -0.999927 0.248174 0.250753
21.9385 17.8037 18.6306 1.29977 -1.08174 0.266257
20.504 22.6194 18.9362 -1.03202 -1.17956 0.145371
17.0881 20.606 17.2495 -0.761625 1.09924 -0.458854
19.5006 21.5761 16.4995 0.224314 -0.322279 0.630191
17.8376 22.3538 19.0402 0.564035 0.0446086 0.199226
22.0195 22.3262 16.9351 -0.767441 -0.298547 1.35271
23.2166 22.9849 19.181 0.846445 0.0870416 -0.110599
16.7986 19.991 22.6921 -0.363335 0.289957 0.658486
16.7086 20.413 20.0998 0.539294 -1.4112 1.93678
17.8115 18.1664 21.0648 1.24521 0.838764 -1.1432
20.0007 16.6637 22.3866 -0.202709 0.65108 -0.461804
19.1591 19.0018 23.3714 0.426468 -0.343604 1.30883
22.0492 18.3075 23.3645 0.27381 0.376254 -1.77594
22.2596 16.5388 21.0799 -1.99432 0.123953 0.607247
23.5653 18.7141 21.0614 0.588845 1.574 0.519596
20.8385 18.9298 21.0953 -0.181697 1.97465 0.601772
19.1285 23.6663 20.9986 0.146401 1.46704 1.88308
19.0907 21.0543 21.3013 0.908464 0.415415 -0.488338
20.1303 23.4671 23.2489 -0.609972 -0.315295 -0.506167
18.4319 21.6838 23.808 -1.52966 0.7439 -0.357642
16.8127 22.5005 21.9621 -0.170394 -0.703525 0.221872
22.7033 22.9543 23.4894 -0.537742 -0.524931 -0.499608
21.0363 20.849 23.7679 0.987793 -1.03418 -1.32139
23.7926 20.5739 22.8032 0.194232 0.815803 -0.0721901
24.7188 20.6979 20.2416 -0.440989 -0.79593 -0.062647
24.2794 22.9429 21.636 -0.543933 0.116636 0.201919
21.767 21.5156 21.1714 0.596144 -1.64267 1.2516
21.8102 24.158 21.2607 0.748131 1.42169 -0.354775
ITEM: TIMESTEP
7000
ITEM: NUMBER OF ATOMS
35
ITEM: BOX BOUNDS ss ss ss
1.6620984610715890e+01 2.4657984795385001e+01
1.6391728178235997e+01 2.4315554349316610e+01
1.5914768888406737e+01 2.3914232546208265e+01
ITEM: ATOMS x y z vx vy vz
18.3793 19.2368 16.0691 0.259442 0.584736 0.451519
19.777 17.36 17.3859 -0.714392 -2.10013 -0.0922448
17.4815 18.0761 18.3857 2.80057 0.084297 -0.948909
19.4295 19.8384 18.8149 0.985022 -0.0853639 0.312398
19.7379 16.5811 19.7373 -1.33776 -0.129573 -1.13538
22.4772 20.3151 18.7077 -0.327844 -2.19498 -0.499001
21.1161 19.4145 16.6374 -0.597534 -0.878894 -0.594263
22.1643 17.7095 18.6327 1.39503 0.0758296 -1.15901
20.561 22.4969 19.0877 0.348838 1.07853 0.415494
16.9109 20.4922 17.426 -1.54084 0.912547 -0.123104
19.4562 21.5943 16.706 -0.298984 1.34064 1.75917
17.9595 22.4274 19.0562 0.429227 0.792015 -2.03333
21.9777 22.1086 16.7861 -0.235304 -1.99762 -0.320868
23.2902 22.9016 19.1026 0.533857 0.801883 -0.164868
16.8441 19.997 22.5838 -0.794515 -0.714291 1.43946
16.7289 20.3335 19.9848 -0.620214 -1.27708 2.15459
18.1093 18.3513 20.9998 -0.519399 0.26354 -1.54817
19.8077 16.6621 22.3618 -0.465527 0.24375 -1.29099
19.2226 18.9494 23.5696 -0.345854 0.563358 2.48967
21.9765 18.4111 23.1653 0.383924 0.189079 0.426815
22.058 16.4325 20.8697 -0.074822 -0.377841 1.1075
23.5071 18.8064 20.9534 -0.0718546 -0.0784667 0.257678
20.755 18.7631 20.8125 1.79516 -0.182285 0.0400106
19.1335 24.0718 20.6818 0.49544 1.91367 -0.670496
19.2492 21.0682 21.5169 0.933397 0.404182 -0.672468
19.8701 23.3718 22.868 -2.27683 0.50563 2.22622
18.4692 21.3446 24.0907 -1.20702 0.578553 -0.342811
17.1264 22.5063 21.7394 0.942944 0.0744103 -0.142918
22.3888 23.0916 23.5788 -0.937576 -1.14122 -1.44011
21.0569 20.8948 23.8335 0.992795 -0.62736 -0.972014
23.9084 20.676 23.0615 0.822063 1.83242 -1.31172
24.659 20.9412 20.2488 0.735371 -0.309141 -0.841936
24.2222 23.0622 21.9713 -1.28562 0.112604 0.937984
22.1339 21.4399 21.283 -0.257303 -1.05852 1.02527
21.8802 24.098 21.1155 0.0561197 0.801077 1.26084
ITEM: TIMESTEP
8000
ITEM: NUMBER OF ATOMS
35
ITEM: BOX BOUNDS ss ss ss
1.6620984610715890e+01 2.4657984795385001e+01
1.6391728178235997e+01 2.4315554349316610e+01
1.5914768888406737e+01 2.3914232546208265e+01
ITEM: ATOMS x y z vx vy vz
18.5081 19.2388 16.1049 -0.28704 0.389338 0.322165
20.0225 17.3553 17.0776 -0.0378945 1.67551 -0.61171
17.5767 17.8528 18.291 0.306549 0.292948 0.0271263
19.4463 19.7174 18.8104 0.26043 -0.607109 1.0221
19.4845 16.6392 19.6765 -0.416467 0.0382318 0.572484
22.462 20.2996 18.92 0.489241 -0.83665 -2.23492
21.0609 19.6959 16.554 -0.276397 -3.18688 0.188156
21.8916 17.6843 18.886 -0.333156 -0.543799 -0.057203
20.7462 22.7012 19.0274 -1.07466 0.761721 0.427715
16.7575 20.3879 17.5884 -0.410888 -0.989027 0.853896
19.426 21.6053 16.656 -0.758574 0.76054 0.154273
18.118 22.2794 18.8736 -0.715079 0.925845 -0.654681
22.0194 22.2086 16.8516 -0.387586 -0.257801 -0.80304
23.2517 23.1351 19.1123 0.351109 0.356287 0.713755
16.8015 20.0302 22.7517 -2.1495 -0.0400303 0.0473684
16.5732 20.1356 20.0057 0.652503 -0.510989 -0.272715
18.0514 18.2421 20.9748 0.921351 -0.899591 -0.094897
19.6374 16.74 22.3783 0.275334 -0.0364746 -1.84768
19.2923 18.9357 23.4131 -1.83318 -1.48626 0.541724
22.0984 18.3509 23.2999 0.305456 1.93539 -0.354775
21.9135 16.3886 21.2907 0.77066 -0.660286 0.201004
23.4376 18.78 20.9514 -0.228419 -1.66327 0.29994
20.7636 18.9529 21.0886 0.539656 -0.332456 -0.964081
19.0709 23.9821 20.726 -0.273447 -0.00232004 1.68881
19.1216 21.2029 21.3856 -0.348966 -0.24779 -0.504419
20.1787 23.1705 23.0511 -1.00121 0.850507 1.44331
18.371 21.4545 24.0339 0.175785 -0.000383728 -0.915336
17.0305 22.435 21.3989 0.0887659 0.87914 -0.832331
22.7432 22.8822 23.6725 -0.179561 0.101354 -0.366741
21.0931 20.7729 23.7269 0.785113 2.77521 0.8292
23.9384 20.4668 22.8323 0.0010258 1.27862 -1.02938
24.5668 21.0878 20.1976 2.67854 -0.731432 0.0539254
24.3358 23.174 21.6799 1.43565 -0.495716 2.26218
22.036 21.6533 21.3089 0.154143 0.152629 -0.482787
21.9989 24.1864 21.2275 0.520725 0.355013 0.377554
ITEM: TIMESTEP
9000
ITEM: NUMBER OF ATOMS
35
ITEM: BOX BOUNDS ss ss ss
1.6620984610715890e+01 2.4657984795385001e+01
1.6391728178235997e+01 2.4315554349316610e+01
1.5914768888406737e+01 2.3914232546208265e+01
ITEM: ATOMS x y z vx vy vz
18.4467 19.1094 16.0284 0.784526 0.745843 -0.703493
19.7521 17.2755 17.0015 0.548958 -0.924112 2.08608
17.3737 18.0887 18.3832 -0.243519 -0.158432 -0.156313
19.4351 19.7706 18.5558 -0.677793 0.481027 0.363189
19.7037 16.7981 19.7335 -0.109207 -0.571804 0.377697
22.4351 20.2573 19.0293 1.13044 -0.476394 -1.83914
21.1932 19.5343 16.6342 0.0439668 -0.73763 -1.27453
21.9742 17.7473 18.7198 1.14593 1.46462 -0.113735
20.6303 22.527 19.0871 -3.08292 0.0733825 0.130805
16.8956 20.5366 17.2988 1.75469 0.0072284 0.818108
19.4732 21.6372 16.7316 -0.141693 -0.329591 0.340055
17.7611 22.252 18.9945 0.70258 -0.698052 0.867242
22.0642 21.9583 17.0808 -0.167933 1.27598 -0.260086
23.2752 23.084 19.1882 -0.250314 -1.59346 -1.14109
16.7468 19.9753 22.5737 -0.583668 0.333422 0.988141
16.5154 20.2421 20.0053 0.155043 -0.441054 -0.858865
17.758 18.1647 21.0094 -1.08556 -0.67009 -0.66418
19.6792 16.6882 22.4413 -0.470341 1.23207 1.17661
19.537 19.0543 23.3841 -0.00608034 -1.89706 -1.81806
22.1442 18.3686 23.1983 1.60113 -0.669365 2.09845
21.9737 16.5765 21.1649 0.142799 1.49356 -2.14
23.5621 18.7638 20.9243 0.141186 -0.464686 1.38023
20.7706 18.9252 21.0395 -1.30274 -0.386817 0.456664
19.1042 23.8091 20.7431 0.192003 -1.02782 -0.252601
19.031 20.8459 21.1802 -0.102361 0.362841 0.659996
20.1377 23.2015 22.9682 -1.25562 1.00107 -1.24524
18.4557 21.4392 23.9374 -0.580216 -0.0704313 -0.0539204
17.1173 22.513 21.7785 0.48366 1.80459 1.15464
22.6813 23.0222 23.6192 -0.72645 0.251828 -0.526886
21.2909 20.7753 23.8239 0.23703 -0.394554 -0.498195
23.7828 20.6423 23.048 -1.84735 -1.02372 -0.414979
24.7068 21.1163 20.3762 0.57001 0.404514 -1.84994
24.3685 23.1547 21.6692 1.83157 -0.290511 0.935042
22.0164 21.6796 21.3292 -0.362333 1.24597 0.133861
22.032 24.2908 21.1441 1.53057 0.647641 1.84443
ITEM: TIMESTEP
10000
ITEM: NUMBER OF ATOMS
35
ITEM: BOX BOUNDS ss ss ss
1.6620984610715890e+01 2.4657984795385001e+01
1.6391728178235997e+01 2.4315554349316610e+01
1.5914768888406737e+01 2.3914232546208265e+01
ITEM: ATOMS x y z vx vy vz
18.6365 19.3467 15.9277 1.22073 1.39945 -0.131327
19.6988 17.3384 17.271 -1.05651 -1.29314 0.75129
17.3392 18.1139 18.3084 -0.442843 -0.929692 -0.714312
19.4209 19.7289 18.6301 -0.892301 0.457971 0.591101
19.4926 16.6275 19.6161 -0.451521 -0.659536 -1.77302
22.517 20.4323 18.9166 0.449212 0.442806 1.66934
21.311 19.4589 16.6997 -0.324748 0.583581 -0.0904759
21.8772 17.6859 18.8554 -0.399353 -0.13636 -1.23668
20.578 22.4849 19.0152 0.769371 -1.07384 1.27529
17.0172 20.6608 17.3476 -1.53184 -1.11189 -0.717321
19.4352 21.7567 16.7692 2.77459 -0.0247647 0.167921
17.7006 22.36 19.1043 -0.183978 0.344918 -0.567638
21.9701 21.999 16.9477 -0.175209 0.510773 0.115126
23.3292 22.9501 19.0742 -0.480688 -0.95387 -0.930091
16.828 19.8478 22.8183 0.108752 -0.745547 -0.522218
16.5375 20.1575 20.0813 -2.07173 -0.726049 -0.781231
18.0003 18.2387 21.1168 1.37471 0.782287 0.249533
20.1183 16.7073 22.2181 -0.0696724 0.542888 0.474803
19.2685 18.8964 23.4989 0.902682 0.944913 -0.70031
22.0239 18.3663 23.2133 0.386586 1.10232 1.55341
22.0143 16.2642 21.0884 -0.315698 1.02897 -0.901283
23.3796 18.8247 21.2748 0.899436 -0.586353 0.627787
20.8272 18.8341 20.8316 -0.0604659 -0.740894 1.37963
19.0122 23.9382 20.8194 -0.00170934 0.270949 -0.0954929
19.2327 21.0479 21.2209 0.133012 -1.35637 0.345708
20.2195 23.159 22.8872 0.694992 1.14676 1.94933
18.443 21.446 23.8594 -1.04975 0.209718 -0.238768
17.0266 22.4878 21.7745 0.0616526 0.672311 0.898215
22.5963 23.2408 23.5612 0.0429367 -0.0390724 0.479458
21.0927 20.9053 23.6739 0.745322 -1.1478 -0.664463
23.8609 20.693 22.9818 -1.7477 1.37404 0.898673
24.7813 20.9834 20.4437 -0.682741 0.383364 -2.89024
24.353 23.0221 21.6556 1.34644 0.643349 -0.285016
22.015 21.551 21.2581 -0.729832 -0.24027 0.194269
21.8708 24.2693 21.0648 0.757869 -1.07594 -0.380993
ITEM: TIMESTEP
11000
ITEM: NUMBER OF ATOMS
35
ITEM: BOX BOUNDS ss ss ss
1.6620984610715890e+01 2.4657984795385001e+01
1.6391728178235997e+01 2.4315554349316610e+01
1.5914768888406737e+01 2.3914232546208265e+01
ITEM: ATOMS x y z vx vy vz
18.6454 19.1281 16.0385 -1.52472 1.17547 -1.17989
19.8473 17.1625 17.3762 0.978471 1.41064 -0.866176
17.6456 18.1275 18.4108 -2.7088 -1.4225 0.217361
19.4884 20.0022 18.6938 -0.109063 -0.194003 -0.273356
19.6758 16.3701 19.8059 1.37336 -0.722387 -0.618566
22.404 20.3948 18.8087 -1.49643 0.425725 -2.15468
21.1967 19.5767 16.5801 -0.232774 0.608337 1.02719
21.8151 17.782 18.7232 -0.535498 0.942456 1.29518
20.6331 22.5279 19.0627 0.867115 0.91298 -1.81494
16.8877 20.3694 17.3916 1.43862 -1.39028 -0.352073
19.1428 21.7672 16.7214 1.96856 1.45376 -0.632204
17.9462 22.3237 18.9985 -1.60947 0.236884 0.931487
21.8145 22.2371 16.9483 2.34816 -0.57706 1.49752
23.5154 22.9745 19.1848 0.0367631 0.678903 0.900502
16.8304 20.2032 22.6832 -1.19969 0.59554 0.608753
16.6865 20.3706 20.0266 0.274244 -0.605404 0.589909
18.0393 18.1763 21.0629 0.977538 -0.211401 -0.399055
19.9862 16.5782 22.292 -0.170004 -2.88495 0.487125
19.2284 18.9817 23.3443 -1.42629 0.474593 0.0930335
21.9002 18.2328 23.2736 -0.441657 -0.76825 0.380767
22.1828 16.539 21.0982 -0.0295256 0.104122 1.72427
23.3403 18.809 20.9571 0.558723 0.730268 1.84153
20.7011 18.8662 20.8935 1.09314 0.211364 1.00118
19.1879 24.1216 20.7163 -1.57775 2.39665 0.379318
19.2235 20.983 21.2007 -1.65816 -2.41066 -0.517091
19.8644 23.3054 22.8994 -0.776705 0.787975 0.595011
18.5602 21.4066 24.1197 0.138972 -0.475613 1.27808
17.1476 22.5742 21.7494 0.602696 0.276915 -0.156772
22.5644 23.0826 23.4562 0.699846 0.479624 -0.0677206
21.1044 20.7443 23.7357 0.190439 0.0163227 -0.21397
23.8044 20.5624 23.0584 1.03138 0.60184 -2.65301
24.6903 20.9191 20.37 -0.868167 -1.26927 0.456951
24.311 22.9757 21.7428 -0.468981 -0.580328 -2.20019
21.9911 21.5317 21.2823 1.14649 -0.391572 -0.189214
21.8226 24.1176 21.1183 1.10918 -0.616687 -1.01627
ITEM: TIMESTEP
12000
ITEM: NUMBER OF ATOMS
35
ITEM: BOX BOUNDS ss ss ss
1.6620984610715890e+01 2.4657984795385001e+01
1.6391728178235997e+01 2.4315554349316610e+01
1.5914768888406737e+01 2.3914232546208265e+01
ITEM: ATOMS x y z vx vy vz
18.4818 19.0808 15.8035 -2.28018 0.498809 0.153702
19.6268 17.3684 17.279 -0.311633 1.54955 0.983202
17.5003 17.8087 18.5461 -0.922034 -0.0522969 -1.53877
19.326 19.8766 18.8152 -1.5324 -1.71372 1.60008
19.7678 16.3785 19.7217 1.10904 -0.0688046 0.142051
22.6903 20.2764 18.7689 -1.77046 -0.356299 -0.67463
21.0674 19.4638 16.7971 0.27159 -0.0527499 -1.77817
21.9382 17.7133 18.6566 0.332108 0.451022 -0.216456
20.6444 22.5283 19.1594 1.83112 -0.885035 1.24378
16.8223 20.2319 17.5149 -0.441711 0.520361 -1.3564
19.1757 21.5161 16.6672 -1.40554 0.10552 0.985767
17.8841 22.5218 18.7617 0.835737 -0.479546 0.649782
21.9432 21.8985 16.9511 3.13338 0.527593 1.91542
23.3048 23.0476 19.3296 -0.596072 -0.324159 -1.55582
16.8017 19.9396 22.4956 0.121687 -0.161763 -0.557359
16.6001 20.5361 19.9929 -0.562158 -0.278788 0.801257
18.236 18.3896 20.9393 -1.11915 -0.688697 -0.485604
19.913 16.8025 22.2195 1.92359 1.0224 0.158765
19.2876 19.158 23.3346 0.200519 0.600335 -0.026934
21.9817 18.3602 23.0263 0.257052 0.370073 -0.5808
22.244 16.5444 20.94 -0.803638 -0.594961 1.76011
23.5899 18.7892 20.9899 0.275353 1.70636 0.206192
20.7707 19.0324 20.7233 -0.459098 -0.0241549 -0.252102
19.0665 23.8625 20.7824 -0.0857726 -0.897627 -0.704776
19.2152 21.2606 21.3546 1.65518 0.494271 -0.321067
20.0528 23.2883 23.1172 -0.210054 0.451091 1.01294
18.3683 21.6583 23.9534 -0.730095 -0.147472 -1.46941
16.9404 22.6234 21.816 1.22567 -1.92598 -0.559307
22.679 22.8922 23.7259 -0.708775 1.56429 0.774706
21.2691 20.832 23.6785 -0.802832 0.95053 -1.04669
23.8492 20.5363 23.1198 0.104291 -0.143909 0.176228
24.7308 20.984 20.4429 -0.750528 0.592603 -1.14097
24.166 23.0987 21.8319 0.717037 -1.57157 1.49923
22.1927 21.4281 21.2426 0.754542 -0.179075 0.758613
21.6973 24.098 21.3264 0.744233 -0.85821 -0.556566
ITEM: TIMESTEP
13000
ITEM: NUMBER OF ATOMS
35
ITEM: BOX BOUNDS ss ss ss
1.6620984610715890e+01 2.4657984795385001e+01
1.6391728178235997e+01 2.4315554349316610e+01
1.5914768888406737e+01 2.3914232546208265e+01
ITEM: ATOMS x y z vx vy vz
19.1918 19.4592 15.9354 -0.606603 -0.55174 0.431194
19.8871 17.291 17.1336 1.0475 -0.21033 -0.349022
17.5686 18.0274 18.4859 0.185089 1.64822 0.475804
19.7649 19.6119 18.5152 0.335302 -0.0279983 -0.717832
19.6562 16.6808 19.7954 2.80177 0.26082 0.480652
22.5603 20.1189 18.7688 -0.941868 2.01675 0.357767
21.6282 19.2243 16.3836 1.10947 -0.329105 1.22622
22.0491 17.5028 18.7101 -1.64253 0.147994 0.669161
20.3462 22.9276 19.1754 0.233049 0.0903165 0.815266
17.1486 20.4404 17.6346 -1.45343 0.565887 -1.39183
19.0973 21.8098 16.7546 -0.508046 0.33732 0.428018
17.5926 22.5093 19.109 -0.188766 0.992269 1.99793
21.6421 21.7618 17.0076 1.6556 -3.16036 -1.44526
23.0941 23.075 19.2292 0.663209 0.488773 0.346466
16.9628 20.1581 22.8162 1.15077 0.0538951 1.24932
16.8427 20.2682 20.2493 -0.364495 -1.74314 0.647261
17.9738 18.2279 21.1303 -0.292676 0.378392 -1.08118
19.7893 16.6181 22.3352 0.615113 0.358655 -0.95622
19.1753 18.7998 23.4809 0.285248 -0.730662 0.269934
22.1791 18.0036 23.2326 0.684817 0.0617806 1.43297
22.0738 16.4087 21.0813 -0.144748 -1.03107 -0.117424
23.4212 18.6226 20.9459 -0.904349 -1.10503 -0.943793
20.6461 18.8469 21.0411 -0.657601 0.693791 0.0797282
18.9613 24.2468 20.7162 -0.872517 -0.66093 -1.81071
19.1676 21.2415 21.2466 -2.01493 1.13315 -0.0961176
19.9762 23.3935 22.8448 -0.428655 -0.77039 0.560057
18.6615 21.559 24.0073 -0.131931 1.18297 -1.41978
17.0399 22.7509 21.8131 0.147156 0.369293 -0.391749
22.5714 22.8616 23.4169 0.695235 -0.0811785 1.2085
21.0999 20.6078 23.539 -0.877015 -0.625101 -0.466073
23.6906 20.4784 22.8319 -0.666912 0.520992 -0.696356
24.5199 21.0216 20.4632 0.548886 0.219691 -1.79934
24.2121 23.2854 21.6622 -0.365744 0.193488 0.497998
21.9153 21.5838 21.1244 -0.335464 -0.676698 -1.04212
21.7181 24.4004 21.208 1.24007 -0.0107004 1.55056
ITEM: TIMESTEP
14000
ITEM: NUMBER OF ATOMS
35
ITEM: BOX BOUNDS ss ss ss
1.6671417107659508e+01 2.4694384802785638e+01
1.6412979344679709e+01 2.4075547745414358e+01
1.6013978528971656e+01 2.4132514318419478e+01
ITEM: ATOMS x y z vx vy vz
19.4895 19.8064 16.2186 1.40782 -0.134316 0.953617
19.8689 17.6269 17.645 0.651043 -1.68088 0.987539
17.4401 18.2003 18.2816 -1.31084 0.220684 -1.25952
19.2568 20.2931 18.8689 -1.91031 0.614563 1.32279
19.8063 16.1596 19.7969 -0.355431 0.341196 -0.927491
22.445 20.109 18.8949 1.2474 -0.352582 1.38216
21.9084 18.8037 16.4828 0.720467 -0.266004 -0.770083
22.2728 17.273 18.7197 0.224684 -0.752555 0.200478
20.3768 22.6354 19.0809 -0.0318915 2.24476 -0.110495
17.1138 20.6388 17.2392 0.172304 -0.995434 -0.475692
19.0014 22.3918 16.8929 -0.0790542 1.4686 -0.189409
17.4131 22.5879 19.12 0.356182 -0.912614 1.01446
16.7357 20.3522 20.0744 0.97485 -0.436083 0.355662
21.447 21.3037 16.8954 0.27555 1.52161 0.870247
22.997 22.8236 19.0911 -2.09569 1.18455 -1.30091
16.9101 19.8599 22.5731 -0.0297029 0.98244 0.502094
18.0766 18.0662 20.9514 -0.536883 0.987044 0.270797
19.7503 16.5056 22.2806 -1.47667 0.286408 0.758954
19.4149 18.9543 23.2625 0.222275 -0.248425 -1.08167
22.1563 18.572 23.0726 0.408732 -0.394048 -0.354405
22.0865 16.5729 21.1368 0.96584 1.68883 0.542794
23.561 18.6166 20.9261 0.731863 -1.74224 -1.07545
20.7396 18.8117 20.749 -0.620994 -0.64279 0.721343
18.8269 24.0565 20.7888 -1.48178 -0.538529 -1.02546
19.2343 21.2089 21.4389 -0.160654 0.131816 1.62389
20.1336 23.4692 23.0629 -0.7269 -0.655094 0.22469