ITEM: TIMESTEP
0
ITEM: NUMBER OF ATOMS
36
ITEM: BOX BOUNDS ss ss ss
1.6192941265941226e+01 2.4617574893944308e+01
1.6352939211995430e+01 2.4411349177614653e+01
1.6501091592256813e+01 2.4810347152726166e+01
ITEM: ATOMS x y z vx vy vz
17.9275 20.2636 17.2468 0.0926056 1.91297 -1.99968
19.5875 19.0833 19.1491 1.62977 0.483748 0.393618
18.9062 16.357 19.8691 -1.8411 -0.769703 -2.68156
16.3548 20.2294 19.5299 0.152049 0.493106 0.94259
20.3871 19.4527 16.5052 -2.14117 -0.510304 -0.47593
20.0168 16.9845 17.513 -1.91285 -1.38992 1.15214
17.3258 17.8715 18.3239 1.2962 -0.354674 -0.0255424
24.161 17.6782 20.0129 0.718288 -0.443177 0.854447
22.1858 19.5883 19.9655 0.108052 -0.504666 1.37487
24.6135 19.8928 18.6706 1.14734 -1.25382 1.53633
22.5659 18.1829 17.6576 1.08554 0.281917 -0.955096
21.5756 16.8485 19.8144 0.730081 1.9818 -0.376643
17.8752 22.4564 18.8158 2.63938 -0.304186 0.34511
19.7548 24.4073 18.6467 -0.208791 -0.0760266 -0.241091
19.937 22.1735 16.9328 -1.59785 0.367505 -0.335066
22.415 20.9603 17.4472 -1.15369 1.08372 1.14489
23.4991 22.1396 19.7565 0.687932 -0.374563 -0.160936
22.1468 23.6189 17.9256 -2.63325 -2.25518 -0.185918
20.6213 21.8698 19.5348 1.46642 -0.773236 -1.26929
18.5321 19.5016 23.563 0.70135 0.135411 -0.297788
16.197 20.3019 22.4143 -0.187314 0.757438 -0.227427
17.3671 18.2353 21.0827 0.975803 -0.147032 0.519423
20.0367 18.0628 21.7543 -0.772417 -1.53926 -0.195366
23.0605 20.2952 23.9958 -2.15797 1.04608 0.629477
20.9907 18.6229 24.3068 -1.59703 0.817681 -1.1152
24.3709 20.1464 21.5019 -0.960911 1.8411 -2.4062
22.7407 18.1156 22.2944 0.818518 0.202025 1.34795
20.3702 21.1809 24.8063 0.925852 0.243497 1.04766
18.5408 20.7891 21.0645 2.05949 -0.875406 -0.583403
18.1607 22.1922 23.374 0.826681 -0.324943 -0.358468
16.4361 22.5864 21.1354 0.106975 -0.442726 0.180792
18.9602 23.6349 21.1249 0.0175371 0.170071 1.70586
21.0431 20.6663 22.2471 0.395403 0.297861 -1.16374
20.7018 23.2792 23.1535 1.20095 0.907879 0.414108
23.1619 22.4692 22.4122 -1.56877 -0.810404 0.7787
21.6927 24.0816 20.6717 -1.04909 0.12542 0.686391
ITEM: TIMESTEP
1000
ITEM: NUMBER OF ATOMS
36
ITEM: BOX BOUNDS ss ss ss
1.6192941265941226e+01 2.4617574893944308e+01
1.6352939211995430e+01 2.4411349177614653e+01
1.6501091592256813e+01 2.4810347152726166e+01
ITEM: ATOMS x y z vx vy vz
17.9933 20.436 17.5276 1.2516 0.475975 0.85748
19.8055 19.0761 19.2535 -1.40786 0.178367 -0.940394
18.8695 16.3414 19.8024 -0.881758 -0.421625 0.129139
16.284 20.1564 19.5639 0.129749 -0.750517 0.569438
20.338 19.3557 16.6266 0.420303 0.722062 0.294582
19.9248 16.9604 17.4272 0.492135 -1.19268 0.649711
17.5637 17.96 18.3675 0.771891 -0.0911844 1.36558
24.0729 17.8599 20.1057 0.00843007 -0.409852 -0.909747
22.4532 19.7579 20.0218 -0.098962 0.450436 -0.873683
24.7535 19.8771 18.545 0.166551 1.16168 1.13341
22.5793 18.2252 17.7138 1.01797 0.338593 0.912918
21.6541 16.8448 19.7593 0.851288 -0.35221 -0.160713
17.856 22.6487 18.7955 -0.272047 0.451846 -0.22678
19.6746 24.4528 18.8748 0.592216 0.108852 -0.907415
19.9627 22.2604 17.0262 -0.270849 0.299278 0.371131
22.439 20.844 17.4256 0.395466 1.98731 0.14201
23.7484 22.1487 19.4899 1.73872 -0.337841 0.115303
22.2193 23.5692 17.9879 -0.82416 0.226602 -0.33537
20.5417 22.0359 19.5738 0.614217 1.0148 0.628081
18.4491 19.4866 23.5504 0.375126 -2.2185 -1.1603
16.076 20.3073 22.3991 -0.354342 1.22329 -0.457371
17.3704 18.1775 21.2596 -0.575446 1.55586 0.765788
19.9957 17.9361 21.8445 -0.112126 1.38976 1.35474
22.973 20.2545 23.9927 -0.218354 -0.697064 -0.339844
20.8804 18.5703 24.2697 -0.54461 -0.755456 1.1542
24.5709 20.1079 21.4623 0.161085 -0.791225 -1.25983
22.6215 18.1483 22.3926 0.342234 -1.23696 0.140808
20.4616 21.2172 24.7667 0.11069 0.14994 -0.345852
18.3151 20.6401 20.9866 -0.872878 0.334956 -0.569039
18.1762 22.1871 23.3213 -0.122057 0.223507 0.561017
16.4259 22.5266 21.0925 -1.64066 -0.00886433 0.513503
18.9643 23.6466 21.1697 0.395498 -0.284629 0.286004
20.6998 20.5699 22.2817 0.674623 -0.219497 0.368298
20.7334 23.2236 22.9136 0.093289 -0.94101 -1.98449
22.9453 22.2039 22.028 -1.46454 -0.194209 -0.0349521
21.8278 24.2057 20.6013 -0.942419 -1.38979 -1.80736
ITEM: TIMESTEP
2000
ITEM: NUMBER OF ATOMS
36
ITEM: BOX BOUNDS ss ss ss
1.6192941265941226e+01 2.4617574893944308e+01
1.6352939211995430e+01 2.4411349177614653e+01
1.6501091592256813e+01 2.4810347152726166e+01
ITEM: ATOMS x y z vx vy vz
18.1819 20.5925 17.8645 -1.18368 0.432161 -2.10845
19.7914 18.9406 19.7999 -0.234315 0.253 1.20936
18.8044 16.3045 19.9035 0.15072 1.12392 -1.17371
16.0938 20.192 19.7271 1.30957 0.675109 1.0633
20.5337 19.645 17.0292 -0.762205 0.248002 -0.801111
20.3046 17.1864 17.7732 -0.385179 0.335844 -0.225183
17.669 18.0368 18.3587 -0.522401 -0.0157905 0.0506472
24.236 17.6587 19.954 1.05947 -1.02612 -0.800295
22.4433 19.6705 19.8904 -1.32976 -0.832859 0.107208
24.7557 19.9394 18.5908 0.576651 0.314226 -0.853633
22.7631 18.1977 17.6889 0.934618 0.20286 0.461167
21.6105 16.9189 20.07 -2.05017 0.444098 -1.19678
17.8156 22.7466 18.828 0.21058 -0.363982 0.0232814
19.7605 24.5099 18.6783 -0.549706 0.0458366 -0.955034
19.9142 22.3757 16.8403 1.55818 -0.989533 0.812612
22.6426 21.1067 17.2381 -0.166648 0.529356 -1.94264
23.7183 22.2026 19.435 -0.375324 -0.748718 0.169361
22.1294 23.5168 17.6927 0.0443618 -1.07312 1.1894
20.6462 21.9947 19.3902 2.23198 1.11818 -0.395617
18.4769 19.4222 23.4534 1.76347 -1.36164 1.10675
16.1293 20.222 22.5005 -1.16192 -1.23633 -2.0682
17.4048 18.3034 21.1389 0.204509 0.395447 -0.169109
19.8919 17.4592 22.1001 -1.185 -0.629565 2.28061
22.8571 20.3722 23.7502 0.230222 0.440833 1.59525
20.9028 18.4257 24.2812 0.528328 0.54914 0.187193
24.4969 19.9387 21.363 1.30689 0.257029 -0.476339
22.6594 18.1016 22.2044 1.49731 -0.735562 0.963161
20.1796 21.0882 24.5322 0.407379 0.880173 -0.356074
18.4008 21.1205 21.0666 -0.671035 -1.27413 0.486337
17.9746 22.2741 23.3897 -0.89488 0.869019 -0.119181
16.3616 22.654 21.3726 -1.43876 -0.346295 0.705899
18.8135 23.8727 21.0132 -0.919512 0.213303 -1.0032
20.7423 20.1356 22.1246 -1.02878 0.433917 -0.240547
20.4692 22.9372 22.6876 0.181712 1.01239 1.76
22.8099 22.0439 21.9624 1.11912 -0.229535 0.636155
21.835 24.1129 20.5268 -0.455786 0.0893484 0.0774164
ITEM: TIMESTEP
3000
ITEM: NUMBER OF ATOMS
36
ITEM: BOX BOUNDS ss ss ss
1.6192941265941226e+01 2.4617574893944308e+01
1.6352939211995430e+01 2.4411349177614653e+01
1.6501091592256813e+01 2.4810347152726166e+01
ITEM: ATOMS x y z vx vy vz
18.2664 20.2158 17.5579 0.702141 0.411872 -0.967743
19.4058 19.0181 19.5969 -1.0327 -0.519707 -0.993409
19.0585 16.3022 19.9396 -0.281597 -0.368582 1.01837
16.4659 20.2503 19.744 -0.579647 -1.28577 2.73276
20.754 19.566 16.9927 -0.199333 0.13757 -1.00727
19.801 17.3176 17.6118 -0.687423 -0.290617 -0.727879
17.3262 17.8179 18.4637 1.03223 -0.722025 -0.230959
24.0828 17.7077 19.9011 -1.63953 0.658217 0.621552
22.0848 19.7009 19.4169 1.86476 0.621066 1.09518
24.7188 20.0635 18.6751 1.89093 -0.320267 -1.05906
22.7133 18.0001 17.3539 0.513011 -0.539362 0.773461
21.6812 17.0639 19.7799 -0.15607 0.221556 -0.623891
17.9081 22.3704 18.8257 0.510963 0.846576 -0.475202
19.6845 24.3538 18.6218 -0.152098 1.06466 0.841372
20.1854 22.1525 17.0435 0.332606 -0.0245201 -1.2343
22.8898 21.2475 17.3463 0.618762 -0.39997 -1.5131
23.533 22.2389 19.8867 -0.296187 -0.32836 1.65714
22.1396 23.5952 18.0335 -0.803065 -1.09236 0.610214
20.648 22.0171 19.7517 0.660668 0.85282 -1.18414
18.5011 19.3804 23.4948 0.21398 0.683998 0.0666069
16.2785 20.4156 22.4869 -0.786156 -0.50699 1.71612
17.3625 18.0712 21.384 -0.052662 -0.473521 -0.335971
20.0121 17.6592 22.0029 1.9661 1.57444 -0.321559
23.0245 20.207 23.8046 -0.566498 -0.360469 -0.371303
20.8346 18.6321 24.351 -1.16059 -1.5444 -0.188898
24.0449 20.0008 21.403 -1.07884 1.44257 -0.746247
22.6094 17.855 22.1458 0.358346 -1.01421 1.24786
20.332 21.2364 24.4424 0.299848 0.36007 -0.611613
18.5227 21.1051 21.2832 -0.982102 1.56825 0.60685
18.0811 22.36 23.4711 0.683714 -1.36417 -0.105647
16.4002 22.6908 21.1777 -0.734136 1.09939 0.391603
18.7142 23.9044 20.9108 -0.22696 0.219515 0.393917
21.0569 20.2371 21.9813 0.185204 0.352459 0.255003
20.4653 22.9544 22.5464 -2.43001 0.492912 -1.60241
22.8745 22.2929 22.2952 0.947536 -1.15926 0.5155
21.7582 24.2183 20.4964 1.06481 -0.29337 -0.242899
ITEM: TIMESTEP
4000
ITEM: NUMBER OF ATOMS
36
ITEM: BOX BOUNDS ss ss ss
1.6192941265941226e+01 2.4617574893944308e+01
1.6352939211995430e+01 2.4411349177614653e+01
1.6501091592256813e+01 2.4810347152726166e+01
ITEM: ATOMS x y z vx vy vz
18.2108 20.1876 17.6481 1.8032 0.445021 -2.3571
19.6648 19.0068 19.6989 0.0859457 -0.496164 -0.828845
18.8691 16.2254 20.0127 1.46424 -0.268226 -1.34814
16.5048 20.1955 19.6554 -1.34279 2.45808 1.1886
20.7533 19.7476 17.0344 -0.177893 -0.755133 -0.237808
20.0539 17.1912 17.7786 -0.725815 0.340254 0.821575
17.4077 17.8289 18.604 -0.223832 0.908549 -0.692966
24.1686 17.7042 19.9733 0.660355 1.98875 -0.518662
22.3029 19.697 19.532 0.66775 -0.508073 -0.997923
24.6674 19.7303 18.402 -1.86149 0.811477 -1.3072
22.7397 18.1755 17.5369 0.116156 -0.599194 0.471123
21.556 16.9695 19.7978 1.82328 -0.385535 0.728152
17.8925 22.505 18.8161 1.22729 0.620512 -0.108625
19.7144 24.459 18.5835 -0.147123 -0.0398231 1.74295
20.0107 22.2361 17.0807 -0.975904 -0.147276 0.304739
22.6809 21.3638 17.2634 0.34224 0.294614 1.12751
23.5959 22.2162 19.592 -0.974719 -1.06269 0.374486
22.1615 23.7992 18.0475 0.971215 -0.200562 -1.84494
20.6693 21.9408 19.5083 -0.301335 0.0942891 -0.973674
18.4855 19.6406 23.5265 -1.4271 -1.16651 -0.478576
16.1129 20.4841 22.3689 0.381453 -0.968399 0.718812
17.4157 18.2951 21.296 -0.518859 -0.806609 1.01186
19.87 17.5472 22.0016 0.400539 -0.763915 1.68606
23.0594 20.1185 23.9399 -1.62653 2.23119 1.16453
20.8422 18.4098 24.2068 0.619838 -0.676086 1.12758
24.2469 20.2109 21.4704 -2.84701 0.989354 0.0304299
22.642 18.0565 22.0423 0.44316 -1.42201 0.271114
20.4966 21.1292 24.4911 0.949509 0.951359 -1.26166
18.4673 21.0311 21.1383 0.183927 -0.207227 -0.901029
17.929 22.373 23.3236 0.320484 1.69134 1.46564
16.2657 22.6501 21.0775 -0.683449 0.602027 -0.433037
18.7674 23.7752 20.9848 1.2577 -1.27666 0.702795
20.9421 20.1959 22.0704 -0.449609 -0.367031 0.958446
20.482 22.9126 22.7774 -0.747077 -1.33888 -0.435266
22.9279 22.1794 22.2899 -1.19908 -0.539795 -1.35109
21.643 24.0309 20.6488 2.51133 -0.431017 0.18013
ITEM: TIMESTEP
5000
ITEM: NUMBER OF ATOMS
36
ITEM: BOX BOUNDS ss ss ss
1.6192941265941226e+01 2.4617574893944308e+01
1.6352939211995430e+01 2.4411349177614653e+01
1.6501091592256813e+01 2.4810347152726166e+01
ITEM: ATOMS x y z vx vy vz
18.1225 20.246 17.6138 -0.220461 0.630686 0.389824
19.6062 18.9924 19.6832 -0.296098 -0.784515 -0.366008
18.851 16.386 19.7949 -0.0998452 -0.101005 1.61769
16.2483 20.2747 19.5758 -0.861956 0.438367 1.63034
20.6082 19.6761 17.1586 0.68565 -0.443942 -1.24989
20.1302 17.2482 17.5785 -0.958574 0.404494 -0.51623
17.2378 18.0107 18.4462 -0.677345 -0.942728 0.51077
24.4755 17.7498 19.8151 -0.377791 1.49712 0.40383
22.3952 19.6543 19.8813 -0.242887 -1.11609 -1.09621
24.7956 19.8833 18.5704 0.928485 -1.61766 -1.08093
22.8215 18.1502 17.8423 0.59021 1.52557 0.75405
21.5496 16.9582 19.7392 -0.451663 0.0477611 -0.49759
17.7543 22.6135 18.7622 0.272026 0.588186 -0.46244
19.8437 24.3504 18.7226 -0.699288 1.01626 -0.417602
19.9181 22.1301 17.1178 -1.55892 -0.74408 -0.917233
22.7622 21.1312 17.2983 0.207753 1.77521 -0.103018
23.7561 22.188 19.5609 -0.879248 1.89592 -0.378482
22.2683 23.6894 18.0458 0.819398 -1.14802 -0.75509
20.6973 21.9198 19.6037 0.0982435 -0.139059 0.573689
18.5673 19.5239 23.5862 0.721725 -0.957919 0.0163827
16.2385 20.3919 22.5519 -1.05208 -1.13391 -1.02762
17.5172 18.4476 21.2434 1.2048 2.8194 0.510412
19.9549 17.5788 22.1051 1.17609 0.255171 -0.771608
22.9348 20.1909 23.6399 0.00128336 0.16999 1.13867
21.0628 18.6965 24.3429 -1.29777 0.030803 0.495202
24.4738 19.835 21.4001 1.42255 0.326469 1.56707
22.498 17.9025 22.029 0.75934 -0.0680839 0.269111
20.4862 21.1979 24.6437 -1.13109 1.06571 -0.676431
18.3822 21.0898 20.9952 -0.394662 -0.331021 -0.086331
18.0565 22.1649 23.3762 0.70572 -0.174217 -0.247778
16.1541 22.6002 21.0001 -0.438596 0.224264 -1.03593
18.7156 23.782 21.0494 0.568622 -0.746962 -0.0295604
20.5761 20.2312 22.1371 -0.9069 -0.33406 0.207478
20.528 23.0739 22.8537 0.599107 -0.778448 -0.765532
22.7677 22.0737 21.8543 1.32629 -2.07443 0.0356229
21.4648 24.187 20.6011 0.457879 -1.07522 2.36137
ITEM: TIMESTEP
6000
ITEM: NUMBER OF ATOMS
36
ITEM: BOX BOUNDS ss ss ss
1.6071850635475336e+01 2.4782295138573424e+01
1.6394185455719906e+01 2.4459906728812022e+01
1.6933353722224751e+01 2.4781461089170364e+01
ITEM: ATOMS x y z vx vy vz
19.8542 18.9309 19.5459 -0.0018264 -0.191687 1.74511
19.0055 16.3963 20.0027 -0.515485 0.0246713 0.143075
16.1008 20.3882 19.713 0.991138 0.783556 -2.25164
20.2966 19.3475 16.9358 -0.983227 0.610454 -0.0339881
20.2741 16.6827 17.7517 1.51032 0.640283 0.397421
17.8467 18.2012 18.033 0.123135 -0.4933 -0.313926
24.0931 17.673 20.0673 0.677329 0.878758 0.229121
22.3843 19.7963 19.8043 -1.6959 -0.928964 0.506482
24.8306 19.6872 18.5359 1.67699 -0.301548 1.16791
22.6041 18.2566 17.6547 -1.59041 -1.37831 -0.79035
21.6263 16.9736 20.0305 -0.144261 -0.781789 -2.01901
18.2967 20.7183 17.9037 1.36162 -0.866359 -0.421832
17.546 22.9119 18.8679 -1.61549 0.470455 0.677214
19.6952 24.4912 18.8312 -1.21679 1.34781 -0.53571
20.0103 22.4189 17.0297 -0.684859 -1.6852 -0.288344
18.4043 20.9801 20.7908 -1.16827 -0.682293 1.15808
22.512 21.0074 17.3807 -1.21028 -0.278575 0.209315
23.7093 22.0071 19.251 -0.100824 0.331905 -0.306624
22.0161 23.6719 17.8637 1.10837 -0.408651 -0.24371
20.5898 21.9328 19.491 -0.474917 1.55774 1.77854
21.7133 24.213 20.4363 0.5058 1.0031 -0.0115247
18.4161 19.4951 23.4225 0.804433 -0.0962025 -1.44091
16.1165 20.371 22.2703 -0.600688 0.258107 -1.13542
17.4108 18.3643 21.036 -0.203594 -1.33096 -0.158988
20.0074 17.7371 22.1264 0.653329 0.947208 0.812643
22.7354 20.3506 23.8845 -0.38481 -0.487751 0.0785131
20.9773 18.3839 24.429 0.737064 0.0106175 -1.45819
24.5004 20.1212 21.4007 1.13611 0.666307 0.793657
22.6865 18.2872 22.1933 -0.348454 -1.12949 -0.277703
20.6683 20.3359 22.1813 -1.89492 0.142129 -0.0310728
20.3736 20.8927 24.8196 0.793374 0.271044 1.61012
18.1942 22.0379 23.3861 1.46378 0.361051 -1.0083
16.3265 22.6257 21.1657 -0.132447 0.73708 0.551549
18.975 23.637 21.219 -0.821623 -0.363179 0.376
20.7365 22.8579 23.1247 1.21651 1.16928 0.618494
22.6862 22.0365 21.64 1.02976 -0.807286 -0.125996
ITEM: TIMESTEP
7000
ITEM: NUMBER OF ATOMS
36
ITEM: BOX BOUNDS ss ss ss
1.6071850635475336e+01 2.4782295138573424e+01
1.6394185455719906e+01 2.4459906728812022e+01
1.6933353722224751e+01 2.4781461089170364e+01
ITEM: ATOMS x y z vx vy vz
19.7545 19.0302 19.6421 0.0343948 -0.552651 -0.841573
19.0091 16.3548 19.7781 0.20376 -0.326987 -0.684836
16.2583 20.1583 19.7862 -0.258847 1.23893 1.16548
20.3425 19.6157 16.97 1.18684 -0.721197 0.855591
20.116 17.1276 17.6773 -0.299223 -1.42318 0.573613
17.4259 17.9366 18.4458 -0.901285 0.55383 -1.09722
24.2194 17.7234 19.803 0.482248 -1.42809 -0.559707
22.355 19.7125 19.9115 0.23048 -0.538568 -2.50358
24.6442 19.9884 18.6535 -0.232642 0.217477 -1.24693
22.7012 18.1812 17.6091 -1.50941 0.383493 0.25986
21.6565 17.0318 20.0032 -0.694124 -0.689702 1.071
18.2014 20.5016 17.8746 0.501758 0.0746688 0.278901
17.7855 23.0325 18.7667 0.250742 -0.383159 -0.0809583
19.8907 24.4735 18.5952 0.0816929 1.45758 -0.715024
19.818 22.4643 16.9484 0.990048 0.0319659 -1.12475
18.4479 21.1204 20.7271 -0.637545 1.8862 -0.250706
22.5285 21.0393 17.498 2.49488 -0.362856 -0.549073
23.6602 22.2402 19.623 -0.588354 0.410857 -0.26671
22.1552 23.6929 17.8206 -0.0681639 1.28013 1.37041
20.6356 21.9538 19.4337 -0.524161 -0.374403 1.44855
21.6216 24.0464 20.6292 -0.353682 0.344263 0.986397
18.5016 19.4839 23.5578 -0.262496 0.174738 -0.984857
16.3306 20.2781 22.3147 -0.895639 -1.52866 -1.33696
17.542 18.1863 21.1897 0.998383 -1.44526 2.87383
19.9753 17.5219 22.2287 1.49544 -1.50223 -1.11215
22.7503 20.4088 23.8199 1.07802 -0.261916 -0.99896
20.9915 18.6086 24.3804 -0.687378 -0.0358837 1.23141
24.6631 19.7136 21.5085 -1.12314 0.676504 0.755772
22.623 17.9646 22.1982 0.444985 0.214808 0.857045
20.5594 20.3013 22.0258 0.0284753 0.884328 -0.695803
20.3862 21.1174 24.6516 0.139268 1.63555 -0.459424
18.1406 22.0154 23.3025 -0.861687 0.983346 0.0103683
16.3362 22.5778 21.0357 0.215304 0.930197 1.16911
18.8036 23.8696 21.1364 -0.12967 -1.42569 0.473151
20.5929 22.9948 22.7859 -0.0200174 -0.738594 0.147363
22.7966 21.7526 21.8879 -0.80926 0.360163 -0.0186419
ITEM: TIMESTEP
8000
ITEM: NUMBER OF ATOMS
36
ITEM: BOX BOUNDS ss ss ss
1.6071850635475336e+01 2.4782295138573424e+01
1.6394185455719906e+01 2.4459906728812022e+01
1.6933353722224751e+01 2.4781461089170364e+01
ITEM: ATOMS x y z vx vy vz
19.7482 18.8835 19.6581 -0.0192038 0.272375 -1.16838
18.9693 16.3876 19.9739 0.604788 -0.291856 -1.41105
16.3699 20.2761 19.6736 -0.050611 -0.546365 -0.292161
20.4947 19.7178 17.1578 -0.809329 -0.997993 -1.26039
20.0278 17.0679 17.5924 0.375774 0.709511 0.639362
17.4129 18.1101 18.5773 0.873324 -0.586931 -0.230383
24.0773 17.653 20.0526 0.27693 0.196477 -0.151932
22.3553 19.7786 19.7765 0.709033 -0.595465 1.28703
24.6397 19.7689 18.5601 -0.809418 -0.683809 -0.722354
22.7025 18.2963 17.6672 -1.94102 0.87818 0.139508
21.6195 16.7298 19.6126 -0.926519 1.59485 -1.80319
18.1973 20.4604 17.6733 -0.0977807 -0.978388 -0.931353
17.7483 22.6429 18.8431 -1.05312 0.322277 0.114472
19.7251 24.4503 18.6112 1.02951 2.37584 -0.0430182
19.8923 22.465 17.0086 0.371274 -0.117874 -1.59866
18.4211 20.9308 21.0316 0.0628617 1.1478 0.616393
22.6974 21.0483 17.356 0.10111 -0.751728 -0.585094
23.6399 22.1655 19.4923 2.1626 0.059205 1.57363
22.113 23.8691 17.9238 -1.04468 -0.228795 -1.96043
20.6754 21.9127 19.6048 -0.0725806 -1.20079 -1.00894
21.6435 24.2793 20.5119 -0.253134 1.36665 0.284279
18.5272 19.5248 23.4029 -0.534347 -0.391452 0.354626
16.1706 20.3442 22.3222 -0.0559977 1.50492 0.0762268
17.4331 18.2584 21.2547 -0.129269 -0.446402 -0.34383
20.1878 17.5519 21.9711 1.30308 -0.628311 1.91772
22.812 20.1015 24.1199 1.27689 0.0908634 0.685723
20.8596 18.5818 24.4339 0.315172 -1.04833 0.840579
24.5003 20.0439 21.3049 0.0801997 -1.15225 0.434434
22.7267 18.2068 22.3305 -1.49994 0.840206 0.268545
20.8181 20.121 22.0825 -0.749321 0.412009 1.44981
20.315 21.0109 24.5781 -0.00577612 -0.0750856 0.0623642
18.0385 22.2405 23.2465 -0.510684 1.13203 -0.562714
16.3085 22.6125 21.1162 -0.203448 -1.26757 0.947813
18.9445 23.821 21.0871 -0.0278073 -2.09434 0.870372
20.5628 23.0322 22.6847 -0.580703 0.044247 -0.103689
22.8449 21.8747 21.9263 1.83216 1.13631 1.61466
ITEM: TIMESTEP
9000
ITEM: NUMBER OF ATOMS
36
ITEM: BOX BOUNDS ss ss ss
1.6071850635475336e+01 2.4782295138573424e+01
1.6394185455719906e+01 2.4459906728812022e+01
1.6933353722224751e+01 2.4781461089170364e+01
ITEM: ATOMS x y z vx vy vz
19.7262 18.9365 19.7291 -1.27849 -1.98277 1.75875
18.9551 16.3402 19.9285 1.17903 0.877008 -0.903807
16.0897 20.3147 19.5184 0.34057 -0.718489 0.547693
20.3627 19.4114 17.1927 -1.56105 0.97839 -0.199499
20.239 17.0498 17.7654 1.68465 -0.681385 0.085647
17.5405 18.2381 18.3812 -1.39145 -1.02201 -1.74912
24.31 17.6916 19.8944 0.530498 0.35237 -1.04115
22.2885 19.7574 19.8156 -1.39632 -0.389477 -0.0362792
24.6559 19.9417 18.7037 -1.34338 0.370261 0.387964
22.7535 18.1369 17.7919 -0.156874 -0.594613 -1.31414
21.6701 16.7819 19.9993 0.472464 -0.522595 0.372685
18.3409 20.6672 18.1105 -0.628412 0.171197 -1.14982
17.5129 22.9656 18.893 -0.126253 0.294995 -0.244693
19.7808 24.3135 18.6154 -0.250356 2.02979 -0.260618
20.1065 22.268 16.8342 0.785164 0.660312 -0.354894
18.2666 20.9223 20.7125 0.0230547 0.244713 1.28757
22.4777 21.1452 17.3881 2.03682 0.266483 -0.629475
23.6223 22.2259 19.4732 0.783147 -0.40519 -0.139096
22.1435 23.7697 17.8015 -0.093724 -1.45753 1.25541
20.7238 21.801 19.4461 1.05436 -0.994378 -0.282296
21.6774 24.1949 20.6247 0.997117 1.34708 -0.234514
18.4042 19.1608 23.4924 2.30364 0.084948 1.4717
16.3171 20.273 22.3526 -0.946401 1.00139 -0.377562
17.3525 18.279 20.999 0.65928 0.246388 -1.10592
19.9267 17.6304 22.0133 -0.661635 -0.31616 1.02433
22.6607 20.4329 23.6652 1.70855 0.570152 0.528216
20.8273 18.6142 24.3302 -0.414709 0.195266 1.34615
24.5243 20.0153 21.3908 0.505552 -0.0295863 0.37323
22.5881 18.1412 21.9825 -0.881936 0.403321 0.065462
20.6164 20.3833 22.05 -0.740127 -0.118701 -1.08709
20.3667 21.1177 24.6575 -0.257833 -0.31196 0.436559
18.2629 21.9273 23.1646 -1.03115 1.08237 -1.4618
16.4203 22.688 21.412 -0.873891 0.531273 1.4158
19.1237 23.612 21.2163 -1.66473 -1.72647 0.752765
20.7367 23.05 23.0504 0.410373 -0.0121384 -0.841149
22.8491 22.0213 21.8234 0.224459 -0.424252 0.302995
ITEM: TIMESTEP
10000
ITEM: NUMBER OF ATOMS
36
ITEM: BOX BOUNDS ss ss ss
1.6071850635475336e+01 2.4782295138573424e+01
1.6394185455719906e+01 2.4459906728812022e+01
1.6933353722224751e+01 2.4781461089170364e+01
ITEM: ATOMS x y z vx vy vz
19.7791 18.9095 19.6082 -1.08843 -0.270415 -1.48684
18.8496 16.4267 19.9233 -1.14599 0.935673 1.00042
16.3216 20.296 19.7329 0.781583 -0.712642 -0.0916521
20.5032 19.5727 17.047 0.317457 -0.755354 0.640405
19.8259 17.238 17.5758 0.163202 -0.184177 -0.16987
17.4786 18.1137 18.4879 1.29207 0.618287 -0.925575
24.0202 17.6981 19.9272 -0.491692 0.276207 0.270586
22.3505 19.8251 19.8403 -1.20682 0.557154 0.0353085
24.6963 20.1142 18.5402 -0.802135 -1.32104 0.438857
22.6835 18.2193 17.7547 0.351478 0.28106 -0.816679
21.5687 16.8809 19.7674 1.72087 0.634176 0.63392
18.201 20.3637 17.7773 -0.518632 -1.01906 1.41447
17.7407 22.5159 18.948 0.0634087 1.49236 -0.752134
19.8429 24.3551 18.5392 0.445401 -0.275401 -1.21145
20.0235 22.1729 17.0048 -1.48451 -0.291301 -0.443772
18.5495 20.9109 20.8995 0.656659 -0.360258 0.941455
22.703 21.2547 17.3592 1.0642 -0.562355 -0.709785
23.7272 22.2928 19.5242 1.1569 -0.0352245 1.66517
22.1339 23.7521 17.8743 -2.12361 0.523307 0.487376
20.6801 21.9674 19.783 1.15484 0.828645 -0.279968
21.7698 24.3107 20.4671 0.0292251 0.300891 0.546917
18.6141 19.5163 23.4894 0.695762 0.0806409 -1.89361
16.2138 20.4112 22.2657 0.0172362 0.534035 0.833768
17.4745 18.2553 21.3518 2.10706 -0.806825 -0.538328
19.9562 17.3745 22.0048 -0.708024 1.054 0.411828
22.939 20.057 23.9192 0.0753207 -1.22863 -0.105124
20.9216 18.3055 24.3267 -0.608531 -2.44699 0.645149
24.4189 20.0614 21.6194 -0.331472 0.297064 0.311832
22.6185 18.1028 22.1586 -1.71196 -0.534321 -1.67368
20.805 20.0776 22.1166 -1.35325 3.37743 0.673541
20.4925 21.0676 24.5754 1.49039 1.04045 -1.15961
17.9949 22.1079 23.3667 -1.07042 0.348087 1.19974
16.3504 22.7551 21.0978 -1.2461 -1.93303 0.475415
18.8579 23.8498 20.9345 1.44732 -0.802684 -0.747526
20.4803 23.0325 22.6191 0.586529 0.616356 0.334453
22.6336 22.055 21.9929 0.274659 -0.256114 0.045001
ITEM: TIMESTEP
11000
ITEM: NUMBER OF ATOMS
36
ITEM: BOX BOUNDS ss ss ss
1.6071850635475336e+01 2.4782295138573424e+01
1.6394185455719906e+01 2.4459906728812022e+01
1.6933353722224751e+01 2.4781461089170364e+01
ITEM: ATOMS x y z vx vy vz
19.5101 19.0349 19.558 -1.67428 -2.10059 -0.0194014
18.8687 16.2395 19.9717 0.960907 -0.710954 -1.7156
16.4493 20.3036 19.6733 0.783915 -0.285702 1.06155
20.6264 19.4688 17.0003 1.60953 1.89707 0.902349
19.8874 17.1729 17.6523 0.486466 -1.33069 -0.738676
17.388 17.9393 18.4252 0.12362 1.5324 -0.335616
24.2492 17.767 19.9988 -0.0400794 -1.01155 0.209505
22.2253 19.5888 19.6543 -0.417383 -0.538428 -0.823731
24.6898 19.9255 18.6203 -1.77714 1.78508 0.171454
22.8918 17.9656 17.6702 -0.911091 2.43471 2.13671
21.4373 17.0007 19.621 -0.557599 0.323794 -0.262073
18.16 20.4931 17.6006 0.572617 -0.639889 -0.536063
17.8088 22.7081 18.8658 0.692587 -2.52798 0.496411
19.8131 24.4473 18.5967 2.61014 1.13572 -1.45787
19.9722 22.2628 16.8451 0.814662 -1.04239 0.103552
18.6507 21.0419 21.1028 -1.43797 -1.19073 1.10409
22.6706 21.0676 17.4296 -0.0977346 -0.748521 0.0705629
23.617 22.2043 19.645 0.358641 -1.02538 0.306586
22.2005 23.7672 18.0248 -0.721189 0.972452 -0.505722
20.557 21.854 19.386 -0.104664 0.0859537 0.0750964
21.5963 23.9958 20.5951 -0.247853 1.39435 -1.04046
18.5264 19.5072 23.4927 0.457848 -0.661604 0.642275
16.3061 20.4638 22.6211 0.00396722 1.37453 0.401888
17.388 18.2078 20.9878 -0.0470976 -0.879086 0.271892
19.997 17.7198 21.963 -0.142522 1.07587 1.06496
22.7621 20.3315 23.8634 -0.443603 1.25549 0.587721
21.0244 18.4731 24.2788 -0.642464 0.412602 0.252707
24.1797 20.2007 21.3308 1.27265 1.19848 0.724963
22.7272 18.0433 22.1679 -2.08014 0.406891 -1.68717
21.0204 20.3145 22.0484 0.472565 -1.16798 0.151943
20.2787 20.8395 24.8593 1.33631 -2.08792 -1.16508
18.0484 22.26 23.4422 -1.08247 0.925063 0.458958
16.4662 22.6607 21.1933 0.510371 1.42808 0.947765
18.7571 23.8073 21.0627 -2.35643 -0.203045 0.349631
20.4969 22.8798 22.7961 1.8255 0.277558 -1.2284
22.972 22.2622 22.1757 -0.110582 -1.76366 -0.976716
ITEM: TIMESTEP
12000
ITEM: NUMBER OF ATOMS
36
ITEM: BOX BOUNDS ss ss ss
1.6110434581810477e+01 2.4784102584534335e+01
1.6428671111137611e+01 2.4498380762382876e+01
1.6987099091468842e+01 2.4354501726734540e+01
ITEM: ATOMS x y z vx vy vz
19.5416 19.0918 19.707 1.41895 0.504948 0.717196
18.7552 16.2778 19.7255 -0.184594 -1.03669 -1.16359
16.234 20.2807 19.7638 -1.0423 0.210197 0.857667
19.8781 17.4406 17.5274 -0.572357 -1.90097 0.991623
17.3911 17.9959 18.5398 -0.383486 1.01772 -0.958612
18.1856 20.2405 17.7423 -0.599604 1.28505 0.916383
18.5994 19.9614 23.7361 1.83911 1.7409 1.01191
17.5347 18.314 21.4424 -1.31118 -1.09443 -0.747631
19.9709 17.3275 21.931 2.32386 1.40755 -0.711985
20.7338 19.8822 17.2197 -0.170005 0.790479 0.449976
24.2268 17.8574 19.878 0.479261 -1.79123 -1.78407
22.3234 19.6379 19.8281 -1.35385 -0.710652 0.648761
24.7988 19.8621 18.6344 0.0915153 1.39806 0.289569
22.9023 18.2875 17.6482 1.14415 -1.0237 1.97117
21.4161 16.9571 19.6395 -0.291922 -1.56514 0.123412
23.059 20.0119 23.707 -0.943077 -1.84482 -1.28166
21.0509 18.5286 24.1917 -1.04417 1.30161 0.234548
24.4875 19.978 21.4055 -1.45838 1.55853 0.398469
22.7335 17.9038 22.0475 0.143132 1.30654 -0.17184
20.8359 20.0471 22.1308 0.102575 0.31726 -1.50295
17.8348 22.4285 18.693 -1.12283 -1.5541 0.132
19.6919 24.2609 18.7149 0.770717 1.16476 -0.0506312
20.2467 22.3403 16.9368 -0.670585 -0.772163 -1.09865
18.3918 21.2168 21.1552 -0.638897 0.659876 -0.274971
16.1502 20.4092 22.5574 -0.197722 -0.188131 0.172959
17.5878 22.4423 23.3894 -1.16631 -0.712812 -0.347663
16.1764 22.5688 21.0338 0.19036 0.805467 -0.526647
18.5759 23.9488 20.9895 -0.269972 -1.30103 -1.18377
20.1283 22.7437 22.6083 1.55605 -0.350774 0.127415
22.9819 21.2164 17.2902 0.583897 0.938103 0.85408
23.6468 22.1456 19.7805 1.50785 -1.91594 0.435973
22.2654 23.5389 17.8976 -0.221579 1.51444 -1.04511
20.6855 21.7871 19.5543 1.25021 0.145692 -0.0356067
21.7479 23.9963 20.6153 -1.46332 1.04371 0.592047
20.7743 21.2828 24.4599 1.17791 -1.17122 1.50358
22.6755 22.01 22.0982 0.526599 -0.177072 0.45664
ITEM: TIMESTEP
13000
ITEM: NUMBER OF ATOMS
36
ITEM: BOX BOUNDS ss ss ss
1.6110434581810477e+01 2.4784102584534335e+01
1.6428671111137611e+01 2.4498380762382876e+01
1.6987099091468842e+01 2.4354501726734540e+01
ITEM: ATOMS x y z vx vy vz
19.4894 19.0849 19.8004 1.41826 1.84355 -1.48867
18.7457 16.316 20.2111 1.03029 -1.61807 0.226353
16.4664 20.245 19.3883 0.255486 0.556311 1.93308
19.8933 17.5619 17.8266 -3.05853 0.148974 -0.607752
17.2722 17.9129 18.6528 0.703612 0.332636 0.00831202
18.4664 20.349 17.6469 -0.316043 1.25004 0.88702
18.7398 19.8834 23.3942 -0.0672954 -0.268162 -0.935998
17.3647 18.3497 21.4883 1.61487 -1.49142 -1.59747
20.0961 17.5662 22.2149 -0.585611 -0.69838 0.0958908
20.9849 19.8468 16.8827 1.4596 -0.237886 -0.211997
24.2102 17.6043 19.8473 -0.247464 0.996591 0.325755
22.2937 19.4258 19.3678 0.492522 1.98205 2.78465
24.6578 19.8117 18.4904 1.43116 -1.6296 -0.907369
22.708 17.779 17.3691 0.526205 -0.0568211 0.12973
21.3908 16.8328 20.0582 -0.476908 -1.45491 0.0547959
23.2559 19.9171 23.6676 0.584165 0.236246 -1.36043
21.0198 18.6804 24.2147 -0.338697 0.426225 -0.889428
24.2601 19.9267 21.2107 -0.584391 -0.425791 -1.52234
22.8123 17.8933 22.1168 -2.16416 0.83672 0.302436
21.1362 20.1975 21.866 -0.828687 0.709608 0.591159
17.9647 22.5628 18.7519 1.7114 0.682242 0.613822
19.8065 24.5551 18.7093 -2.53301 0.34966 -1.86018
20.1085 22.5254 16.8993 0.725082 -0.868046 -0.00200984
18.4192 21.1651 21.1029 0.45576 -0.124363 0.760081
16.045 20.3309 22.3082 1.0332 1.24395 1.65408
17.4042 22.3726 23.1255 -0.515128 -1.06138 -1.08362
16.0856 22.5648 20.9236 0.515051 -0.27022 1.1173
18.6623 23.8615 20.9912 -0.302774 -0.160729 -0.594835
20.1293 22.6604 22.8851 -1.80767 0.291418 0.376723
22.8464 21.3738 17.3854 1.12113 -1.34739 -0.201376
23.2997 22.0415 19.8186 1.28493 -0.253864 0.799783
22.247 23.8785 18.2614 -1.51038 1.04026 0.192774
20.6421 21.7754 19.464 -0.799919 0.427727 0.015667
21.4487 23.9373 20.8323 1.33401 0.0361752 -0.848497
21.0371 21.2189 24.5545 -0.411722 0.0999356 1.48346
22.8101 22.2119 22.4922 -1.14834 -1.52328 -0.240901
ITEM: TIMESTEP
14000
ITEM: NUMBER OF ATOMS
36
ITEM: BOX BOUNDS ss ss ss
1.6110434581810477e+01 2.4784102584534335e+01
1.6428671111137611e+01 2.4498380762382876e+01
1.6987099091468842e+01 2.4354501726734540e+01
ITEM: ATOMS x y z vx vy vz
19.4697 18.9335 19.6716 -0.363562 -0.568511 -0.321154
18.9042 16.3764 19.9484 0.922282 0.0820421 -0.787044
16.4591 20.3439 19.568 0.431569 -0.0882018 -0.323759
20.0731 17.0114 17.6425 -0.457982 -0.0282962 -1.87131
17.3356 17.991 18.5029 0.70228 -1.15646 0.268014
18.0578 20.3114 17.6582 -0.883629 0.210285 1.03343
18.798 19.8198 23.4551 0.110457 0.325226 -0.093888
17.3775 18.3715 21.384 0.589258 -0.699849 0.0311361
20.1039 17.4653 22.0627 -0.923532 -1.70576 0.252175
20.6388 19.6107 17.2107 -0.550183 0.554237 -0.193931
24.0796 17.5621 19.7437 -1.22246 0.331377 -0.466978
22.2067 19.6783 19.5343 0.597502 1.95896 0.716838
24.6643 20.0181 18.6559 -0.417927 -0.168621 -0.682086
22.6766 18.1994 17.3716 -1.17895 -1.47066 2.2297