ITEM: TIMESTEP
0
ITEM: NUMBER OF ATOMS
36
ITEM: BOX BOUNDS ss ss ss
1.6069594376369892e+01 2.4214569874243914e+01
1.6009315869689598e+01 2.3865285602777028e+01
1.6048100834804540e+01 2.4909469667701028e+01
ITEM: ATOMS x y z vx vy vz
17.9868 18.9035 18.0118 0.820428 -0.809833 1.278
19.9928 17.4882 16.7069 -0.996152 -0.0596723 -0.312675
19.4562 16.8881 19.301 -1.5035 0.291336 0.464459
22.1086 17.2261 18.5576 0.993088 0.302349 0.850255
20.6648 19.5671 18.4404 0.791363 -0.389765 -0.236487
23.4983 19.5955 18.772 1.05495 -0.451733 0.620752
22.2136 18.9106 16.3184 -2.31583 0.268742 -0.471665
19.08 23.8185 19.6259 0.633536 0.457214 -1.05944
19.5899 20.0893 16.0522 -0.274002 0.617016 0.178169
18.775 21.0292 19.8634 0.999277 0.462259 -0.975002
17.3251 21.5068 17.5804 1.02462 0.610736 1.38873
16.0737 20.1606 19.5472 -1.63075 -0.677717 -2.19141
16.6352 22.7295 20.0096 1.37031 -0.451507 0.567397
19.8735 22.3167 17.5686 1.18625 -0.68137 -1.23446
21.8492 23.7688 18.8662 -0.11342 1.61611 -1.77503
22.3429 21.4804 17.1269 -0.983784 2.13074 -2.80991
24.2105 22.2223 18.8807 0.0782701 0.0407097 1.10117
21.7738 21.4484 20.1658 0.967079 1.98311 -0.455136
17.8182 18.5176 20.8349 2.0131 -0.888014 -0.317676
19.1154 16.5043 22.0558 -0.546407 -1.50385 -0.124787
19.1099 18.9405 23.4213 -2.94316 -2.17072 -0.36178
22.3944 19.6565 23.0457 -1.40937 -0.701081 0.354051
20.6183 18.7161 21.071 0.464932 -0.1806 -0.515155
21.3428 17.2304 23.303 0.0422824 -0.821444 0.344626
23.2768 18.0753 21.0155 -1.95437 -1.60562 1.02541
21.5119 16.0134 20.9123 -0.318001 0.0183592 1.578
17.0711 20.8279 22.0562 1.14953 0.171337 0.0900729
20.0479 21.2504 22.324 1.75455 0.363943 0.527484
18.2231 21.4537 24.3927 2.60748 -0.518003 0.665645
18.2169 23.3068 22.1987 -2.15356 -0.536895 -0.256227
22.5112 22.3172 23.2207 -1.57101 1.15554 0.31532
20.1532 23.3185 24.1789 1.56295 0.906549 0.401647
20.9156 23.8612 21.5715 -1.21877 1.10959 0.995772
24.136 20.8012 21.2609 0.947725 -0.350495 0.370263
20.7595 20.7556 24.9054 0.410843 -0.49467 1.21198
23.5479 23.5238 21.0565 -0.94049 0.787356 -1.23237
ITEM: TIMESTEP
1000
ITEM: NUMBER OF ATOMS
36
ITEM: BOX BOUNDS ss ss ss
1.6069594376369892e+01 2.4214569874243914e+01
1.6009315869689598e+01 2.3865285602777028e+01
1.6048100834804540e+01 2.4909469667701028e+01
ITEM: ATOMS x y z vx vy vz
18.0188 18.8993 17.8563 0.273487 -0.658133 0.741315
20.0778 17.5157 16.7352 0.212846 -1.18283 -1.75891
19.443 16.9868 19.3656 -0.384116 -0.434289 -0.285766
22.0715 17.3186 18.5492 0.471689 -1.70541 -1.03827
20.5793 19.6914 18.2212 -0.315176 -0.120855 -2.09531
23.3731 19.4724 18.8263 0.624632 -1.04475 -0.845102
22.0548 18.8933 16.092 0.011869 0.0857998 -1.06069
19.0702 23.5746 19.8291 -0.276993 1.16166 -0.366407
19.5317 20.2771 16.0367 -0.572219 -0.713162 1.15573
18.7152 20.8564 20.0051 -0.313712 0.28211 -1.31144
17.476 21.5093 17.7367 -1.84551 -0.84344 0.29064
16.183 20.0576 19.6002 0.908834 1.60734 0.00879464
16.5753 22.5957 19.8537 -0.845482 0.0379281 0.00943036
19.9874 22.3483 17.571 -0.0987233 0.853226 -0.0231374
21.8566 23.7328 18.8107 0.921298 0.919935 0.560517
22.4027 21.2804 17.0478 0.819051 0.408044 -0.718186
24.1468 22.1675 18.9517 0.854877 0.811764 1.46574
21.7296 21.5296 20.0379 0.440015 0.228324 -0.615709
17.7486 18.395 21.0121 -0.230145 1.6074 -1.00244
19.2181 16.5348 22.0513 2.19229 0.193285 0.386476
19.2639 19.0903 23.3473 0.0393542 -0.989647 1.6192
22.3353 19.5776 23.165 -1.97933 -0.669241 0.952447
20.7322 18.7929 20.8914 0.0174352 -1.48463 -0.738643
21.4043 17.3513 23.194 -0.141568 0.0862355 0.434808
23.2859 18.0471 21.1552 0.32747 -0.911941 0.631379
21.6012 15.9996 20.7016 -0.289481 -0.167882 1.56391
17.0746 20.7996 22.038 0.248816 0.0249566 0.146267
20.1183 21.4045 22.3865 -1.02799 0.158801 1.06216
18.2146 21.6076 24.3564 -0.36556 -0.0615062 1.02531
18.2552 23.2529 22.2201 -2.10668 1.39957 0.608604
22.5238 22.3004 23.3177 -0.582139 -0.717844 -1.05025
20.0398 23.4492 24.2519 -0.104727 0.178799 0.130994
20.9697 23.9621 21.6144 0.697869 -0.601107 1.508
23.9627 20.5796 21.2513 1.27955 0.695544 -0.155515
20.7559 21.0116 24.9128 0.529628 0.301646 0.0275239
23.4231 23.3572 21.2265 0.608536 1.26429 -1.26346
ITEM: TIMESTEP
2000
ITEM: NUMBER OF ATOMS
36
ITEM: BOX BOUNDS ss ss ss
1.6069594376369892e+01 2.4214569874243914e+01
1.6009315869689598e+01 2.3865285602777028e+01
1.6048100834804540e+01 2.4909469667701028e+01
ITEM: ATOMS x y z vx vy vz
17.9935 18.8612 17.9602 -0.881747 -1.48023 -1.43668
19.9488 17.5927 16.7127 0.805118 -1.74727 -0.144749
19.5014 16.8502 19.3261 -1.17182 -0.755014 0.213023
22.0723 17.1849 18.5899 0.944469 -0.832987 -0.637568
20.5778 19.4841 18.4186 -2.3149 -0.154822 -0.346218
23.4046 19.6206 18.8044 1.88736 0.0519061 -1.48022
22.2563 18.8281 16.4352 0.680657 -0.954514 -0.828633
19.0548 23.6322 19.6812 -0.674215 0.68358 -0.296417
19.6742 20.2912 16.0061 0.849153 0.931532 -0.334602
18.6846 21.0321 19.8982 -0.167739 0.206641 -1.43014
17.7361 21.423 17.5398 -0.000460716 0.142911 0.91945
16.1973 20.2695 19.5333 -1.15342 0.561896 -1.35005
16.6346 22.7111 20.1273 -0.0581319 0.575104 1.73445
20.0792 22.2393 17.6804 0.0419032 1.52538 0.995989
21.6966 23.9373 18.8951 0.845235 0.490191 -1.11537
22.461 21.4202 16.9252 0.494411 -0.780019 -0.207882
23.9826 22.2765 18.8713 1.13607 0.638385 -0.101479
21.6098 21.4834 19.9967 0.128393 0.0787314 0.576039
17.9195 18.6203 20.8598 -1.93592 -0.87363 0.0735751
19.041 16.5858 22.0916 1.60125 -1.7729 0.368779
19.1058 18.9243 23.5027 -1.4113 -0.842349 0.621192
22.4066 19.6806 22.9953 -0.189747 0.0361433 2.03673
20.6465 18.8793 21.0496 0.359803 0.346992 1.34507
21.1449 17.4387 23.3709 -0.286629 0.191474 -0.198298
23.2584 18.1405 20.938 0.408021 -1.38078 -1.37915
21.4812 16.1689 20.9944 -0.474979 1.2149 0.473516
17.0538 20.6668 22.0855 2.10878 0.335776 -0.512252
20.1367 21.1377 22.3182 -0.535829 -0.0637004 0.308709
18.2667 21.4073 24.4245 0.0685413 0.625723 -0.13798
18.3333 23.1374 22.2634 0.507981 0.454304 1.58401
22.4345 22.3823 23.0915 0.233975 0.621543 -0.625228
20.2299 23.1915 24.2611 -1.89989 1.6264 1.18872
20.917 23.8787 21.5102 -1.33445 1.72607 1.15876
24.0103 20.7599 21.11 1.67305 -1.04366 -1.28083
20.7498 20.6598 24.9274 0.410287 -0.743799 0.869716
23.5185 23.4224 21.0242 -0.693292 0.360089 -0.623984
ITEM: TIMESTEP
3000
ITEM: NUMBER OF ATOMS
36
ITEM: BOX BOUNDS ss ss ss
1.6069594376369892e+01 2.4214569874243914e+01
1.6009315869689598e+01 2.3865285602777028e+01
1.6048100834804540e+01 2.4909469667701028e+01
ITEM: ATOMS x y z vx vy vz
17.9928 18.7204 17.9779 -0.40657 -0.162672 -0.334605
20.1711 17.3366 16.9119 0.47201 0.483945 0.0785921
19.5605 16.9055 19.4473 1.02471 -0.0761281 0.938219
22.0863 17.2378 18.7645 1.26051 -0.943402 -0.77574
20.6451 19.5811 18.4265 1.01425 -0.837598 -1.1138
23.5105 19.6789 18.4065 -1.49934 -0.151541 -1.33326
21.9875 19.1015 16.2229 -0.154109 -1.08538 -2.29857
19.3661 23.7254 20.011 -0.249425 -0.654571 0.679251
19.6058 20.2495 16.1253 -0.107818 1.37932 0.00724462
18.7361 20.5601 19.9299 -0.527376 1.83128 -0.278653
17.3972 21.1947 17.4253 -1.29253 0.0288995 0.677467
16.2253 20.071 19.5237 -0.630785 -0.830965 -1.37263
17.0917 22.551 19.8523 0.19681 1.31805 -0.345807
19.7625 22.2984 17.9184 0.271754 -1.10336 0.835993
21.7979 23.813 19.0177 -0.412083 1.0732 0.459974
22.2538 21.6395 17.1865 0.0582771 -0.338998 -0.652158
24.1469 22.3401 18.7043 -1.15953 0.223247 0.801037
21.8232 21.3325 20.1712 0.378128 -0.514409 -0.654415
17.5459 18.2934 20.7889 0.741887 0.393119 1.16797
19.0059 16.6138 22.0375 -0.276143 -0.887276 0.236275
18.5513 19.1508 23.1046 -0.210638 0.314711 0.990927
22.64 19.5329 22.9936 0.213709 0.198057 1.01268
20.5435 18.8407 21.0992 0.703224 -0.47121 0.320702
20.7858 17.769 23.5952 -0.803691 -0.188706 -2.32998
23.2972 18.5657 20.5972 -0.363027 -0.598236 -0.740924
21.5891 16.5719 21.337 0.933394 0.188604 2.83209
16.9722 20.8285 21.9803 0.119722 0.798114 -0.371597
19.9008 21.3442 22.1491 0.94455 0.641314 0.766128
18.2444 21.5366 24.4698 0.669848 0.469975 -0.763988
18.2726 23.3011 22.4179 -0.833904 -0.201983 0.122247
22.4648 22.0552 23.0855 -0.686985 -0.792112 -0.168431
20.4149 23.0428 24.3432 0.390516 -0.56679 0.0739295
21.1332 23.7338 21.625 1.56167 0.560749 0.0607983
24.3828 20.8903 21.0958 -0.896132 1.18184 2.64183
20.6595 20.3735 24.5432 -0.28479 0.0968806 -1.24921
23.6557 23.4388 20.9339 -0.160094 -0.775962 0.0804152
ITEM: TIMESTEP
4000
ITEM: NUMBER OF ATOMS
36
ITEM: BOX BOUNDS ss ss ss
1.6224981189318953e+01 2.4374611738917370e+01
1.6647216611164069e+01 2.4008402552877541e+01
1.6176760681080154e+01 2.4505441890066514e+01
ITEM: ATOMS x y z vx vy vz
18.1718 18.6814 18.1028 -1.48592 -1.27182 -0.650438
20.0364 17.3371 16.9431 -0.692149 0.135792 0.49457
19.7174 16.8749 19.5109 0.637636 0.545385 1.09175
19.2841 23.5627 20.0152 0.508194 0.601467 -0.0333656
19.5416 20.2812 16.5824 1.40237 0.219789 -0.277016
18.9167 20.9436 19.4953 1.32897 -1.3707 0.256704
17.3714 21.4848 17.5737 -0.680205 0.629643 0.140691
16.1174 20.2143 19.4467 -0.301928 0.516218 -0.612571
16.7524 22.5804 20.1519 -1.18849 1.16796 -0.16292
19.7242 22.7491 17.5812 -1.25928 0.614348 -0.245594
22.2321 17.0556 18.5855 0.834794 1.38176 0.303932
21.0423 19.3758 18.7013 -0.58757 -0.0472742 -0.660926
23.6747 19.3873 17.9583 -0.254011 -1.22754 0.398821
21.822 18.9224 16.1503 -0.847458 -0.0875783 -0.432149
21.7846 23.6167 18.9876 -2.52515 -0.240399 1.13588
21.9953 21.4411 17.0311 0.272905 -0.887169 -0.707468
23.9728 21.8467 18.914 -0.582394 0.609259 1.32566
21.8689 21.3414 20.4219 -1.25475 1.12172 -0.0143816
23.4489 18.8967 20.4192 -1.01689 0.73388 0.279832
17.9472 18.7534 20.8392 0.972466 0.142971 0.394155
19.323 16.6338 22.0329 1.26179 -0.35566 -0.769986
18.4436 18.9956 23.3498 -0.218559 -0.481362 -0.496191
16.7458 20.8076 21.9922 2.03798 0.235074 -2.53892
19.5226 21.4928 21.9891 -0.344219 0.124211 0.210313
18.1484 21.502 24.2134 0.559506 0.5153 1.24282
18.1391 23.5798 22.3571 -1.20264 0.720958 -0.603483
20.2494 22.9653 24.1377 -0.13348 0.203827 0.446062
22.77 19.0451 22.9144 1.51391 -0.491726 0.632082
20.623 18.9886 21.3349 -1.0506 -0.0607915 0.0412263
20.7528 17.5429 23.8991 -0.775378 -0.775113 -2.17091
21.7678 16.7802 21.2039 0.996898 -1.21441 1.16116
22.461 21.9611 22.9795 0.511328 1.02 1.34801
21.0738 23.97 21.7763 0.879633 -0.423597 -0.477315
24.3415 21.0044 21.5212 1.66891 -1.31522 1.23478
20.7369 20.1636 24.155 0.370366 -0.0513254 0.49219
23.6992 23.4406 20.9519 0.643417 -0.937888 -1.77701
ITEM: TIMESTEP
5000
ITEM: NUMBER OF ATOMS
36
ITEM: BOX BOUNDS ss ss ss
1.6224981189318953e+01 2.4374611738917370e+01
1.6647216611164069e+01 2.4008402552877541e+01
1.6176760681080154e+01 2.4505441890066514e+01
ITEM: ATOMS x y z vx vy vz
17.9274 18.6482 18.2017 0.650885 0.715205 -0.901359
20.0364 17.3466 16.8968 -0.416882 0.715345 0.557936
19.6247 16.829 19.3154 0.300838 -0.0930034 1.23801
19.6795 23.4997 20.1535 -0.360583 0.274399 -1.18966
19.4911 20.0158 16.4793 0.340897 1.06031 0.0813598
18.8392 20.7376 19.7913 -0.00518753 0.744229 -0.0846144
17.3199 21.3189 17.5263 -1.11751 -1.63496 -0.678506
16.1193 20.1492 19.5529 -1.75165 0.53299 -0.636263
16.9804 22.649 19.8988 -1.55331 0.928441 1.53026
19.7493 22.4299 17.8194 0.161101 -0.455814 0.0588935
22.37 17.1924 18.3058 0.573976 1.28194 0.000124514
21.0467 19.3256 18.5623 -1.26878 0.552252 1.30914
23.8957 19.2987 17.7228 1.43102 -1.44569 0.144008
21.9761 18.9075 16.0662 -0.452297 0.487145 1.5522
21.9816 23.6012 18.8172 -0.717587 -0.267064 -0.724296
21.9067 21.3467 17.1057 1.22215 -0.417997 -1.24134
23.904 21.7476 18.8642 -1.14195 0.545544 1.32181
21.7645 21.5439 20.4374 -0.247406 -2.48564 0.241808
23.2263 19.0177 20.2344 0.522502 -0.462516 0.101921
17.6416 18.2744 20.7867 0.617398 3.40365 -2.33124
19.2042 16.4745 22.0041 0.063967 -0.675077 0.159036
18.4657 19.0585 23.3568 0.180546 -1.43512 -0.432923
17.0872 20.9133 21.8939 1.25264 0.355011 0.794971
19.7952 21.5459 22.2407 -0.179928 0.606193 -0.90759
18.1333 21.6202 24.3669 1.63054 -0.788103 -0.21681
18.1096 23.5122 22.3908 0.702249 -1.21126 -1.00899
20.1821 23.1335 24.3806 1.07745 -0.753867 0.705717
22.4534 19.4819 22.7038 -0.0452972 1.16779 -0.0702166
20.3414 19.0074 21.1723 0.642757 -0.0906813 -0.157482
20.8901 17.6951 23.4853 -0.227202 -0.488769 1.04615
21.7377 16.934 21.1339 0.639752 -0.0745238 0.945787
22.4516 22.1353 23.3528 -1.45622 1.20072 -0.630791
21.2481 24.0559 22.0476 0.433598 1.61929 0.103428
24.3299 21.1518 21.5972 -1.50033 1.08169 -0.337291
20.5969 20.2558 24.4478 0.0343357 -2.27971 0.694417
23.7134 23.3652 21.1073 -0.0364929 -2.21237 -1.0376
ITEM: TIMESTEP
6000
ITEM: NUMBER OF ATOMS
36
ITEM: BOX BOUNDS ss ss ss
1.6224981189318953e+01 2.4374611738917370e+01
1.6647216611164069e+01 2.4008402552877541e+01
1.6176760681080154e+01 2.4505441890066514e+01
ITEM: ATOMS x y z vx vy vz
17.912 18.8006 18.1522 0.321004 -1.30968 0.985256
19.82 17.5293 16.916 -0.222091 -0.0208665 -0.544534
19.9011 17.0481 19.4968 0.984329 -0.18772 0.27327
19.1124 23.4653 19.9927 0.738893 -0.417233 1.00669
19.6648 20.1266 16.3366 0.723275 0.170674 0.391695
18.9289 20.6571 19.78 0.853601 -0.963019 0.278893
17.624 21.578 17.6862 -0.0257812 1.00321 0.334961
16.1039 20.1951 19.544 0.248787 0.0424994 1.17828
16.7496 22.6705 20.0778 1.96996 0.163633 -0.034681
20.3815 22.2778 18.1558 -0.228222 0.592513 0.644375
22.3354 17.2111 18.0745 -1.07206 -0.796353 -0.170419
21.1276 19.433 18.53 0.368975 0.249081 0.343892
23.8274 19.2661 17.5103 0.573994 -0.250906 -0.080799
21.8846 18.6772 15.8218 0.9735 -0.702141 -1.26554
22.0364 23.969 19.2378 -0.447543 -0.0788974 0.412563
22.2582 21.1994 16.5831 -0.478468 -0.0276439 -1.5112
23.6978 21.6813 18.8909 -2.16677 0.0809771 1.7315
21.7699 21.4592 20.5753 -0.417457 -1.5312 -0.912034
23.163 18.9208 20.1288 0.0688744 -0.0923621 0.378146
17.5137 18.2389 20.8704 -0.766424 0.286507 -0.548834
19.1295 16.4879 22.0099 0.156798 -2.54703 -1.35445
18.5341 18.832 23.3428 -0.52314 0.382313 -1.08894
17.0467 20.7402 21.9491 0.435779 0.620004 -1.18276
19.7476 21.5001 22.2921 0.248771 1.96509 -0.873943
18.1804 21.6183 24.298 1.53142 0.357432 1.24482
18.0352 23.4968 22.5794 -1.92 -1.18423 0.453639
20.2002 23.277 24.1106 -0.408056 -1.14367 -0.0189147
22.5429 19.4908 22.8018 -0.999886 0.809629 -1.44508
20.2767 18.9181 21.3671 -0.565525 2.0215 0.85384
20.9328 17.7226 23.737 -0.532187 1.7134 -0.35509
21.7723 16.7212 21.388 -1.28358 0.806726 1.12262
22.4576 22.2425 23.2732 -1.07334 1.33274 0.224834
20.9971 24.1136 21.6294 0.253899 -1.58864 -0.0714442
24.3566 21.0443 21.4677 0.602672 0.476285 0.198831
20.6023 20.2721 24.4787 1.41727 -0.481653 0.0743219
23.5958 23.3382 21.1343 0.658736 0.249041 -0.673768
ITEM: TIMESTEP
7000
ITEM: NUMBER OF ATOMS
36
ITEM: BOX BOUNDS ss ss ss
1.6168681479147217e+01 2.4323590239045199e+01
1.6555613942607550e+01 2.4048918574496408e+01
1.5890548714870601e+01 2.4614790477055383e+01
ITEM: ATOMS x y z vx vy vz
17.9414 18.7442 18.2065 -0.0639527 1.11232 -0.971272
19.8744 17.3116 16.8999 -0.330662 -0.945292 0.185102
19.673 17.0546 19.4827 1.84659 -0.302144 -0.193421
19.3421 23.5199 19.7244 -0.0309533 0.863494 1.35782
19.4294 20.0793 16.4097 -0.398122 1.33863 1.46536
18.9156 20.6558 19.8898 0.078223 -0.861422 -0.371539
17.878 21.8638 17.6784 0.170373 -0.783768 2.30193
16.1144 20.2543 19.4368 -0.389789 0.516177 -0.00724174
16.7021 22.6897 19.925 -0.614501 -0.195421 -0.434396
20.6272 22.2386 17.8355 -1.10738 0.368505 0.0467776
22.249 17.0765 18.2754 -0.385122 0.573966 -1.37407
21.0589 19.4744 18.4842 0.74773 -0.683906 0.00977689
23.8575 19.3013 17.6964 0.763958 -0.712079 -0.367734
21.7712 18.5815 15.9892 0.394868 -1.41793 -0.40024
21.9668 24.096 19.2427 1.81983 0.244103 0.747473
22.4196 21.0374 16.2679 1.23481 1.13958 -0.206354
23.3797 21.826 18.6025 0.165093 -0.565458 -0.86711
23.1653 18.972 20.1228 -0.459292 0.290312 0.427029
17.6572 18.5539 20.8564 0.151506 0.0212588 0.0134589
19.4528 16.7348 22.065 -0.918597 -1.052 -0.491406
18.3588 19.0107 23.4487 1.88848 -0.21364 0.249726
16.9084 21.0269 21.9863 -0.87661 -1.79315 1.06099
19.6171 21.4754 22.3602 -0.623723 -0.297555 -0.825045
18.2117 21.3588 24.5799 0.479252 0.268551 -0.156665
17.8994 23.5194 22.2336 -0.620509 0.0524363 0.520472
20.1747 23.0265 24.3482 0.226936 0.870129 -1.86509
20.5432 19.0552 21.5134 -0.83711 -0.556237 -1.4158
21.5951 21.6299 20.4553 -0.737049 -0.567907 0.373056
22.8338 19.2127 22.9594 0.0260395 1.15794 0.124684
20.9239 17.3643 23.8968 -2.04745 -0.318954 0.931054
22.0402 16.846 21.307 -0.832136 -0.470209 0.649885
22.4539 21.8898 23.2073 0.948501 1.02582 0.628178
20.896 24.0205 21.9365 0.648402 0.319067 -0.768521
24.1853 21.1788 21.2432 0.509843 1.60506 -0.303668
20.7388 20.0126 24.3047 -0.685143 0.361853 0.231146
23.3643 23.5269 21.3484 -0.142328 -0.392139 -0.304338
ITEM: TIMESTEP
8000
ITEM: NUMBER OF ATOMS
36
ITEM: BOX BOUNDS ss ss ss
1.6168681479147217e+01 2.4323590239045199e+01
1.6555613942607550e+01 2.4048918574496408e+01
1.5890548714870601e+01 2.4614790477055383e+01
ITEM: ATOMS x y z vx vy vz
18.0996 18.8995 18.3919 -0.925169 -1.89698 2.10396
19.8489 17.4333 16.8927 0.78924 -0.133689 0.0218234
19.5789 16.8765 19.4384 -0.596648 -0.921377 -0.460366
19.1783 23.6938 19.6436 -0.106776 3.1748 -0.383882
19.5598 20.1216 16.1496 0.680779 0.612459 -0.232131
18.8267 20.9463 19.9649 -0.663794 1.0298 -1.38546
17.6745 21.471 17.6616 0.355617 0.179683 -0.581123
16.1166 20.213 19.5978 0.761556 1.13703 1.32068
16.8451 22.6794 19.8452 -0.126435 -1.59183 0.783212
20.3312 22.2868 17.6901 -0.327237 0.555127 -0.597608
22.2512 17.1372 18.3985 -0.86407 1.02228 0.603371
21.0296 19.5601 18.4521 -0.180852 0.424277 1.29273
23.7115 19.3128 17.7796 0.226134 -0.192868 -0.000296394
21.8288 18.5091 15.9278 -0.569626 1.0044 0.594088
22.0159 23.7954 19.1024 -0.649306 0.00831337 0.226564
22.2832 21.2057 16.5526 0.602462 -0.0280643 -1.6289
23.8614 21.7122 18.953 1.28979 0.857702 -1.04312
23.1938 18.8721 20.238 0.703348 1.13043 0.904676
17.7367 18.5029 20.9766 -0.574909 0.532843 -1.12512
19.1037 16.5161 21.8574 -0.334202 0.854978 0.746384
18.5542 18.9628 23.5 0.691328 -1.14273 -1.74773
17.0726 20.8539 22.1138 -0.713037 -1.43868 0.489168
19.9207 21.3258 22.4817 0.223107 -0.455092 0.913871
18.2673 21.3961 24.4757 2.17175 0.0191743 -0.247815
18.2095 23.3417 22.2436 0.628778 0.543099 -0.8647
20.0682 23.1766 24.3277 -0.742517 -0.327571 -0.274655
20.5602 18.8309 21.2214 1.83768 -0.19625 1.28461
21.6597 21.5231 20.3313 0.502991 -1.40279 -0.247455
22.5743 19.4417 22.8588 -0.829078 -0.00676677 -1.02659
20.8515 17.5841 23.4974 -1.61501 0.449235 0.881727
21.9039 16.6187 21.0744 -0.517812 0.0338059 0.755325
22.4093 22.2745 23.2761 -1.66536 0.599582 0.30001
20.9422 23.9624 21.8413 -0.396052 -1.17058 -1.16238
24.0588 21.2828 21.5331 0.800981 -0.516517 0.685315
20.729 20.1348 24.6649 0.660056 -1.43636 -0.56138
23.3633 23.7654 21.2651 -0.527705 -1.31084 -0.336797
ITEM: TIMESTEP
9000
ITEM: NUMBER OF ATOMS
36
ITEM: BOX BOUNDS ss ss ss
1.6168681479147217e+01 2.4323590239045199e+01
1.6555613942607550e+01 2.4048918574496408e+01
1.5890548714870601e+01 2.4614790477055383e+01
ITEM: ATOMS x y z vx vy vz
18.1744 19.2333 18.0138 -1.51221 -0.918268 -0.447147
20.0447 17.4135 16.7014 -0.331814 0.473931 0.304185
19.7285 17.0206 19.3801 -2.15139 0.195893 -0.505379
19.1252 23.5157 19.7105 0.221741 0.378271 -0.0068043
19.8498 19.9433 15.8413 0.521144 -1.43734 0.952973
18.6186 20.8819 20.0581 -0.506051 -0.915758 -1.73712
17.3073 21.6896 17.8387 -0.417589 0.221669 -1.41685
16.0511 20.3419 19.7518 0.087334 1.6254 0.655381
16.7187 22.8767 20.1954 -0.324936 1.37163 -0.720206
19.8906 21.9593 17.6941 -0.275638 -1.50841 -0.37439
22.2408 17.1337 18.4034 0.611314 0.118277 -0.197643
20.9432 19.4543 18.4739 1.60094 -1.11561 -0.183108
23.9679 19.2945 17.6878 0.513209 0.542363 -1.30227
22.0921 18.7927 15.9989 0.877153 -0.0331809 0.495182
21.8617 23.3893 18.7066 0.695255 0.35925 0.447392
22.3274 21.2215 16.8068 -0.349784 -0.0629718 0.955609
23.9173 21.4434 19.1105 0.574382 2.21385 -1.35534
23.2102 18.9942 20.2814 -0.965616 -0.396543 1.0503
17.518 18.3065 20.6536 -1.94231 0.609319 -0.775141
19.1785 16.7382 21.8821 1.7256 -0.850138 0.124828
18.5816 18.8843 23.311 1.23685 -2.83304 0.0634165
17.0302 20.9936 22.2996 0.0215589 -0.15507 0.226191
19.8798 21.1998 22.4766 -0.834592 0.734165 -1.01159
18.1331 21.3906 24.59 1.16092 0.277478 0.908854
18.1626 23.3287 22.502 -0.637409 0.832193 0.708555
20.1177 23.1516 24.2415 0.420632 -0.0504577 -0.0671051
20.4535 18.9749 21.1052 -1.08644 -0.91698 0.395737
21.6053 21.42 20.4094 -0.822566 -0.687013 0.819793
22.666 19.5565 22.8249 -0.837801 0.157868 1.10175
20.9589 17.7728 23.6395 0.876047 -0.81823 0.318503
21.8366 16.6534 21.0687 0.565442 -0.285016 -0.33765
22.4362 22.2342 23.3811 -0.111283 1.52218 -0.786572
20.9464 23.8766 21.6468 0.685271 2.09 0.85208
24.3409 21.2558 21.7034 -0.504649 -1.29098 0.973517
20.7294 20.3051 24.814 0.646968 -0.364175 -0.286151
23.5759 23.5778 21.016 0.570315 0.915447 0.156219
ITEM: TIMESTEP
10000
ITEM: NUMBER OF ATOMS
36
ITEM: BOX BOUNDS ss ss ss
1.6189219151874990e+01 2.4213538626771861e+01
1.6587933826656453e+01 2.4088626517264171e+01
1.6165222977063461e+01 2.4504232568010316e+01
ITEM: ATOMS x y z vx vy vz
17.9092 18.7131 18.0504 0.639687 0.156664 0.646753
20.0151 17.4325 16.9681 0.68658 -1.42782 0.52985
19.7442 17.1665 19.5945 0.0577742 -0.972451 -1.21475
19.388 23.5507 20.1881 -1.11155 0.0872568 0.992841
19.5943 20.0349 16.2026 -0.980087 1.11191 -0.39002
18.7901 20.8052 19.7835 1.37312 -0.619406 0.822284
17.3225 21.1737 17.3202 0.236257 0.553607 -0.305688
16.1929 20.1656 19.5013 -0.198598 0.144191 0.257907
17.1379 22.8493 19.3351 -0.677957 -1.28401 -1.0787
19.5356 22.4003 17.8318 -1.53454 0.555939 -1.03855
22.358 17.2259 18.273 0.675914 1.56602 0.413485
20.9085 19.4265 18.5495 -0.0304549 -1.92686 -3.4452
23.6764 19.5073 18.0177 1.66547 1.29798 -0.666314
21.9488 19.0843 16.1726 -0.308319 -0.848318 1.64107
21.8595 23.83 18.9397 -1.05534 0.0229804 0.558657
21.9014 21.6946 17.1377 -0.958335 0.0471705 1.43818
23.9381 22.059 18.8119 1.69207 0.923514 -1.53366
21.7332 21.4358 20.2175 1.48552 0.597722 1.30605
17.6523 18.4114 20.887 -1.41408 -0.764009 0.59547
19.2447 16.5911 22.0204 0.248552 -0.457677 -0.237829
18.6062 18.9293 23.4715 0.0826956 -0.508388 0.784328
17.1992 20.9815 21.9557 -0.586573 2.18435 1.84272
19.8734 21.4548 22.1248 -0.280454 0.670145 0.794173
18.0853 21.3516 24.363 -1.13406 1.26294 -0.463794
18.2127 23.3372 22.4705 0.688846 1.29858 -0.242627
23.1468 18.5887 20.3702 0.778116 -1.64447 -0.0586848
20.2091 23.075 24.18 -0.663801 0.178497 -0.148485
20.3979 18.9536 21.4399 -0.607048 0.473886 -0.383306
22.6612 19.1159 22.9401 1.69554 -1.1691 0.938476
20.8961 17.6292 23.8558 -0.905778 -1.23351 -1.3327
21.8687 16.6599 21.422 -0.461306 1.111 0.821939
22.4616 21.9505 23.0634 0.00938496 -0.427348 0.60032
21.2953 24.0837 21.9504 1.4608 -0.455262 -0.744068
24.2089 20.7308 21.1634 -0.289846 0.133735 -0.0519586
20.6016 20.4248 24.4971 -0.469816 -0.248795 -1.53792
23.6454 23.3957 21.1495 0.191617 -0.390677 -0.110246
ITEM: TIMESTEP
11000
ITEM: NUMBER OF ATOMS
36
ITEM: BOX BOUNDS ss ss ss
1.6189219151874990e+01 2.4213538626771861e+01
1.6587933826656453e+01 2.4088626517264171e+01
1.6165222977063461e+01 2.4504232568010316e+01
ITEM: ATOMS x y z vx vy vz
18.0317 18.5959 18.1293 -1.36429 -2.4865 1.68153
20.0644 17.3422 16.8382 -1.08978 -2.23106 -1.27016
19.6383 16.9242 19.6476 -1.00996 0.122568 -0.658057
19.0285 23.5056 20.324 0.285991 -0.0742568 0.446951
19.7583 20.0992 16.3257 -1.07214 -0.231486 0.62401
18.9341 20.9383 19.5217 -0.281146 1.92182 -1.11275
17.497 21.0582 16.9992 0.446352 -0.619733 -0.842959
16.2603 20.1833 19.2923 -0.0369456 -0.189998 0.190339
16.9577 22.841 18.9933 1.38731 -0.439107 -0.431924
19.2871 22.8629 17.554 0.718856 0.46209 0.332274
22.0612 16.9816 18.4485 1.07173 -0.223037 0.205466
20.9263 19.1612 18.7484 -0.633931 -0.22799 -0.647323
23.5049 19.7398 18.3569 2.29602 0.642805 -0.866777
22.13 18.7848 16.4472 0.852921 0.367 -1.24269
21.4404 23.5654 19.0701 0.260303 0.560684 -0.166666
21.6588 21.608 17.2111 0.772905 -0.402404 0.334801
23.8448 22.3338 18.7673 -0.307771 -0.396009 0.117435
21.6435 21.2675 20.3211 -0.243121 -1.72858 0.793219
17.9425 18.8926 20.8932 -0.165468 1.84085 -0.317741
19.0854 16.6908 22.087 0.57161 1.75959 0.657874
18.6289 19.077 23.5243 -0.647529 -0.547348 -0.664557
17.1814 21.6305 21.4451 -1.04031 3.09761 0.924873
19.8096 21.4269 22.2069 -1.16666 -1.79857 1.2603
18.3188 21.288 24.5316 -2.36984 -0.75602 0.981868
18.3711 23.5123 22.9719 -0.817937 0.326011 0.127836
23.1078 18.5165 20.5498 -1.34178 0.952172 0.43741
20.4584 22.9985 24.4515 0.962869 -1.20166 0.259785
20.5783 18.9234 21.4872 1.46805 0.148444 -0.460463
22.8963 19.245 22.9113 1.22982 2.63722 -0.980927
21.1107 17.3415 23.6297 0.693657 0.165974 0.506037
21.798 16.3757 21.1397 0.253136 -0.36761 -0.761747
22.5863 22.0051 23.0262 0.275888 -0.585762 0.285024
21.0614 23.9246 21.991 -0.957351 -0.88493 0.277995
24.2482 20.9217 21.1521 0.150606 0.372296 -0.249507
20.8207 20.1147 24.3486 -0.410859 -0.602907 0.880488
23.5491 23.5426 20.877 1.2588 0.617811 -0.651269
ITEM: TIMESTEP
12000
ITEM: NUMBER OF ATOMS
36
ITEM: BOX BOUNDS ss ss ss
1.6283861348465422e+01 2.4304475312708789e+01
1.6402493917498589e+01 2.3745442859090105e+01
1.6307051197230788e+01 2.4503605758695695e+01
ITEM: ATOMS x y z vx vy vz
17.9684 18.8081 18.2112 -0.977334 0.546056 -0.363924
20.0608 17.3958 16.8679 0.349468 -0.813423 -1.38353
19.7199 16.8875 19.6484 0.139181 0.709367 0.412016
19.5665 20.1473 16.3981 0.0134389 1.07873 0.528002
18.938 21.1444 19.2368 -0.152933 0.52734 1.23678
17.3118 21.1244 16.9917 -0.216858 0.815686 0.013083
16.1869 20.3565 19.4744 1.38329 0.759173 -0.285826
16.6172 22.8775 18.9811 -0.339113 0.06165 -0.949985
19.2911 23.0829 17.5054 -0.928325 -2.10024 -0.961654
22.0085 16.7931 18.5576 1.02654 0.0314509 -0.494878
20.8047 19.1254 18.8086 0.81681 -0.445418 0.904633
23.7688 19.7017 18.1894 -2.09123 -0.590639 -0.927005
22.0751 18.9459 16.3657 0.684623 -0.908356 1.12721
21.274 23.4285 19.3546 -0.192522 0.056629 0.958739
21.5724 21.4913 17.5702 1.07423 -0.020622 -1.06099
23.9552 22.3162 18.9238 -0.446917 -0.768518 0.429313
22.0885 20.9483 20.2885 0.284594 1.97277 -0.886675
23.2108 18.4757 20.5556 -0.420876 -0.145505 1.1094
18.7676 23.6507 20.163 0.669681 -1.57297 0.794175
18.0286 18.9131 21.126 0.735582 -0.543253 -0.531724
19.2786 16.5432 22.1029 -0.0373846 -0.313259 0.14791
18.627 18.6307 23.6317 -0.592568 0.420586 -0.0499994
17.0547 21.7955 21.3438 0.801307 0.0134186 -0.849859
19.8288 21.5466 21.7104 -0.509582 -0.305164 3.14237
18.159 21.1025 23.8382 -1.11726 0.0395046 -0.91017
18.5697 23.5155 22.9745 1.17233 -0.186725 0.594471
20.4972 22.7814 24.3151 -0.812805 -1.3046 -0.346234
20.6716 18.9561 21.5374 -0.46696 -1.84108 1.75461
23.1726 19.2958 22.983 0.818533 0.0526906 -0.136635
21.1028 17.5218 23.8619 -0.200711 0.0194073 -1.48934
21.784 16.4188 21.4559 -0.625765 2.12251 -0.178618
22.5322 21.8814 23.0288 0.134311 0.436349 0.782662
21.0115 24.0443 22.065 1.11312 1.15682 -0.136682
24.5677 20.9605 21.0538 -1.55475 0.179001 -1.68845
20.7659 20.0654 24.0426 0.805669 -0.148564 0.563218
23.3818 23.5463 21.0571 -0.338815 1.00918 -0.866412
ITEM: TIMESTEP
13000
ITEM: NUMBER OF ATOMS
36
ITEM: BOX BOUNDS ss ss ss
1.6283861348465422e+01 2.4304475312708789e+01
1.6402493917498589e+01 2.3745442859090105e+01
1.6307051197230788e+01 2.4503605758695695e+01
ITEM: ATOMS x y z vx vy vz
17.9941 18.7241 17.911 0.0299058 0.958175 0.328333
20.0176 17.4065 16.7304 -1.27982 0.522426 1.52373
19.659 16.8081 19.6222 1.25673 -0.874907 0.0378028
19.7309 20.2475 16.5888 -0.336336 1.10331 0.351592
18.9105 20.8863 19.4078 0.277017 1.81186 0.524424
17.3021 21.1074 16.9829 -1.32427 -0.924902 1.45024
16.3228 19.834 19.278 -0.338494 -1.05709 0.232377
16.9361 22.5193 19.234 1.41593 -1.55946 0.0955771
19.1956 22.9097 17.8565 0.742027 -0.0830187 -0.767169
22.0751 16.9001 18.4957 -2.21953 1.0655 0.83237
20.8395 19.0972 18.7865 -0.00233909 -1.5079 1.04994
23.7023 19.7945 18.3479 0.0543727 1.48516 -0.478076
22.0599 18.9356 16.484 1.95888 1.54829 -0.26932
21.354 23.6327 19.1945 -0.305577 -0.292191 1.63015
21.7999 21.6448 17.5306 0.556481 0.254949 -1.25475
23.9952 22.4019 18.7432 1.01718 0.128579 0.0966825
21.9579 21.2222 20.295 0.522115 0.172907 -1.53363
23.1987 18.3198 20.4622 1.10522 0.785879 -0.272205
18.8598 23.8746 20.4314 0.802724 0.592892 -1.06951
17.9952 18.5727 20.7138 0.138581 -0.575436 0.371547
19.0356 16.6452 22.0673 -1.34708 -0.222943 1.15605
18.6652 19.1272 23.2525 -1.38046 -0.76713 -2.39663
17.2275 21.2631 21.5816 0.651822 -2.61858 0.599482
19.8973 21.6934 22.0189 -0.275654 2.16306 -0.384905
18.2269 21.4576 24.209 -1.0609 -0.961405 0.616963
18.4331 23.6456 22.9922 -0.742014 1.62895 0.205849
20.5344 23.0049 24.3843 0.125414 0.830867 0.254308
20.6534 18.9017 21.4959 0.183682 -1.15017 -1.00538
22.82 19.0879 22.9573 -1.41873 -0.53173 0.0603549
20.8302 17.4618 23.7495 -1.62908 2.52711 -0.241058
21.6096 16.5178 21.3797 0.908426 -1.45537 0.453488
22.7213 21.9998 22.9278 0.441694 -1.2163 -0.791559
21.0271 24.0619 21.9589 0.0623337 -0.10309 0.427655
24.3807 20.7948 20.9852 1.4 0.803528 -0.803685
20.7817 20.2873 24.2559 0.0433178 -0.424528 -0.231617
23.4701 23.4311 20.9076 -0.0335536 -2.05729 -0.799417
ITEM: TIMESTEP
14000
ITEM: NUMBER OF ATOMS
36
ITEM: BOX BOUNDS ss ss ss
1.6283861348465422e+01 2.4304475312708789e+01
1.6402493917498589e+01 2.3745442859090105e+01
1.6307051197230788e+01 2.4503605758695695e+01
ITEM: ATOMS x y z vx vy vz
17.9489 18.4262 17.9831 1.15323 -0.582152 -0.916081
20.1023 17.4795 16.7475 1.00063 1.6889 -1.2268
19.465 16.8798 19.418 0.770454 1.82234 0.753948
19.7149 20.4208 16.5994 -0.6638 -2.91948 -0.775377
18.9105 20.6027 19.4746 -0.0354532 -0.434855 1.34744
17.2952 21.0591 17.3462 -0.941338 2.13992 -0.670211
16.2063 20.1874 19.6388 0.607141 0.211613 -0.0739999
17.0312 22.701 19.0536 1.14767 1.21276 0.586751
19.5436 22.734 17.7998 -0.514734 -0.189277 1.37487
22.0427 16.8842 18.4786 -0.934487 -1.87674 0.383677
21.0139 19.2413 18.5973 -1.17498 0.805846 -0.389664
23.7294 19.5885 18.1243 -2.40507 0.19602 1.30348