ITEM: TIMESTEP
0
ITEM: NUMBER OF ATOMS
36
ITEM: BOX BOUNDS ss ss ss
1.6345691175909863e+01 2.4237348600617839e+01
1.5729759513565291e+01 2.3724021323001505e+01
1.5786498595045128e+01 2.4801765962287444e+01
ITEM: ATOMS x y z vx vy vz
18.0399 19.1295 17.8847 0.836774 -0.719717 1.22524
19.2833 16.9981 19.2052 -1.6179 0.344718 0.458143
22.0607 17.2769 19.0793 0.932836 0.220813 0.907014
23.5611 19.3039 20.1218 1.08606 -0.618064 0.696263
23.0517 19.1955 17.3931 -1.04153 1.98079 -2.83804
20.4891 18.2086 17.0499 -0.951274 -0.101501 -0.318329
20.1249 23.259 19.0277 0.729472 0.434223 -1.15036
19.3292 20.3228 15.7906 -0.164126 0.668064 0.171917
20.2374 22.8275 16.2119 1.01166 -0.325736 -0.148184
18.9931 20.6363 19.9591 1.01135 0.508704 -1.03569
18.1071 21.9146 17.6683 1.18311 0.664169 1.29195
16.3498 20.7844 19.4294 -1.57318 -0.523127 -2.30372
22.3668 23.6892 17.5992 0.0169011 1.53699 -1.76878
23.6758 21.6051 18.6061 0.924299 -0.41185 0.498003
22.6118 21.5119 16.0312 -2.06622 0.1555 -0.382918
20.8887 20.7702 17.9408 1.2227 -0.762001 -1.32032
17.4112 18.5041 20.5964 1.91919 -0.742619 -0.36682
18.6671 16.4739 21.8622 -0.76087 -1.4079 -0.133878
18.4693 18.7464 23.2356 -3.11064 -2.05638 -0.374646
20.5519 18.5751 21.045 0.366034 -0.182387 -0.506873
20.8548 17.387 23.4315 -0.14639 -0.81635 0.397251
23.0097 17.2829 21.7861 -2.11249 -1.71995 1.10085
21.0177 15.7338 21.0327 -0.533532 0.0128739 1.63223
17.0291 20.8534 22.0939 1.13056 0.316651 0.00532232
20.2264 22.6067 24.7095 1.54729 0.911325 0.372094
19.8061 21.0726 22.5575 1.73678 0.399866 0.521959
20.2382 23.6847 21.7113 -1.11831 1.14805 1.0215
18.0792 20.9779 24.7448 2.5253 -0.413716 0.603583
18.0286 23.1722 23.1889 -2.06252 -0.447049 -0.316854
17.7602 22.9819 20.4673 1.51671 -0.402103 0.433396
22.3125 22.5244 22.9839 -1.55789 1.09908 0.376471
22.449 19.764 22.78 -1.51119 -0.778091 0.408639
20.5538 19.7973 24.7977 0.225482 -0.479771 1.21068
22.6911 23.7199 20.3279 -0.837377 0.74727 -1.12929
21.6604 21.2774 20.5379 0.168226 0.0615983 1.26307
24.2333 21.6509 21.3317 1.07471 1.69763 -0.500862
ITEM: TIMESTEP
1000
ITEM: NUMBER OF ATOMS
36
ITEM: BOX BOUNDS ss ss ss
1.6345691175909863e+01 2.4237348600617839e+01
1.5729759513565291e+01 2.3724021323001505e+01
1.5786498595045128e+01 2.4801765962287444e+01
ITEM: ATOMS x y z vx vy vz
17.9179 19.2061 17.8721 0.135677 -1.49914 -1.18961
19.4823 17.3681 18.8966 -1.08619 -0.0500929 0.467222
22.34 17.2229 18.9059 0.414473 -0.974321 0.00692244
23.5568 19.2547 20.2406 0.320494 0.285211 -1.02747
23.1102 19.2013 17.3046 -0.152345 -0.235292 -0.0357386
20.705 18.0665 16.6689 0.316872 1.09898 -1.16584
19.9517 23.3142 19.029 1.70478 1.51955 -0.543469
19.3594 20.3365 15.9636 1.49123 -0.903072 0.90624
20.143 22.6365 16.4781 0.92402 1.21971 0.746078
18.796 20.6691 20.1015 -0.395855 0.786275 -0.312075
17.8682 21.8061 17.8433 -0.935173 -0.94217 -0.222161
16.1871 20.8265 19.5445 -0.74342 0.860869 2.02103
22.2573 23.2016 17.9576 0.763509 0.583258 -1.28086
23.9001 21.3275 18.7303 1.15978 -0.0527003 -0.999406
22.0898 21.1369 16.1466 -1.34454 -0.393809 -0.322254
20.7906 20.218 18.1814 -0.617223 -1.89298 -0.289147
17.2713 18.5637 20.4241 -0.589863 -1.56233 -0.026845
18.8995 16.7152 21.6471 0.288143 1.16209 -1.20372
18.5693 18.924 22.9084 -0.236065 0.222849 0.376651
20.7934 18.6212 20.8988 0.208903 -0.71916 0.388068
20.8916 17.5416 23.3044 1.26319 0.304533 0.678278
23.0811 17.2512 21.8649 -3.04659 0.0775269 0.26719
21.0764 15.8291 20.6327 0.417907 -0.581741 -0.708215
17.07 20.8497 22.0988 -0.458812 -0.865061 0.76621
20.1769 22.7825 24.7573 -1.08726 0.680307 0.691798
19.8359 21.3265 22.5722 -2.09448 1.93353 1.27221
20.2459 23.7072 21.7219 -0.333777 -0.959002 0.359099
18.0821 21.0591 24.5993 0.823655 1.05738 -1.81759
18.119 23.2272 23.217 -0.603236 -0.254988 -0.314582
17.7573 23.054 20.4094 -0.0974404 -0.157557 0.214047
22.3062 22.5182 23.1004 -0.367445 -0.0687706 1.57164
22.4565 19.7205 22.887 0.604961 0.0904617 -0.654174
20.5319 19.9776 24.6912 1.5163 -0.708891 -0.621458
22.7099 23.7778 20.6038 1.10576 0.185254 0.970305
21.7238 21.4041 20.4945 -0.368469 -1.09575 0.758679
24.1664 21.5771 21.5219 1.09853 1.84905 0.27294
ITEM: TIMESTEP
2000
ITEM: NUMBER OF ATOMS
36
ITEM: BOX BOUNDS ss ss ss
1.6345691175909863e+01 2.4237348600617839e+01
1.5729759513565291e+01 2.3724021323001505e+01
1.5786498595045128e+01 2.4801765962287444e+01
ITEM: ATOMS x y z vx vy vz
17.8825 19.1692 17.8004 -0.786348 -0.64282 0.908438
19.2841 17.41 19.3319 0.505779 0.387965 0.246803
21.9246 17.388 19.196 -0.0979917 1.21682 -0.121586
23.7243 19.1626 20.094 0.176928 -1.46876 -0.210095
22.645 19.2997 17.3566 1.08928 -0.633613 0.763234
20.2595 18.247 17.0572 -1.44727 -0.652596 -0.413083
20.112 23.1811 19.3269 1.44785 -0.0537113 0.0397511
19.7864 20.5209 15.633 0.599046 -1.0331 1.2116
20.212 23.1009 16.5998 -0.303143 1.40908 -0.312265
18.883 20.0701 19.9531 -0.340921 0.145354 0.792904
18.1839 21.7009 17.6575 0.330515 1.19833 0.941698
16.3157 20.639 19.428 -0.813946 0.145171 -0.92459
22.3683 23.4223 18.008 -0.767085 0.690927 -0.192429
23.9227 21.3682 18.4898 0.260585 0.0406839 -0.0434689
22.31 21.6343 16.1521 1.42394 0.863639 0.506316
20.7775 20.7311 18.1055 -0.423515 1.59306 -0.520289
16.9988 18.4513 20.7485 -1.78466 -2.2502 1.7722
18.8002 16.6411 21.781 0.245416 -0.80318 1.44618
18.4449 18.7826 23.1741 -0.364134 -0.804027 -1.60568
20.8612 18.6138 21.3387 0.452428 -1.50555 0.465266
20.9281 17.4154 23.5525 -0.89972 -0.105086 0.238526
23.1998 16.9974 21.6962 0.785535 -0.409879 -0.524506
21.1135 15.8575 21.1112 1.11585 1.29274 -0.442987
16.948 20.8498 22.0438 -1.16343 -1.55548 -1.41279
19.9606 22.9423 24.4129 1.1332 -0.15693 -0.774559
19.5786 21.3338 22.1206 -0.97946 -0.125029 -2.1577
20.3013 23.9626 21.9991 -0.257007 0.899163 0.443936
18.064 21.0458 24.4889 -0.540558 0.308727 0.651184
17.9082 23.1828 22.9333 0.719521 0.256893 -1.05907
17.8442 22.8376 20.2561 0.14128 1.03684 0.471329
22.1006 22.3695 23.0636 0.0657637 0.543185 1.48104
23.0244 19.4722 22.6827 -1.00343 0.341047 0.369315
20.7518 19.9946 24.1854 0.461302 0.180496 0.574623
22.5933 23.6409 20.6754 1.07787 -0.519953 -0.69232
21.8332 21.1287 20.4484 0.0707108 0.472914 -0.416537
24.3738 21.6551 21.3178 -0.130193 -0.303129 -1.50039
ITEM: TIMESTEP
3000
ITEM: NUMBER OF ATOMS
36
ITEM: BOX BOUNDS ss ss ss
1.6282968319776515e+01 2.4224466366926134e+01
1.5801684316892366e+01 2.3911532894145381e+01
1.6080786729831498e+01 2.4618412374310594e+01
ITEM: ATOMS x y z vx vy vz
17.9415 19.1265 17.8351 -0.693532 0.613769 -1.20646
19.3025 17.3426 19.1913 0.9269 -0.463237 0.780253
22.2359 17.2411 18.9823 -0.0591689 0.086651 0.0151238
23.729 19.2934 20.1025 1.41371 0.900605 -0.64539
23.1935 19.2007 17.4856 -0.3355 -0.629278 1.02583
20.6308 18.3351 17.1662 -1.0307 -0.283055 -1.48785
20.0579 22.9349 19.3476 0.50453 -1.4503 -0.659208
19.4101 20.3364 16.044 0.402759 0.188906 -1.7401
20.1673 22.679 16.7346 -0.19318 -1.065 0.17338
18.7554 20.399 20.1446 -1.35935 -0.114151 2.3207
17.8686 21.95 17.8935 -6.29426e-05 1.11784 0.16245
16.1685 20.6007 19.4587 1.96679 -0.238154 0.11907
17.4211 22.7352 20.4306 -0.964807 0.859724 0.187282
22.2743 23.3786 17.9549 0.795268 -0.30392 0.167323
23.7984 21.5397 18.7274 -1.07178 0.301775 -1.18301
22.1422 21.1206 16.231 0.247928 -0.32092 -1.26543
20.932 20.5233 18.4029 0.44726 -0.845036 -1.23634
17.1242 18.3602 20.5665 -1.0557 -1.43834 -1.06476
18.7983 16.6914 21.707 0.881576 -0.165431 0.666063
18.6525 19.0744 22.634 -0.409285 -0.721877 0.889425
20.7649 18.6475 20.9319 -0.229716 -0.0824151 0.436027
21.1516 17.4077 23.1401 -1.75697 -0.191534 0.815972
23.0405 17.1104 21.6021 0.212788 0.815582 -1.2685
20.9914 15.8454 20.8457 -0.357078 1.16179 -1.18871
22.7481 19.5279 22.7083 -0.823124 -0.291136 1.25795
16.7178 20.8665 22.0364 -0.271144 -0.26429 0.43932
20.1916 22.7921 24.3893 0.0680004 0.0677323 0.377895
19.686 21.675 22.2102 0.165768 1.54633 -0.0493571
17.9801 21.1218 24.3135 0.310262 -0.815162 0.353134
17.8585 23.4192 23.0418 1.2188 -0.827012 0.431782
20.5128 24.0988 21.7562 -0.248322 1.40559 0.55297
22.3965 22.2356 23.2237 -2.68175 1.59686 -1.49169
20.5811 20.1553 24.1568 0.137856 0.214821 1.64395
22.8181 23.7524 20.5543 0.791691 -1.18233 1.33661
21.8472 21.2951 20.6996 2.52711 0.818518 -0.00437077
24.3296 21.4068 21.5699 0.522175 -0.00392448 0.338674
ITEM: TIMESTEP
4000
ITEM: NUMBER OF ATOMS
36
ITEM: BOX BOUNDS ss ss ss
1.6282968319776515e+01 2.4224466366926134e+01
1.5801684316892366e+01 2.3911532894145381e+01
1.6080786729831498e+01 2.4618412374310594e+01
ITEM: ATOMS x y z vx vy vz
17.8666 19.2706 17.682 -0.453372 -1.45916 2.78935
19.2426 17.3843 19.3785 -0.336924 -1.85426 0.529757
21.9955 17.228 19.1818 -0.00742573 1.06481 -2.79004
23.6417 19.2576 20.0156 0.410728 -1.15946 0.000738038
22.8907 18.7042 17.3401 -0.767804 0.242738 0.0647263
20.2593 18.3248 17.2026 0.223245 -1.78336 -1.50301
20.0933 23.2479 19.3167 0.54044 1.73137 -0.0347365
19.4951 20.5211 15.9002 0.830679 -1.32162 0.392646
20.5174 22.7702 16.6313 0.408857 0.700932 -1.27077
18.9497 20.4112 19.9475 1.16814 -0.838176 0.0130789
18.331 21.9388 17.8642 -0.892361 -0.5734 0.364361
16.3304 20.7279 19.3842 -0.925924 0.677437 0.670964
17.6967 22.916 20.5631 1.90012 0.48391 0.217519
22.4839 23.1286 18.2696 1.38189 0.0133475 1.13429
23.9915 21.1353 18.4039 0.450864 1.17039 0.302022
22.4277 20.9959 16.1948 -0.806187 0.275998 -0.427554
21.0094 20.3994 18.2333 1.40907 0.163966 1.59763
17.2801 18.3835 20.5045 1.00789 1.3428 2.12614
18.7302 16.4972 21.9145 0.317434 -0.478682 -1.97559
18.613 18.8443 22.8589 -0.152779 -0.162446 -1.05346
20.8288 18.8358 21.1299 -0.767184 -0.821406 -0.720766
21.0108 17.4462 23.2032 -0.0385754 -0.671331 0.110792
23.0657 17.3238 21.6485 -0.880092 -0.769401 1.03441
20.84 15.8059 20.9001 -0.544087 -0.502499 0.909185
22.9783 19.8917 22.4491 -0.23992 0.909345 -0.575194
16.8306 20.7403 22.0216 -1.24864 -1.137 -0.755871
19.9548 22.89 24.4494 -0.931547 -0.230691 1.04323
19.5235 21.4206 22.216 -1.16401 0.634881 0.180561
18.3743 20.9225 24.5307 0.203356 -0.418667 -0.905855
17.5749 23.1477 23.072 -0.142387 0.502163 -0.366519
19.8985 24.0197 22.0826 -0.0532313 2.17508 0.176656
22.1675 22.3852 23.1222 1.45434 -0.653907 1.579
20.8635 20.0651 24.0613 -0.38405 0.570207 -0.714577
22.4304 23.9111 20.9629 -0.676513 -0.813446 -0.558621
21.8415 21.4118 20.4813 0.0378059 2.09182 -0.590658
24.1914 21.9158 21.1018 -0.331854 0.897704 -0.993841
ITEM: TIMESTEP
5000
ITEM: NUMBER OF ATOMS
36
ITEM: BOX BOUNDS ss ss ss
1.6291780195848098e+01 2.4200565549181579e+01
1.5932289686931153e+01 2.4171991777416650e+01
1.5939088476567013e+01 2.4677978838625446e+01
ITEM: ATOMS x y z vx vy vz
17.952 19.3306 17.5526 -0.0415305 -0.949843 -0.762238
19.0143 17.6007 19.1116 0.714501 0.542158 -0.522681
21.7708 17.3105 18.8457 0.614503 -1.1523 -0.675674
23.2878 19.3646 19.8079 1.20734 0.352994 0.238318
23.2714 18.8219 17.0518 1.70608 -1.03481 -0.82324
20.4736 18.2317 16.6589 -1.44854 -0.203245 0.318805
20.0314 23.0652 19.7435 0.300089 -0.55935 -0.652816
19.4478 20.5666 15.9078 -1.74936 0.330497 0.457791
18.973 20.424 19.9703 -0.863311 -1.76599 -0.815259
18.1028 21.9067 18.0111 -0.937869 -0.696133 0.378828
16.2418 20.5984 19.3496 0.636988 0.834808 0.104567
20.497 22.6277 17.1557 0.477182 2.00164 0.0476369
22.7376 22.4944 18.6879 0.890201 0.409938 0.842438
24.5503 20.8759 18.0834 -1.28422 0.662525 1.31419
22.3369 21.0661 16.2514 -0.272953 -1.01863 1.26972
21.0355 20.1843 18.3352 -0.445688 1.03697 0.16003
17.1314 18.5842 20.9028 0.229407 0.154369 1.45857
18.8693 16.6842 21.6282 -0.10711 0.14913 -0.0786903
18.9441 18.975 23.0622 0.648874 -1.25573 0.314402
20.8185 18.5512 20.9772 -0.622807 -0.14969 -0.52757
21.2328 17.5927 23.3703 0.691709 -0.232853 -0.494279
23.263 17.4283 21.6305 0.25209 -0.266548 -0.331658
21.1724 15.8629 21.1481 -0.248352 -0.607609 0.0730364
22.9623 19.7609 22.6044 -0.212025 1.36703 -0.799302
17.3316 22.9002 20.3976 1.56508 1.71241 -1.09839
16.7894 20.8964 22.083 0.292265 0.691903 -0.0303697
19.7034 22.8839 24.5627 1.10115 1.43359 -0.708673
19.4135 21.5176 22.2545 -1.1448 -1.2098 -0.0842898
17.9878 20.9551 24.3821 -0.431291 -0.159277 0.75474
17.4761 23.4135 22.8788 0.128879 0.138397 -0.15215
20.1185 24.0547 22.2018 -0.821307 -0.720079 0.0438064
22.1225 22.6339 23.0417 -1.51075 1.44539 0.21865
20.9644 20.3096 24.1175 -0.470132 -0.540551 -0.736496
22.3572 23.9003 20.8528 0.646497 0.738194 -0.0903695
21.6795 21.1686 20.8475 1.52648 -0.832226 0.746057
24.1584 21.6778 20.7515 -1.01727 -0.647265 0.642563
ITEM: TIMESTEP
6000
ITEM: NUMBER OF ATOMS
36
ITEM: BOX BOUNDS ss ss ss
1.6291780195848098e+01 2.4200565549181579e+01
1.5932289686931153e+01 2.4171991777416650e+01
1.5939088476567013e+01 2.4677978838625446e+01
ITEM: ATOMS x y z vx vy vz
18.0542 19.0987 17.5341 1.0013 0.484012 -0.457349
19.138 17.3527 19.242 -0.257343 0.191872 0.249409
21.8555 17.4448 19.0402 -1.56017 0.665924 0.21797
23.5905 19.3212 20.038 -0.495202 -1.22738 0.373967
22.9515 18.7862 17.1229 0.427574 -0.667451 0.113081
20.3977 17.8784 16.919 -0.384839 0.724751 -0.131035
20.0599 23.0849 19.3759 -0.662577 -0.842901 -1.15386
19.8227 20.3153 15.8198 -1.17889 -1.13732 0.891997
18.902 20.4789 19.881 -0.812286 1.41703 0.621615
18.362 21.7447 17.5838 1.15874 1.01285 -0.27326
16.4024 20.5526 19.4408 -0.601071 -0.641307 0.28164
20.3856 22.93 16.6419 1.89376 0.462016 0.571477
22.577 23.0546 18.4013 -1.1619 0.153453 -1.10338
23.9872 20.9809 18.163 0.484454 0.229454 0.46261
22.4701 21.4382 16.1269 0.612389 -0.707104 0.890083
20.9697 20.2407 18.1246 -0.183922 0.0954452 0.135081
17.3025 18.6203 20.6162 1.16028 -0.166261 -0.341771
18.7681 16.6045 21.8035 -1.35061 0.662726 0.146156
18.3489 18.715 23.2256 0.503415 1.39665 -1.22988
20.5254 18.7868 21.1656 1.5733 0.819781 1.04035
20.85 17.5094 23.4197 1.91093 1.01649 1.5197
22.8573 17.5389 21.7482 -0.888712 0.644878 -0.74323
20.9696 15.9367 21.0702 2.44522 -1.07237 -3.06479
22.7668 20.0218 22.4304 1.13474 0.258034 -1.26046
17.8197 22.8405 20.6388 -0.34951 -0.463007 0.881719
16.8956 20.817 22.1774 -0.0821813 -0.999464 1.97317
20.0274 22.6031 24.8115 -0.0684802 -0.5057 -0.791587
19.6851 21.3251 22.3331 -0.976941 -0.535079 0.179019
18.0491 20.8261 24.5617 -1.44288 -0.58089 -0.145937
17.968 23.1506 23.2902 -0.393786 1.25284 0.57357
20.223 24.0028 22.2003 0.338681 -0.670007 -1.81703
22.254 22.59 23.0312 0.395432 0.685056 0.377134
20.6499 19.9799 24.2811 -1.30813 -0.830242 1.14231
22.339 24.0545 20.7556 1.53238 -0.101959 -0.431649
21.8225 21.4781 20.4471 -0.819477 -0.494186 -0.257325
24.172 22.1161 20.7574 -1.59369 -0.530638 0.560486
ITEM: TIMESTEP
7000
ITEM: NUMBER OF ATOMS
36
ITEM: BOX BOUNDS ss ss ss
1.6291780195848098e+01 2.4200565549181579e+01
1.5932289686931153e+01 2.4171991777416650e+01
1.5939088476567013e+01 2.4677978838625446e+01
ITEM: ATOMS x y z vx vy vz
18.3385 19.1619 17.9239 -0.227702 -0.810926 1.00171
19.2478 16.8746 19.2328 -0.523863 0.4705 1.22877
21.855 17.2843 18.9579 -0.371988 0.207039 1.25351
23.3834 19.3149 19.9872 1.05153 -0.718167 -0.269942
23.1149 18.7001 17.0441 1.10275 -0.057874 -1.61508
20.432 17.9691 16.9428 0.124299 -0.310273 0.924578
19.8112 23.4006 19.4737 0.478716 0.294883 0.899881
19.6747 20.4077 15.9025 0.638229 -1.41369 -1.31357
18.9225 20.8306 19.9186 -0.710806 1.36154 -0.641179
18.186 22.0461 17.6876 1.41784 0.295044 -1.70201
16.3198 20.8044 19.3964 -0.555777 -0.374332 0.721023
20.5666 22.6332 17.0985 -0.701416 1.49213 1.99089
22.6586 23.1221 18.5753 0.809947 0.180823 -0.74172
23.9988 21.0402 17.9696 -0.0999091 -1.19313 -0.397516
22.4105 21.0496 16.0676 -0.0753297 -0.922859 -0.569912
21.2092 20.0884 18.3725 -0.420774 0.107601 -0.622335
17.4591 18.4438 20.3492 -0.1654 -1.22347 0.888944
18.8725 16.5388 21.8856 -0.303573 0.224455 -0.135609
18.4833 18.9393 22.9182 -1.54038 2.14243 -0.635059
20.5551 18.6434 20.9868 -0.163551 2.87499 0.231548
20.993 17.6947 23.3121 -0.54548 -0.419322 -1.10143
23.0955 17.3563 21.6606 0.12018 0.00153458 0.534125
21.0389 15.9447 21.0651 2.35537 -0.556891 -1.02864
22.6021 19.9606 22.5835 -1.49652 -1.51368 -0.323896
17.4512 22.9587 20.7042 0.727295 -0.462011 0.326594
16.691 20.8451 21.8653 0.282901 0.930675 1.17334
19.9857 22.6755 24.5357 0.218346 1.18439 -0.702179
19.6491 21.3403 22.327 -0.128564 -0.0253075 -0.229855
17.9898 20.7942 24.5712 0.82578 -1.05255 -0.321567
17.8324 23.1136 23.4361 -0.587621 -1.33727 -0.406658
19.9969 24.0483 22.0061 0.120903 1.04681 0.213093
22.2042 22.5996 23.072 0.276632 -1.25922 -0.642008
20.7636 20.1664 24.5384 0.011358 -2.00018 0.165259
22.695 24.0361 20.9063 -0.597913 1.08179 0.604752
21.5897 21.6197 20.5099 -0.629606 0.288136 0.74885
24.1426 21.7733 20.4357 -0.715911 1.46639 0.493312
ITEM: TIMESTEP
8000
ITEM: NUMBER OF ATOMS
36
ITEM: BOX BOUNDS ss ss ss
1.6458827444900450e+01 2.3967422938642333e+01
1.5990929301502346e+01 2.4259813682907559e+01
1.5894127773041518e+01 2.4689912387394372e+01
ITEM: ATOMS x y z vx vy vz
18.0439 19.3521 17.825 -0.382006 -3.02364 -0.431137
19.4956 17.1191 18.9079 0.410075 -0.876173 -0.502541
22.1274 17.1544 19.0899 0.0328223 0.428082 0.5842
23.3778 19.4139 19.8528 -0.135636 0.704748 -1.16372
23.4495 18.558 17.3691 -1.27823 2.09232 -1.4143
20.6894 17.9322 16.6031 -1.50027 -0.690113 1.54682
20.8844 19.6106 18.4871 1.69172 -0.609808 -1.45868
19.9178 23.7132 19.3401 -0.258259 0.0197502 -0.802709
19.4778 20.6083 16.0715 -1.50429 -0.232426 1.24576
18.8884 20.9411 19.9362 -1.04788 -0.341425 0.621412
18.2331 22.3858 17.7575 0.833089 0.301744 1.6217
16.3725 20.8815 19.3315 -0.21046 1.41851 -0.881537
20.9079 22.3013 17.3941 -0.290177 0.734784 -0.380884
22.5182 23.9101 18.6644 -0.111968 -0.826614 1.7154
23.3151 21.3903 17.8832 1.61667 0.176577 -0.599079
22.1314 20.0622 16.0217 1.73042 0.254257 0.990081
17.706 18.7003 20.3902 -0.369538 1.39342 -1.20816
18.8429 16.7351 21.6047 -1.37031 -1.43253 -0.0563182
18.4073 18.8637 23.382 0.836183 0.279 0.182956
20.474 18.6912 21.0198 0.956978 0.236329 -0.750336
20.8804 17.4721 23.3175 -1.05582 -2.06493 -0.613049
23.1289 17.3228 21.6723 -2.13117 1.00415 -0.700801
21.1853 15.7735 21.1786 0.380502 -0.149871 1.83204
22.7582 19.8814 22.4654 1.18598 -1.59524 1.91517
20.8858 20.0106 24.4772 1.26332 -0.0216261 0.0914575
17.4738 23.1226 20.2617 1.46014 0.236503 -0.331549
16.7743 20.8239 21.9149 1.53017 -0.134971 0.81804
20.1416 22.8477 24.4783 -0.321683 1.03689 -0.30577
19.6876 21.028 22.4483 -0.316115 -0.452135 0.651698
18.2462 21.0699 24.6989 0.968381 -0.523878 -0.658581
17.6622 22.9073 23.1614 0.410745 1.33172 -1.97133
19.8265 23.7808 21.9611 -0.889099 -0.00170689 -0.5161
22.2462 22.2755 23.0402 -0.272421 -0.270991 0.0296263
22.6184 24.0579 21.1108 -1.26113 1.07881 0.329927
21.4848 21.7348 20.3884 -0.816904 -0.870158 1.18109
23.9592 21.787 20.7134 0.216164 1.39064 -0.610801
ITEM: TIMESTEP
9000
ITEM: NUMBER OF ATOMS
36
ITEM: BOX BOUNDS ss ss ss
1.6458827444900450e+01 2.3967422938642333e+01
1.5990929301502346e+01 2.4259813682907559e+01
1.5894127773041518e+01 2.4689912387394372e+01
ITEM: ATOMS x y z vx vy vz
18.0692 19.1694 17.8378 -2.80147 -0.822299 -0.179474
19.4482 17.3235 18.999 0.911379 2.25472 0.849056
22.1657 17.1649 19.0314 0.825695 2.22392 2.40847
23.259 19.5085 19.9866 1.47188 -0.186623 0.0349225
23.3688 18.5021 17.1408 -1.57597 1.47042 -0.743756
20.6708 17.995 16.627 0.0897834 -1.2307 -0.54449
21.2109 19.6028 18.4239 -1.93545 0.993788 -1.01766
20.1332 23.8487 19.3372 2.39275 -2.24447 -0.947834
19.409 20.4893 16.0819 -1.16751 -1.48103 -0.757193
19.0988 20.7503 19.6954 0.800026 0.0280195 0.545484
18.308 22.2244 17.8154 -1.8507 -0.963213 1.60596
16.4969 20.9191 19.3615 1.3531 -0.396259 -0.288951
20.9156 22.2165 17.4496 0.663298 -0.107632 0.592233
22.7609 23.6423 18.6756 -1.12095 1.89472 0.468648
23.3553 21.1418 17.9046 1.34893 0.382412 2.94808
21.8471 20.1263 15.7297 0.119193 0.390451 -1.30098
17.3998 18.6564 20.4374 1.06839 1.6295 0.587878
18.8805 16.5459 21.6637 -1.87418 0.89362 -0.62013
18.5815 18.7475 22.8697 0.0461944 -1.11252 -1.34244
20.6137 18.6372 21.0047 -1.63865 -1.21688 -1.07422
21.0761 17.702 23.4196 1.50466 -0.0824456 0.407773
23.1737 17.2793 21.6416 1.08773 -0.386004 1.14273
21.1412 15.8284 21.1551 -1.82708 0.158625 -0.232033
22.5857 19.9013 22.5871 0.271949 0.137716 0.375009
20.5034 20.1935 24.4953 0.628977 0.795607 -0.567407
17.7287 23.0787 20.6499 -0.205884 -0.294266 -1.03872
16.8653 20.9225 21.9508 -0.913533 -0.0451666 -0.881308
20.0005 22.9816 24.5323 0.162095 -0.498089 -0.378926
19.599 21.2756 22.3055 -1.49724 0.46433 -0.579537
18.1205 20.8089 24.6718 0.332201 -1.07874 0.674357
17.6801 23.0628 23.4751 0.5811 -0.479035 0.0607403
19.7686 23.9446 22.0256 -0.481094 0.808331 -1.53751
22.0832 22.2596 23.2493 1.11047 -0.859509 0.591396
22.3017 24.0054 21.2799 -0.894208 1.09295 0.384239
21.5237 21.7128 20.3393 2.9309 -1.39128 0.672607
24.0758 22.0511 20.3691 0.0832171 -0.742968 -0.316996
ITEM: TIMESTEP
10000
ITEM: NUMBER OF ATOMS
36
ITEM: BOX BOUNDS ss ss ss
1.6458827444900450e+01 2.3967422938642333e+01
1.5990929301502346e+01 2.4259813682907559e+01
1.5894127773041518e+01 2.4689912387394372e+01
ITEM: ATOMS x y z vx vy vz
17.9841 19.0819 17.8259 -1.08433 -0.322948 0.898837
19.4592 17.0602 18.9711 -0.828547 -1.24489 -1.1115
22.1553 16.9554 19.0717 -0.667949 -0.26259 0.678584
23.5527 19.1631 19.8557 -0.596767 -0.637957 -1.22673
23.2383 18.4673 17.1516 -1.02893 0.142873 -0.592182
20.5221 17.9442 16.5807 0.836053 -1.32968 -0.997586
20.9199 19.6964 18.3021 -0.307617 1.02314 -1.15261
20.0937 23.7909 19.7326 0.944549 -2.40904 -1.53224
19.3057 20.5007 16.094 -2.30274 1.51639 -0.105432
18.9018 20.3634 20.0921 0.838198 -2.33678 -0.571463
18.5631 22.0276 18.0301 1.5466 -0.78848 1.57266
16.5392 20.9145 19.3572 -0.246052 3.40211 0.812854
20.9821 22.2883 17.3866 -0.00422231 2.45048 0.066469
22.8227 23.7885 18.872 -1.22093 0.280596 -0.748036
23.3836 21.2314 18.1125 2.12001 0.760626 1.24528
21.8544 20.2194 15.7866 -0.655086 0.317551 1.59897
17.3031 18.3499 20.1381 1.00591 0.348813 -0.636509
18.6668 16.7642 21.6158 1.02625 -0.0531349 -0.556329
18.8385 18.993 22.7753 -0.318125 -1.2073 0.643707
20.9901 18.7319 20.8502 0.40336 0.46928 -0.344262
21.0688 17.7302 23.3269 0.624798 1.82169 0.686506
23.2021 17.3756 21.7074 0.447393 -1.05343 2.11991
21.186 15.8809 21.2177 -0.654535 0.145349 0.340274
22.7476 19.7664 22.4592 -1.29088 -0.957354 -1.52292
20.8511 20.2689 24.27 0.247363 1.50516 1.4438
17.7587 23.1071 20.5654 0.4335 -1.33022 -0.789526
16.8615 20.8345 21.9497 0.800318 -1.1202 -0.746562
19.8389 22.8718 24.6486 -0.782355 -0.441747 -0.505267
19.5937 21.5886 22.3094 1.0091 0.53181 0.431187
17.9339 21.0387 24.5087 0.447458 -0.690818 0.000846129
17.5462 23.2191 23.291 -0.715746 0.0622979 -1.68088
19.7112 24.2453 22.3738 -0.546348 0.66276 0.606803
21.9399 22.3828 22.8775 0.919033 1.39859 -0.648934
22.2343 24.1196 21.1802 0.054506 -1.85554 -0.260654
21.6333 21.4694 20.3646 -1.12232 0.607765 1.07595
24.0365 21.9887 20.5682 0.669081 0.594816 1.50699
ITEM: TIMESTEP
11000
ITEM: NUMBER OF ATOMS
36
ITEM: BOX BOUNDS ss ss ss
1.6344763079864894e+01 2.3884124916781225e+01
1.5807703649653439e+01 2.4224274581262026e+01
1.5814189319301589e+01 2.4579085110040534e+01
ITEM: ATOMS x y z vx vy vz
18.0411 19.2674 17.8192 -0.677141 -0.442836 1.47648
19.5885 17.4794 19.158 0.617567 2.12531 -0.383413
22.081 17.4018 19.1492 -0.539933 1.01362 0.861638
23.1804 19.6887 19.9195 0.775546 0.00742881 -1.60767
23.2612 18.6701 17.2085 -2.53737 -0.274863 -0.212614
20.559 18.0046 16.6907 0.984787 -0.0727201 -0.483922
21.0943 20.0358 18.2062 0.459683 -0.0359701 -0.792675
20.3558 24.1171 19.2112 -0.688515 1.44212 -0.525102
19.383 20.3957 16.0585 -0.146002 -2.04824 1.57063
18.9593 20.2584 20.0224 1.05051 -0.953595 0.881969
18.8053 22.103 18.0729 0.511652 -0.161656 -0.639247
16.5679 20.9733 19.1769 0.78492 1.13025 1.30159
21.1689 22.4159 16.705 -0.327663 0.840795 0.0947648
22.8607 23.1682 18.6305 -0.879424 0.929079 0.730378
23.5124 21.2057 17.2927 -0.705669 1.06334 -0.400787
21.872 20.0995 15.4954 0.667783 -1.11482 -0.596021
17.1218 18.5609 20.6759 0.472518 -1.08588 -1.62057
18.9163 16.8558 21.9647 1.03138 -1.06653 -0.508974
18.368 18.6481 23.3575 -0.0975967 0.756845 -0.136373
20.7454 18.7257 21.1421 -1.15483 -0.525787 -1.74885
21.1676 17.6132 23.4332 -0.361668 -0.376756 -0.19218
23.2907 17.2868 21.5174 1.5459 -1.2597 1.42889
21.182 15.9769 21.0849 -0.961716 -1.21093 0.273682
22.7305 19.8986 22.526 0.236069 0.104777 0.471757
20.6144 19.9788 24.4836 0.813716 -1.72718 0.572231
18.1171 22.7456 20.6509 -1.77496 0.867837 -0.79649
16.674 20.7612 21.975 -0.686876 2.17096 -0.73412
19.7868 22.6139 24.6545 -1.18821 0.611816 -0.917367
19.4809 21.1698 22.5437 1.43455 0.837545 -0.0774862
17.8946 20.7978 24.6377 0.638884 -0.493016 0.324755
17.6169 23.0413 23.2329 -1.00955 0.623989 -0.616446
19.9373 24.0582 22.1411 -0.796225 -0.542191 0.143002
21.9754 22.2765 23.0397 -0.936338 0.980401 0.480437
22.2363 24.1386 20.8795 1.60506 -0.759119 0.12608
21.157 21.7954 20.3959 1.7728 -1.19134 3.11691
23.9163 21.9923 21.067 0.0663561 -0.162982 -0.864883
ITEM: TIMESTEP
12000
ITEM: NUMBER OF ATOMS
36
ITEM: BOX BOUNDS ss ss ss
1.6344763079864894e+01 2.3884124916781225e+01
1.5807703649653439e+01 2.4224274581262026e+01
1.5814189319301589e+01 2.4579085110040534e+01
ITEM: ATOMS x y z vx vy vz
18.2151 19.1891 17.7544 0.921508 0.580435 1.17441
19.5994 17.137 19.1502 -0.537342 -0.693291 -0.206991
22.181 16.9057 18.9783 0.327934 -0.38827 -0.673104
23.3861 19.2281 19.8184 -0.863491 -1.6628 0.56053
23.0028 18.33 17.1042 -1.30921 -0.746538 -0.285774
20.5535 18.1574 16.5064 1.06739 -0.228097 1.46382
21.093 19.8084 18.3189 -0.295088 -0.272213 -0.19764
19.9555 23.593 19.7956 1.09618 0.923589 -0.859521
19.5242 20.5938 16.2028 -1.28439 -0.181817 -0.29844
19.0488 20.5096 19.9874 0.31684 0.0695272 -0.870116
18.2709 22.153 17.9143 -0.125709 -0.620239 -1.68143
16.4616 20.6856 19.2293 1.97306 0.582947 -0.538948
20.9751 22.3774 17.3464 -0.240431 -0.735567 0.0917637
22.7203 23.5231 18.8653 -1.79863 1.19691 1.09921
23.6008 21.1951 18.037 0.0110064 1.15185 -1.55387
22.1205 20.4561 15.9845 1.63413 0.228567 -0.798211
17.3951 18.4055 20.4376 -0.0240481 1.38292 0.647078
18.7439 16.8309 21.9642 0.153066 -1.06149 -0.686813
18.8577 19.2043 22.9547 -0.256715 -0.731527 0.911347
20.8872 18.6139 20.9643 -2.23213 -0.685995 -0.190002
21.1317 17.7003 23.3565 0.0281301 -2.33439 -0.321778
23.1877 17.0505 21.6062 0.840443 -0.409369 -0.58064
20.9955 15.7054 21.042 0.378523 1.04114 0.0608768
22.9327 19.7824 22.3113 0.260455 0.246876 0.32922
20.999 20.3056 24.0842 -0.0160702 0.0850598 -0.887666
17.3692 22.8092 20.385 -0.868659 -0.82949 0.27695
16.7673 20.5893 21.9415 -2.40214 -1.94206 1.20818
19.9039 22.8017 24.6591 -0.196986 1.98812 0.0083227
19.3693 21.8449 22.2516 3.71774 0.66415 -0.42783
18.1062 21.2046 24.4824 0.436439 -0.557368 0.0539703
17.3619 23.279 23.1529 -0.728802 2.42318 -0.404378
19.8137 24.4645 22.4414 -0.539942 -0.654645 -0.22335
22.054 22.306 22.9286 0.368942 0.299061 2.64575
21.9779 24.1004 21.2242 0.342115 0.197429 0.507418
21.5031 21.4486 20.4816 -0.440683 1.79286 0.444681
24.1544 21.9306 20.5574 0.286562 -0.119463 0.202985
ITEM: TIMESTEP
13000
ITEM: NUMBER OF ATOMS
36
ITEM: BOX BOUNDS ss ss ss
1.6344763079864894e+01 2.3884124916781225e+01
1.5807703649653439e+01 2.4224274581262026e+01
1.5814189319301589e+01 2.4579085110040534e+01
ITEM: ATOMS x y z vx vy vz
18.0668 19.1898 17.6952 0.325856 1.48816 -2.73869
19.3874 17.3588 19.0425 -0.610592 -1.31933 -0.186584
22.0083 16.9789 18.7565 -1.78563 -0.869613 -0.27648
23.3058 19.2797 19.6419 0.153885 -1.45692 -0.60522
23.395 18.5718 16.927 2.46188 -0.218979 1.51681
20.9706 17.7107 16.4417 -3.57282 0.523838 0.482583
20.9468 19.5521 18.1598 -1.27647 -0.653096 0.967384
19.9219 23.4191 19.7881 0.503983 -1.56592 -0.980741
19.7617 20.3169 15.9794 -0.0691422 0.92259 0.0839974
18.8922 20.5611 19.826 -1.43851 -0.0640131 -2.26153
18.2134 22.0597 17.8657 0.153608 -1.10569 -0.893219
16.3666 20.7446 19.415 0.602136 -1.10038 0.33888
20.912 22.1706 17.5605 -0.878811 -0.984829 1.95658
22.6575 23.5778 19.1713 0.0417001 0.0463382 -0.357922
23.3371 21.1898 18.005 2.49103 0.010196 0.840602
22.106 20.3692 15.632 0.89283 1.8354 1.01786
17.2968 18.5698 20.4976 -0.220445 -0.91323 -0.63358
18.925 16.7601 21.7439 1.34909 -1.03809 0.150536
18.913 18.9996 23.0635 -0.315668 -0.153337 -0.971032
20.7359 18.8065 20.9637 -0.917398 -1.10463 0.826572
21.0768 17.5805 23.3515 0.231836 0.698592 0.532066
22.9869 17.3674 21.4529 0.89739 0.395929 -0.391144
21.0503 15.9109 20.8772 0.824251 0.7983 -0.156514
22.6189 19.7779 22.5497 1.35396 -0.160378 0.466305
20.8312 20.6101 24.2843 -0.11669 -0.605515 -0.340653
17.2404 22.9343 20.4793 0.979625 0.00929507 0.249873
17.1767 20.7273 22.0563 -2.23873 -1.47602 -0.69244
20.209 23.445 24.2249 -1.63277 0.925329 0.947231
19.7111 21.7555 22.1345 2.40508 1.97378 -0.889736
18.3668 21.1816 24.554 -0.116678 0.618837 1.72434
17.5153 23.106 23.2637 0.864465 1.49557 1.03988
19.2306 24.4718 21.9449 -0.241188 1.19737 1.85706
22.5638 22.303 23.7555 1.03716 0.902782 -1.73917
21.8754 23.6953 21.7995 -0.246848 0.47862 0.470276
21.662 21.3312 20.3555 -0.670723 0.93337 0.352728
23.9847 21.8356 20.96 -1.22065 -0.464317 -1.70691
ITEM: TIMESTEP
14000
ITEM: NUMBER OF ATOMS
36
ITEM: BOX BOUNDS ss ss ss
1.6331616302738393e+01 2.4024690362878122e+01
1.5571317249226539e+01 2.4682194799358300e+01
1.5671460210851611e+01 2.4483092643892324e+01
ITEM: ATOMS x y z vx vy vz
17.5673 19.0809 17.8183 -1.01959 0.0398572 1.27996
19.4089 17.4075 19.0317 0.422109 -0.23769 -0.102022
22.2437 17.146 18.8469 -0.498534 -0.587737 0.168537
23.8393 19.3725 19.76 1.32965 0.718943 1.08098
23.5741 18.6361 17.1115 0.520019 -0.546603 0.387715
20.8385 17.8658 16.6047 -0.873168 2.38785 -1.83842
21.1179 19.6358 18.4404 1.82911 -0.425752 2.29945
19.9591 23.5097 19.7002 0.115363 -1.90607 0.695496
19.3371 20.1527 16.3407 3.25875 -1.5936 -0.165268
18.8704 20.5119 19.7274 -1.63678 -0.291861 -0.115968
18.2964 21.9885 17.8315 0.270269 -1.03054 -2.13258
16.3029 20.7623 19.3314 -1.54911 -0.896764 0.693895
20.8014 22.1842 17.5259 -0.361646 -0.580548 0.142157
22.6166 23.5196 19.3172 0.570523 1.56752 1.24642