ITEM: TIMESTEP
0
ITEM: NUMBER OF ATOMS
36
ITEM: BOX BOUNDS ss ss ss
1.6093403617114358e+01 2.4271129298910463e+01
1.6513265766556454e+01 2.4215175238040551e+01
1.5882041714147967e+01 2.4653941360847984e+01
ITEM: ATOMS x y z vx vy vz
19.5323 20.077 16.1684 -0.211517 0.63839 0.16941
18.0049 18.7445 18.0371 0.77351 -0.70411 1.25121
19.9821 17.3897 16.7365 -1.10297 -0.0634576 -0.302892
16.0975 20.1987 19.5095 -1.63759 -0.456536 -2.28243
19.7409 16.9851 19.3915 -1.67087 0.307285 0.465141
22.2866 17.1482 18.3199 0.844008 0.185443 0.900163
20.9467 19.472 18.4196 0.776802 -0.447867 -0.240777
23.8483 19.343 17.6957 0.97871 -0.651073 0.667391
21.9873 18.8561 15.8861 -2.36297 0.172852 -0.423729
23.1636 18.9928 20.2489 0.798707 1.78395 -0.537584
19.6614 23.4408 20.1505 0.821606 0.461115 -1.1442
18.8389 20.7526 19.7653 1.01895 0.544665 -1.0221
17.3586 21.3575 17.4801 1.12325 0.759651 1.33232
17.0237 22.7411 19.9557 1.51184 -0.291198 0.472253
19.8454 22.3192 17.6704 1.35321 -0.676502 -1.26456
22.0376 23.5802 18.61 0.0663034 1.52384 -1.79587
22.2493 21.3926 16.8925 -0.892131 2.03045 -2.79997
24.0354 21.7609 18.9457 0.162209 -0.15971 1.16405
17.6769 18.3648 20.7827 1.90082 -0.73729 -0.349243
19.2632 16.5173 22.0254 -0.790067 -1.44759 -0.127269
18.5907 18.9323 23.3445 -3.10023 -2.04352 -0.355644
22.6354 19.5298 22.8807 -1.52555 -0.816499 0.38526
20.6417 20.2552 24.6499 0.293493 -0.47089 1.22143
20.9813 17.6242 23.6938 0.367715 -0.26608 -0.535409
20.4436 18.9521 21.2537 -0.0972737 -0.738052 0.450463
21.8783 16.7096 21.1358 -0.489046 -0.0775626 1.63524
17.0673 20.8809 21.9739 1.15317 0.365424 0.0295214
20.0957 22.9918 24.646 1.65206 0.950554 0.377024
19.8507 21.449 22.352 1.79927 0.417481 0.53036
18.0379 21.3673 24.4567 2.60602 -0.359338 0.630597
18.1022 23.4371 22.5047 -2.01795 -0.404012 -0.310251
22.3775 22.1901 23.3087 -1.53717 1.08059 0.345346
20.82 24.2111 22.4004 -0.992356 1.09365 0.997367
24.2671 21.2163 21.5533 1.01354 -0.566517 0.437735
23.1392 23.6153 21.0534 -0.780948 0.667001 -1.18826
21.7109 21.4237 20.3211 -1.80656 -1.60453 1.21792
ITEM: TIMESTEP
1000
ITEM: NUMBER OF ATOMS
36
ITEM: BOX BOUNDS ss ss ss
1.6093403617114358e+01 2.4271129298910463e+01
1.6513265766556454e+01 2.4215175238040551e+01
1.5882041714147967e+01 2.4653941360847984e+01
ITEM: ATOMS x y z vx vy vz
19.5315 20.0604 16.3504 -0.539738 -0.967452 -0.0402802
17.8144 18.8224 18.0383 -0.384546 0.790649 0.15381
19.6979 17.2825 16.6661 0.334901 0.821061 -0.724226
16.2671 20.2771 19.483 -0.156056 0.176684 -0.465218
19.7712 16.8684 19.4566 -0.63314 -0.817154 1.83415
22.1831 16.8868 18.0021 -0.723069 1.1021 0.640235
21.0789 19.1434 18.4302 0.722953 -1.25236 -1.58238
23.6665 19.1737 17.5414 -1.21713 -0.3928 0.652101
21.7388 18.7879 15.7863 -0.175399 0.423944 -0.33914
23.3364 19.051 20.2715 0.632829 0.911314 0.550663
19.8581 23.685 20.3325 0.429094 0.865377 -0.109791
18.9075 20.6804 19.7163 -0.443929 -0.693029 -1.76372
17.529 21.4446 17.4901 -0.890502 0.00215643 1.21871
17.4013 22.8185 19.7728 0.107999 -0.428804 -0.066353
19.8825 22.4478 17.8854 0.0626089 0.530885 -0.953237
22.3088 23.4489 18.7076 -0.151243 0.172278 -0.533023
22.1428 21.2402 16.9811 0.176679 1.5741 -0.652552
24.0416 21.38 18.8826 1.66439 -0.0364393 0.420826
17.7426 18.2291 20.8193 -1.06622 -0.458299 -2.25413
19.3993 16.4232 22.0876 -0.106238 -0.434063 0.763523
18.6677 19.0771 23.2281 -0.213776 -1.02605 1.42155
22.7673 19.7007 22.8174 -1.31854 -1.47323 1.50398
20.7158 20.1403 24.5117 0.373643 -0.613584 0.701536
21.2576 17.6865 23.566 0.233228 -2.24754 0.018659
20.4918 18.9062 21.3609 -0.131046 -0.315146 0.196024
21.913 16.8291 20.9064 -0.00954494 -0.485576 -0.0988119
17.2007 20.8281 21.8175 1.34325 -2.02375 0.488218
19.9465 22.9935 24.6923 0.14487 -0.0643573 -1.98023
19.8638 21.6407 22.3137 0.716932 1.63941 0.922813
17.9116 21.3631 24.3337 1.06541 1.51325 -0.598069
18.0179 23.4404 22.5657 0.0823652 -0.172083 -0.418717
22.3072 22.3665 23.5152 0.422091 1.17492 0.159063
20.4493 24.4532 22.7492 -0.0852553 -0.293518 -0.301732
24.1396 21.6031 21.575 0.246372 1.53536 0.571381
22.5555 23.7098 21.3841 0.615008 0.945377 0.621577
21.7156 21.3303 20.1818 -1.12926 0.0163545 0.0427793
ITEM: TIMESTEP
2000
ITEM: NUMBER OF ATOMS
36
ITEM: BOX BOUNDS ss ss ss
1.6093403617114358e+01 2.4271129298910463e+01
1.6513265766556454e+01 2.4215175238040551e+01
1.5882041714147967e+01 2.4653941360847984e+01
ITEM: ATOMS x y z vx vy vz
19.5621 19.9906 16.3201 -1.08706 1.03124 -0.940672
17.9822 18.6459 18.1175 -1.85771 -1.18312 -0.461849
20.0101 17.1402 16.8181 0.997447 1.26446 -1.13307
16.1343 20.2787 19.4886 -0.803201 -0.661169 0.244086
19.7861 16.9278 19.3806 -0.705165 -0.261692 0.340306
22.448 17.1578 18.3978 0.771748 0.408989 0.835906
21.019 19.2288 18.5716 -0.358615 0.826912 -0.735631
23.6574 19.7288 17.7365 -0.121231 0.290253 0.753622
21.8014 18.8923 16.0306 -0.541263 0.344177 -0.205664
23.4269 18.9393 20.1983 -0.233587 0.501589 -0.482293
19.9103 23.4725 20.23 -1.69318 0.366697 -0.715553
18.8994 20.7557 19.6092 1.4625 -0.658808 0.78575
17.305 21.1606 17.3347 -0.0859584 -1.22678 -0.443396
17.3623 22.7291 19.8217 0.149962 0.637542 -0.522278
19.5268 22.4828 17.7223 -0.146249 1.82977 0.243735
21.9571 23.7563 18.5586 -0.395852 1.2907 -1.49796
21.8953 21.5622 17.2211 0.484314 0.892758 0.464935
24.1064 21.9237 18.9825 1.87453 -2.50221 -0.651089
17.6545 18.5068 20.7863 0.0484869 -1.77739 2.01049
19.2239 16.602 21.9433 0.705313 0.387172 -0.300659
18.5011 19.0756 23.3144 -0.64509 -0.248724 0.507377
22.7128 19.3382 22.6693 0.676848 -0.0659993 1.45208
20.6808 20.1205 24.5296 1.44436 -0.294349 -0.218257
20.9318 17.4221 23.6155 -0.425126 -1.36563 1.49727
20.3838 19.0037 21.3052 1.59472 1.15679 0.712398
22.0272 16.906 21.2528 0.204435 -1.50269 0.0480724
17.0484 20.8984 21.988 -1.18864 1.35542 -0.623939
20.2192 22.822 24.6732 -1.17547 -0.474142 -1.23557
19.6788 21.4477 22.3521 -1.57857 1.96806 -0.340772
17.9613 21.6538 24.3047 -0.368952 0.277186 0.925768
18.2386 23.5126 22.3805 -0.44381 -0.499588 -1.35355
22.2247 21.883 23.2475 1.40794 -0.571693 -0.672025
20.8672 24.1775 22.6267 0.290482 -0.484084 1.21141
24.3181 21.1929 21.4336 0.723698 -0.921372 1.1631
22.9515 23.5579 21.0453 0.820794 -0.378213 0.0377137
21.8064 21.3264 20.2121 0.197159 0.247937 -0.699794
ITEM: TIMESTEP
3000
ITEM: NUMBER OF ATOMS
36
ITEM: BOX BOUNDS ss ss ss
1.6093403617114358e+01 2.4271129298910463e+01
1.6513265766556454e+01 2.4215175238040551e+01
1.5882041714147967e+01 2.4653941360847984e+01
ITEM: ATOMS x y z vx vy vz
19.6566 20.1135 16.2013 1.31687 0.159097 -0.759003
18.0839 18.7483 18.1463 -0.187772 -0.703622 0.15334
20.0876 17.4715 16.8511 0.544824 0.708882 -1.39383
16.1333 20.081 19.5419 -1.32274 -0.424919 0.0575644
19.6802 16.971 19.261 -0.362642 -1.27368 0.326568
22.2654 17.2042 18.2872 -1.10387 0.291506 0.286
21.1135 19.6295 18.5085 0.803338 0.972379 -0.334289
23.8109 19.2941 17.5632 1.41821 -0.944072 2.78047
22.059 18.7143 15.8059 0.197212 0.246055 -0.095485
23.3308 19.2419 20.157 0.975146 -1.08252 -1.06154
19.2133 23.4259 19.9525 -0.654434 0.880882 -1.7899
18.862 20.7255 19.8681 -2.07107 0.152277 1.54059
17.5276 21.6025 17.7253 -1.6708 1.43824 -0.0789973
16.7803 22.7485 20.3033 0.246233 0.336367 -1.39815
20.1684 22.2045 17.6502 -0.762555 -0.610236 1.76496
21.824 23.6976 19.1013 -0.846868 0.722675 0.502239
22.2991 21.1984 16.4313 0.548755 -0.214353 -0.572179
23.798 21.7225 19.0483 -1.02806 -0.213285 0.862935
17.7255 18.3359 20.8567 -0.339058 -0.576479 0.10076
19.2678 16.5381 21.8944 0.520737 0.997117 0.421295
18.4245 18.9732 23.4414 0.207003 0.184686 0.418
22.5654 19.4843 22.7198 -0.293351 0.0894489 -1.78463
20.737 20.3022 24.4785 0.881936 -1.71826 1.09813
20.8231 17.6849 23.6457 0.694232 0.767195 -0.46848
20.2722 19.0498 21.3709 0.545857 -0.495016 0.498576
21.9498 17.0964 21.0143 -0.298919 -0.839242 -0.751165
16.9481 20.7132 22.0423 0.0460596 0.599413 -0.406838
20.214 23.175 24.2623 0.388628 0.490431 -0.581521
19.5501 21.4323 22.3392 -0.239175 0.794634 0.945524
18.0859 21.3146 24.5023 1.13624 -0.285385 0.157554
18.0199 23.4102 22.7245 -0.715645 -0.206158 -1.45997
22.3456 22.0361 23.272 0.306675 -1.05125 0.0782177
20.9544 23.8953 21.8002 1.01355 0.557499 -0.698211
24.4252 21.1334 21.6973 0.598215 0.658503 -0.530043
23.5864 23.4415 21.1685 -0.352671 0.249747 0.287554
21.6314 21.4091 20.5861 -0.140102 -0.658546 1.88396
ITEM: TIMESTEP
4000
ITEM: NUMBER OF ATOMS
36
ITEM: BOX BOUNDS ss ss ss
1.6093403617114358e+01 2.4271129298910463e+01
1.6513265766556454e+01 2.4215175238040551e+01
1.5882041714147967e+01 2.4653941360847984e+01
ITEM: ATOMS x y z vx vy vz
19.5978 20.1846 16.2338 1.61364 -0.134115 -1.30059
18.1027 19.0863 18.2129 -0.326417 -0.246716 -0.038573
19.8959 17.5648 16.8847 0.488449 0.983523 0.706913
16.0788 20.1614 19.618 -0.801043 0.0276183 0.590839
19.5936 16.6945 19.4695 -1.21169 -1.16739 -0.034183
22.0067 17.1819 18.6358 1.32024 0.185608 0.148622
20.9828 19.72 18.4356 0.500741 0.545219 -0.648195
23.777 19.658 17.9599 0.0410786 -1.58277 -0.399518
22.164 18.7026 16.2578 0.277 -1.68774 1.01704
23.1403 18.8444 20.295 -0.0188533 0.458271 -0.507802
19.1241 23.7487 19.6523 0.452772 0.73431 -0.816482
18.9303 20.9038 19.9853 -1.3624 1.12041 0.673289
17.5504 21.6084 17.7451 -0.743326 -0.97632 2.00021
16.7932 22.6989 19.9893 -0.573307 -1.36737 -0.800642
20.2469 22.2508 17.787 -0.223317 -0.537505 0.770591
21.7477 23.7925 19.0414 -0.316574 0.854953 -0.967463
22.3771 21.4069 16.6106 0.0240205 1.05526 0.400494
23.8436 22.2102 18.8459 0.244669 1.74964 0.744422
17.6319 18.2114 20.8064 1.03019 1.07707 0.947038
19.2603 16.3467 21.8975 -1.21271 -0.884682 -0.576915
18.5739 18.8342 23.3377 -0.630695 1.64388 -0.601521
22.468 19.6032 22.67 -0.0675187 0.619526 -0.404896
20.5475 20.0001 24.8588 1.32982 0.0535748 -0.13023
20.8333 17.6927 23.5787 -0.15523 -1.16388 -0.955915
20.2651 18.719 21.0241 -0.62259 -0.274554 0.0871225
21.7678 16.6243 21.1783 0.0733374 -0.581372 0.372297
17.1723 20.5962 22.0753 -0.554035 -0.77658 -1.35842
20.2849 23.08 24.2858 1.5159 1.48779 1.36042
20.0784 21.1853 22.5743 0.514619 0.236826 0.257736
18.2489 21.3212 24.3736 -0.496037 -0.34723 -0.85689
18.2566 23.0786 22.208 -3.08276 -0.82977 1.09269
22.5268 22.2175 23.2389 1.16508 -0.623312 -0.802167
20.8932 23.9064 21.6457 0.86363 0.728281 -0.0664003
24.2479 21.2196 21.253 -0.0790429 -1.22757 -0.493525
23.5125 23.6387 21.1382 0.45288 -0.644199 1.03035
21.698 21.5265 20.416 0.569483 1.49132 -0.439745
ITEM: TIMESTEP
5000
ITEM: NUMBER OF ATOMS
36
ITEM: BOX BOUNDS ss ss ss
1.6116721872049560e+01 2.4306300080798845e+01
1.6337456546435146e+01 2.3879611857670142e+01
1.6171258640339051e+01 2.4534441951701432e+01
ITEM: ATOMS x y z vx vy vz
19.5829 20.3395 16.2018 -0.958196 0.0542751 -0.154519
17.9929 18.684 18.1822 0.519769 0.807892 2.52192
20.0419 17.5304 16.8729 0.894041 1.18868 0.706725
16.0338 20.0887 19.48 0.924983 -0.141019 -1.5906
19.4767 16.8255 19.4288 -1.50025 -0.510952 -0.379672
19.4758 23.4004 20.0209 -0.231088 0.911534 -0.470964
18.679 20.7612 19.9659 -1.4627 -0.0081332 0.460168
17.3043 21.1699 17.6136 1.42932 -0.942876 0.00790927
16.8542 22.5755 19.9014 0.457556 0.953841 -0.819643
19.5692 22.5862 17.7203 -0.802425 0.0767685 2.1132
22.2176 17.2747 18.5876 -1.20945 -2.00269 0.990132
20.7054 19.6238 18.4244 -1.8761 -0.827147 -0.733073
23.6151 19.7343 18.437 -0.609886 0.548561 -0.61473
21.9984 19.1255 16.2995 0.695849 0.510601 -1.46721
21.8966 23.7972 19.0676 1.7253 0.661473 0.51539
21.9929 21.6979 17.3294 -1.14876 -0.40554 0.978811
24.2257 22.2247 18.8519 -1.11856 -0.515594 0.966405
22.0285 21.3526 20.2757 0.94397 -1.03455 -1.45159
17.5341 18.2078 20.7832 -1.25748 0.841259 0.777205
19.2496 16.5432 22.0779 0.0735892 0.408605 -1.40342
18.7206 18.9636 23.1542 -1.65745 -0.400288 -0.0349804
16.8788 20.7009 21.9691 -0.60953 -0.715252 -1.54287
20.0795 21.3874 22.0772 -0.152934 -1.23091 0.766305
18.1783 21.3941 24.2194 -1.76013 -0.698491 0.391066
18.1962 23.3372 22.1876 -0.177951 -0.508763 -0.555742
23.2189 18.4414 20.5481 2.01816 1.02637 -0.824192
22.635 19.5466 22.7785 -0.0802198 0.791996 0.702703
20.7015 20.3235 24.4244 0.41747 -0.14158 2.058
21.18 17.6524 23.4631 1.34333 0.111224 0.24061
20.5538 18.8724 21.0813 -0.0686242 0.527968 0.443794
21.6817 16.4245 21.1243 1.78883 -0.11889 -0.744703
20.1105 23.1458 24.1429 -0.1066 0.548234 -0.455224
22.4944 22.1337 23.1869 1.67249 0.343615 -1.00124
21.1957 23.9726 21.8742 -0.184429 -0.508281 -0.432352
24.2918 20.9009 21.2407 0.888466 0.439393 1.51482
23.6286 23.48 21.2262 1.17963 -0.041335 -1.47843
ITEM: TIMESTEP
6000
ITEM: NUMBER OF ATOMS
36
ITEM: BOX BOUNDS ss ss ss
1.6116721872049560e+01 2.4306300080798845e+01
1.6337456546435146e+01 2.3879611857670142e+01
1.6171258640339051e+01 2.4534441951701432e+01
ITEM: ATOMS x y z vx vy vz
19.7789 20.1564 16.4405 -1.23308 2.17395 -0.0135774
18.1947 18.8237 17.99 -1.3007 0.675016 0.108308
20.1968 17.4005 16.6788 -0.795302 -0.147808 -1.23313
16.2443 20.19 19.6341 -0.283946 -0.440692 -0.228506
19.6207 16.9568 19.3938 -0.250823 0.116468 0.986229
19.1238 23.4354 19.7968 -0.877439 -1.05401 0.247712
18.8098 20.8206 19.672 -0.360717 0.834284 -0.393748
17.3723 21.9124 17.8819 0.142186 0.812409 -0.522787
16.7836 22.6077 20.3488 0.0293181 -0.646843 -0.609402
19.93 22.5597 17.5351 0.246066 -0.156857 1.98454
22.2002 16.8865 18.4694 0.621238 -0.330806 2.95688
21.0453 19.2957 18.6376 -0.0626121 -0.599935 0.725053
23.9668 19.8533 18.3337 1.41152 1.23972 0.919087
22.3066 18.7954 16.3656 0.4928 -0.569861 0.767837
21.6279 23.9685 18.9447 0.407194 0.711913 0.42144
22.2724 21.4365 17.3451 0.707496 -0.673111 0.851377
23.9435 22.5038 18.7797 -0.171251 0.347596 0.135546
21.6739 21.519 20.1054 1.54155 1.38216 0.665305
17.7275 18.4029 20.7915 0.470485 -0.244496 -0.134085
19.0887 16.5114 21.9825 -1.18605 -0.708335 0.0504283
18.7851 18.854 23.4485 -0.681977 -0.710839 -1.4562
16.8923 20.7809 22.1706 -0.512756 0.214852 0.582478
19.693 21.286 22.173 -0.297776 0.344636 0.608142
18.2458 21.3572 24.4508 0.623023 -0.303833 -0.590982
18.17 23.4524 22.4713 -0.784604 -0.0472588 0.83637
23.0678 18.4821 20.3057 -0.229636 -1.7716 0.0333557
22.5089 19.3878 22.7815 0.644605 -0.229711 -0.881138
20.6885 20.2929 24.4881 -0.626827 1.42194 -0.953089
20.896 17.5302 23.756 1.62935 1.02564 -0.266965
20.5482 18.9083 21.2619 0.381975 -0.0603079 1.50082
21.5188 16.3182 20.9697 0.904193 -0.597496 -1.34616
20.3045 23.0237 24.1504 0.219885 -0.841659 -1.68003
22.5579 22.0857 22.9738 -0.713146 0.81094 -2.23483
20.8813 23.8182 21.663 0.536857 -1.4642 0.0235499
24.0642 20.9522 21.0288 -1.76438 -0.210669 -1.00906
23.4903 23.654 20.9997 1.12329 -0.301193 -0.850776
ITEM: TIMESTEP
7000
ITEM: NUMBER OF ATOMS
36
ITEM: BOX BOUNDS ss ss ss
1.6116721872049560e+01 2.4306300080798845e+01
1.6337456546435146e+01 2.3879611857670142e+01
1.6171258640339051e+01 2.4534441951701432e+01
ITEM: ATOMS x y z vx vy vz
19.587 20.2606 16.2849 -1.19957 1.66769 0.93336
18.0706 18.564 18.2098 0.476288 -0.126789 -0.442092
20.2522 17.5996 16.6277 -0.273701 1.53806 -1.74884
16.0674 20.1924 19.6314 -1.43403 -0.919413 1.32606
19.8723 16.8406 19.2652 1.22099 0.254547 -0.658575
19.5403 23.4298 20.2151 -0.102732 -0.492934 -0.76569
18.7081 20.674 19.7225 -0.0505828 -0.0204768 0.281392
17.3125 20.8474 17.4811 0.74346 -1.16657 -0.00884375
16.9856 22.6417 19.7705 -1.04031 2.22483 -0.203568
19.4633 22.4931 17.7146 1.20728 -0.352842 -1.38923
22.3794 17.2315 18.2893 -0.991395 -0.769862 1.39093
20.7102 19.3896 18.5671 1.28404 -1.91057 -0.558504
23.4856 19.9468 18.2946 1.20966 1.266 0.32945
22.2291 19.1252 16.2485 -0.529507 0.554742 0.359526
22.0123 23.8302 19.0365 -0.434077 -2.08271 0.527794
21.7523 21.6629 17.0912 -0.937235 0.682145 -0.347184
24.1101 22.2831 18.7004 -0.347545 -0.122259 -0.63882
21.8624 21.3805 20.2698 1.30672 -0.655211 -1.20929
17.7375 18.419 20.8581 -0.926738 -0.486537 -0.328997
19.2835 16.5951 21.9975 -1.73941 -0.960039 -0.58281
18.4745 19.0848 23.3374 1.07154 -0.411881 -1.75688
17.066 21.0164 21.995 -0.767223 1.13219 -0.696299
19.735 21.3518 22.2721 -0.159284 -0.345126 -0.455868
18.1486 21.5832 24.4079 0.718201 0.0139428 1.32947
18.2562 23.5042 22.4744 1.49022 -0.507961 -1.03843
23.2571 18.4783 20.4273 -0.10987 -0.0398201 0.155812
22.7309 19.2637 22.8195 -0.352094 -0.087826 -0.857909
20.5691 20.3037 24.6784 -1.19058 0.47988 0.69335
20.7964 17.7802 23.7793 0.936264 1.35115 1.41701
20.5205 18.887 21.2014 -0.376325 -1.31488 0.251918
21.7052 16.4896 21.0194 1.40531 0.969668 1.50046
20.2132 23.0643 24.3384 0.332679 0.422929 1.07077
22.3387 21.8394 23.1571 1.65178 -0.422313 1.14322
21.1253 23.9692 21.9457 -1.46288 0.298241 1.04992
24.3693 20.8475 21.0621 -1.30354 0.0778694 0.586391
23.4925 23.3494 21.0289 0.674206 0.262132 -0.659008
ITEM: TIMESTEP
8000
ITEM: NUMBER OF ATOMS
36
ITEM: BOX BOUNDS ss ss ss
1.6116721872049560e+01 2.4306300080798845e+01
1.6337456546435146e+01 2.3879611857670142e+01
1.6171258640339051e+01 2.4534441951701432e+01
ITEM: ATOMS x y z vx vy vz
19.5795 20.1877 16.3428 1.06418 -0.458994 0.605479
18.203 18.6041 18.0402 -1.59044 1.28204 -0.23752
20.2412 17.6376 16.7475 -0.854487 0.278667 0.83017
16.1944 20.0239 19.6043 -0.324659 -0.731036 2.32944
19.6708 17.005 19.4428 0.529653 1.41532 -1.59953
19.3018 23.6707 20.3024 1.65101 0.612596 -1.97649
18.833 20.7965 19.5928 -1.36838 -1.54092 1.65288
17.2254 21.2958 17.5066 -1.01383 -0.0810563 -0.426039
16.8542 22.6934 19.821 0.416932 1.81363 -0.590344
19.6362 22.534 17.8512 -0.0810474 -0.260807 0.355367
22.2132 16.9268 18.3659 -0.803101 0.574101 1.55844
21.0539 19.2868 18.693 0.0693218 0.550057 0.979856
23.738 19.838 18.3035 2.11645 1.26415 -0.261749
22.2193 19.0058 16.2821 -0.50012 -0.593814 0.32917
21.6396 24.0279 19.0271 -0.457119 -1.39877 -1.56742
21.8834 21.6051 17.1635 -1.64253 0.553315 0.0395711
23.8859 22.4568 18.7652 -0.145913 -0.758153 1.25019
21.7158 21.664 20.1323 1.34855 1.46661 -1.04963
17.8362 18.4276 20.852 1.74706 0.294267 -2.22663
19.1221 16.486 22.1425 0.17588 -0.48111 0.374884
18.6283 19.0286 23.1814 -0.853117 -1.3509 -1.02606
16.9637 21.0303 21.8598 -1.1206 -0.528727 0.713461
19.7818 21.4859 22.0953 -1.36223 0.475823 0.00602216
18.0462 21.5673 24.3755 -0.971627 0.158573 -0.194999
17.963 23.4396 22.5584 0.33799 -0.867079 -1.68023
23.2902 18.296 20.3616 2.27548 -0.859006 0.212642
22.9699 19.1391 22.8889 0.41944 -2.11533 -1.53912
20.8911 20.2397 24.3497 0.458748 1.38852 1.2161
20.9372 17.5999 23.7234 0.8174 0.29137 0.331808
20.671 19.0283 21.4299 -0.288517 -0.350051 0.102119
21.5302 16.3791 21.2673 0.179911 -0.918475 -1.01293
20.2036 22.9753 24.1564 0.445377 0.718919 0.830471
22.4183 21.6978 22.9384 0.0744563 -0.901185 -0.0700689
21.1185 23.963 22.0645 -1.01447 0.599214 0.498871
24.2559 20.759 20.9407 -0.810485 -0.110982 1.14056
23.504 23.4175 21.0498 1.07484 0.569232 0.101249
ITEM: TIMESTEP
9000
ITEM: NUMBER OF ATOMS
36
ITEM: BOX BOUNDS ss ss ss
1.6116721872049560e+01 2.4306300080798845e+01
1.6337456546435146e+01 2.3879611857670142e+01
1.6171258640339051e+01 2.4534441951701432e+01
ITEM: ATOMS x y z vx vy vz
19.7915 20.2601 16.3209 -1.02736 -0.301584 0.385728
18.1217 18.8971 17.9125 -2.75685 -0.96841 -1.14089
20.1085 17.5159 16.5565 -2.18694 -0.248742 -2.63566
16.0599 20.0863 19.455 -1.14883 0.17088 -0.0309428
19.8511 17.0045 19.3853 -0.371843 0.0417486 -0.082185
19.1618 23.6775 20.1852 0.448477 -0.255424 -1.67378
18.8062 20.9115 19.7626 -0.36341 -0.0519386 2.35056
17.3145 21.2458 17.3661 2.0674 -0.514363 -0.164458
16.777 22.6485 20.0749 -0.957436 0.133961 0.584207
19.6615 22.5518 17.8461 -0.860399 -1.71015 0.469473
22.3008 16.9933 18.3064 -0.740259 0.489965 0.573976
20.9137 19.2576 18.6269 0.428668 -0.541368 -0.531576
23.7534 19.7485 18.3449 1.74716 0.442466 -0.0347018
22.2524 18.798 16.3422 1.04526 1.18641 0.0215718
21.6851 23.9501 19.132 0.12314 -1.26407 -0.0618768
22.0427 21.3683 17.197 -0.302783 0.515881 0.502757
23.9525 22.5139 18.6324 0.610792 1.98622 0.791635
21.7228 21.4664 20.0211 1.88644 0.122106 -0.21167
17.7865 18.4441 20.7618 -0.758042 0.0101945 -0.522727
19.035 16.6602 22.08 -0.178991 1.18197 -0.475427
18.5198 19.0245 23.2949 -0.56972 -0.934041 -0.122559
17.0069 20.8696 21.9923 -1.11941 -0.262895 0.502293
19.8941 21.4913 22.2084 0.916174 1.35034 -1.04301
18.2785 21.5233 24.4858 0.42146 -0.316322 -0.0534247
17.8957 23.3411 22.6817 0.185253 -1.9121 -0.187253
23.036 18.4174 20.3834 1.57645 -0.932866 0.742764
22.8027 19.4295 22.7986 -1.4776 -0.466825 -0.694416
20.7508 20.2511 24.5409 0.0884342 1.47059 1.21588
21.1092 17.6865 23.6536 1.30555 0.407359 0.519772
20.488 18.8695 21.3698 -0.290673 0.751672 -0.940192
21.779 16.5366 21.316 0.333914 -0.176775 0.290304
20.2641 22.9749 24.335 1.31267 0.539658 0.109235
22.4724 21.8402 23.0987 -0.881084 1.91431 -0.347314
21.1714 23.7934 21.9085 0.500193 -1.02917 -0.621854
24.1119 20.7858 20.8368 -0.166313 1.56111 1.50066
23.5408 23.3859 21.0058 1.1605 -2.3898 1.0151
ITEM: TIMESTEP
10000
ITEM: NUMBER OF ATOMS
36
ITEM: BOX BOUNDS ss ss ss
1.6116721872049560e+01 2.4306300080798845e+01
1.6337456546435146e+01 2.3879611857670142e+01
1.6171258640339051e+01 2.4534441951701432e+01
ITEM: ATOMS x y z vx vy vz
19.4244 19.996 16.0099 1.76406 1.88989 -0.940176
17.8949 18.7977 17.9747 0.289107 0.761558 -0.178115
19.8513 17.4285 16.5753 -0.370767 -1.05296 1.17952
16.2118 20.2358 19.6011 1.79221 -0.0137053 0.276431
19.63 17.0327 19.1606 1.13637 0.613132 -1.39945
19.1537 23.7814 19.6085 -0.980893 0.621533 -0.882132
18.8841 20.9391 19.9357 -1.35136 0.935465 0.036827
17.4777 21.6123 17.6855 -1.17796 1.76753 0.25036
16.671 22.7239 20.2208 -0.465426 -0.2445 -0.685585
19.779 22.1762 17.5887 -0.602142 0.228661 1.3831
22.1637 17.2188 18.4198 -1.28226 -1.129 1.89663
20.6412 19.564 18.2352 0.393282 -1.77027 -0.277822
23.3929 19.6451 18.6067 -0.0708494 0.861791 2.11794
21.9599 18.9581 16.1561 -0.635915 -1.06689 -1.06215
21.8279 23.6296 18.8584 0.460656 -0.515066 0.140789
22.3501 21.6259 17.1152 1.11566 -1.13612 -0.808008
24.2524 22.1541 19.0422 -1.55931 1.72337 0.0440168
21.764 21.4098 20.1227 1.1755 0.459238 0.737231
17.6667 18.4153 20.6771 2.36933 -0.446033 0.835082
19.3779 16.6307 21.845 -1.43245 -0.686482 -1.13468
18.7718 18.8021 23.3048 -1.0411 -2.20844 -0.206508
17.2027 20.6636 22.0909 -0.585674 1.10469 -0.652545
20.1231 21.1349 22.4875 0.0919878 -0.150999 0.505682
18.2896 21.2334 24.3794 0.0345267 -0.116965 2.33289
18.3516 23.1276 22.3831 -0.501094 -1.19479 -0.497259
23.1873 18.3038 20.9508 -0.602335 0.215989 0.754695
22.5375 19.8081 23.1104 0.636513 -0.241593 -0.314091
20.6161 20.3745 24.9069 0.910556 1.26521 -0.91578
21.2361 17.7866 23.434 0.644558 0.46764 -0.131759
20.4473 18.9113 21.0214 1.52488 0.327164 -0.475947
21.8073 16.4187 20.99 -0.867858 -0.87715 -0.513375
20.2307 23.0013 24.4584 1.25192 0.740755 0.657572
22.6156 22.451 23.262 -0.0549246 -1.71425 1.01704
20.8485 23.7126 21.6531 -0.0135823 0.0222487 -1.12179
24.1172 20.9447 21.3082 -1.11798 0.809708 -0.126916
23.4633 23.5708 21.0399 -0.877238 -0.250339 -1.84171
ITEM: TIMESTEP
11000
ITEM: NUMBER OF ATOMS
36
ITEM: BOX BOUNDS ss ss ss
1.6116721872049560e+01 2.4306300080798845e+01
1.6337456546435146e+01 2.3879611857670142e+01
1.6171258640339051e+01 2.4534441951701432e+01
ITEM: ATOMS x y z vx vy vz
19.9453 19.8891 15.7824 -0.640212 -1.39707 -0.258651
17.9236 19.4852 17.7115 -0.617177 0.986198 -0.176154
19.8351 17.6063 16.6283 -2.18938 -0.35752 -0.176231
16.1765 20.1969 19.555 -0.138341 0.877131 1.95073
19.6171 16.8257 19.1678 1.67677 0.988269 -0.205
19.1262 23.6492 19.5928 1.47638 0.553595 -1.23055
18.8812 21.1209 20.0989 -0.149706 -0.509881 -0.877873
16.9771 22.0051 18.0118 0.316566 -1.08693 0.927493
16.8146 22.8307 20.3727 0.709402 -1.89673 1.02643
19.6479 22.0128 17.383 -0.835909 0.156537 -1.15725
22.3492 17.3287 18.6735 -0.165015 1.44542 0.531206
20.4548 19.5004 18.5304 -1.26095 0.540133 -0.372879
23.631 19.6652 18.7859 1.51941 1.45953 -0.000484987
22.2787 18.8283 16.5673 0.423263 -0.569446 0.0450778
21.6632 23.4483 18.7243 -0.63713 -2.10677 1.18346
22.1497 21.3631 17.1563 1.1565 0.794016 -1.61433
24.0072 22.3034 18.7929 -0.591435 0.101746 0.212708
21.9397 21.2496 20.2191 0.54231 1.33524 0.821729
17.9211 18.5001 20.4771 0.676752 -0.797112 -0.606682
19.1658 16.6373 21.825 -1.30498 -0.190878 -0.00314065
18.6315 18.8418 23.3181 0.0870101 -0.835001 -0.912279
17.0972 20.7123 22.0434 0.91524 -0.65033 -1.56665
20.1052 21.0476 22.4674 -1.12167 0.669266 0.116642
18.337 21.1912 24.5446 -1.20473 0.944169 1.35641
18.2837 23.157 22.4178 -1.12247 -1.0288 -1.08284
23.4597 18.1947 20.927 -1.1951 0.861129 -0.651852
22.7089 19.6923 22.989 -0.719852 -0.028461 0.0142051
20.8459 20.1737 24.7299 -0.826191 0.216986 3.65602
21.0503 17.7207 23.4331 0.296018 -0.535015 -1.31197
20.7979 18.8387 21.0598 -0.00596376 0.683419 -0.226635
21.5502 16.2233 20.9234 0.643655 0.896769 -0.429007
20.2034 23.0386 24.286 0.00279101 0.624374 -0.0382284
22.5047 22.3264 23.2046 2.25336 0.340547 1.26032
20.7965 23.7326 21.6869 0.91103 0.51607 -0.476635
24.1513 21.1241 21.2479 0.768086 -1.02157 1.67485
23.1917 23.7588 20.885 0.351665 -1.97903 -1.40197
ITEM: TIMESTEP
12000
ITEM: NUMBER OF ATOMS
36
ITEM: BOX BOUNDS ss ss ss
1.6152463504377607e+01 2.4482362643447349e+01
1.6224218974239204e+01 2.3825641679603596e+01
1.5745412271616289e+01 2.4962595270354271e+01
ITEM: ATOMS x y z vx vy vz
18.1134 19.293 17.8227 -2.60786 -0.354834 -1.67999
20.3012 17.6175 16.6058 1.27962 -1.69846 -1.2861
19.4203 17.1049 19.2454 -0.575772 0.876664 -0.20016
22.1885 17.3764 18.7291 0.238807 -0.023032 0.0704174
20.7341 19.7024 18.4305 0.00591364 0.263303 -1.87955
23.354 19.7101 18.9901 -1.71421 0.248375 0.916653
22.5868 18.8407 16.4113 0.512159 -0.0413688 0.0410741
20.2978 19.8412 15.7065 0.912189 -0.578702 -0.618258
15.9671 20.4704 19.706 -0.616811 0.0852148 0.277339
18.5604 23.8039 19.5133 0.119824 -0.674228 -0.845922
18.7671 21.2371 19.8992 0.554798 0.47809 0.431879
17.0706 21.8656 17.9148 -0.372299 -1.06179 0.875783
19.6313 21.939 17.2238 0.537145 1.23786 1.8354
21.3003 23.3204 18.8354 0.273233 -0.622521 -0.674482
22.3579 21.5157 17.0276 0.644128 -1.86319 0.743863
23.9224 22.4783 18.7974 -0.805524 1.83375 0.00254708
17.8425 18.8117 20.5573 -0.229454 0.196088 -1.56763
19.0494 16.7607 21.7551 0.280863 1.16916 0.616975
18.7275 18.8532 23.4817 1.49807 -1.74971 -0.882688
23.3511 17.9995 21.0851 0.956435 0.569613 -0.491989
22.7083 19.7613 22.764 0.384101 0.184571 -1.16716
21.1162 17.607 23.2704 -0.442744 -0.731946 -1.40452
20.7469 18.7056 21.0065 -0.17912 -1.01365 0.740531
21.4882 16.0088 21.1595 0.09659 -0.641849 0.696516
16.4308 22.8589 20.5713 0.643757 -0.0730209 0.525824
17.044 20.7407 22.2359 1.7733 2.12096 0.68047
20.0086 20.9667 22.3947 0.189605 1.24483 2.28141
18.3896 21.0864 24.6947 -0.606036 0.819853 0.264095
18.3784 23.2034 22.4294 0.967163 0.308758 -0.241532
20.3221 22.8816 24.3795 -0.0514165 0.202749 0.170057
21.87 21.2682 20.4665 -1.38776 0.262165 1.07677
21.0149 20.2394 24.8192 -0.459847 0.643213 -0.00971417
22.5307 22.2985 22.9588 0.360264 -1.11802 0.467556
20.6744 23.5889 21.3754 -0.543788 -0.805188 -0.247113
24.5056 20.9859 20.9677 -1.06256 0.140462 -0.220989
23.4476 23.4769 20.9883 -0.572772 0.165818 0.702636
ITEM: TIMESTEP
13000
ITEM: NUMBER OF ATOMS
36
ITEM: BOX BOUNDS ss ss ss
1.6152463504377607e+01 2.4482362643447349e+01
1.6224218974239204e+01 2.3825641679603596e+01
1.5745412271616289e+01 2.4962595270354271e+01
ITEM: ATOMS x y z vx vy vz
18.0961 19.1342 18.0552 -0.465909 -2.30045 1.36366
19.9325 17.6501 16.6439 0.862822 0.786791 -0.877885
19.3457 17.0101 19.1654 -1.85682 0.153573 -0.237468
22.007 17.2501 18.6988 -0.0754197 1.12812 -1.59418
20.7919 19.527 18.4146 0.694166 0.908967 0.42425
23.6244 19.5939 18.468 -0.179263 -0.0754878 0.261048
22.274 18.8731 16.265 -0.99402 -1.53919 0.452577
19.7119 20.2899 16.0281 -0.788715 1.05287 -0.858262
16.0214 20.0213 19.6904 1.10201 -1.01836 0.320389
18.9093 23.649 19.6791 0.0688776 -0.0606771 2.67976
18.8214 20.9689 19.9864 1.34373 -0.799813 -1.79294
17.438 21.6621 17.9214 0.271731 -1.4005 -0.810546
20.0958 22.3788 17.8946 -0.0605025 -1.31596 -1.10243
21.9425 23.8703 19.1162 0.734893 -0.0576392 1.04811
22.1439 21.5377 16.8351 0.392559 0.703342 0.765957
24.0367 22.2905 18.6585 -1.27472 -0.585408 -1.90134
17.9182 18.4908 20.7805 0.331381 0.0690974 0.970869
19.1115 16.5736 22.1 -0.613128 -0.562382 -0.287816
18.8956 18.9412 23.4252 -2.81573 -0.596235 -1.42788
23.2863 18.5826 20.7693 0.267261 0.287081 -0.567007
22.5732 19.6712 22.9128 1.16186 0.462931 0.653452
21.0376 17.5164 23.4938 -1.26278 -0.0710695 -0.0962385
20.6784 18.6956 20.9701 -0.310719 -0.00376461 -0.575194
21.3953 16.2623 21.0844 -0.369973 0.983885 0.764548
16.5417 22.5892 20.1793 1.22149 0.487219 0.36906
16.9343 20.4862 22.1047 -0.221347 0.631861 0.912391
20.1915 21.0912 22.394 1.43042 0.292427 0.704276
18.1202 21.4393 24.2814 1.66082 0.985658 -0.563889
18.1822 22.9234 22.3204 0.0437517 -0.865818 -1.35289
20.3008 23.0005 24.0948 -0.00378996 0.0911029 -1.2651
21.9345 21.4318 20.1944 -0.404395 0.111701 -0.477673
20.6282 20.3022 24.7045 1.49016 -0.381443 0.249671
22.6125 22.3147 23.2082 -1.13403 -0.187556 3.00223
20.7944 23.7162 21.4999 -0.308186 0.835974 -0.958965
24.3514 21.0289 21.0939 -0.0907814 1.93836 0.950861
23.5399 23.4557 21.0875 0.152281 -0.0892168 0.854599
ITEM: TIMESTEP
14000
ITEM: NUMBER OF ATOMS
36
ITEM: BOX BOUNDS ss ss ss
1.6190601902102419e+01 2.4176584819680958e+01
1.6344055679790124e+01 2.3753439659155514e+01
1.6151222170702699e+01 2.4775981028809461e+01
ITEM: ATOMS x y z vx vy vz
17.9941 18.78 18.0171 1.00032 0.0850822 0.203863
19.855 17.5279 16.814 -1.34747 -1.21209 0.133869
19.619 16.9558 19.4081 1.56631 1.19914 -0.0782403
19.6029 20.3308 16.3697 0.62328 -0.0550746 0.437311
15.9958 19.9804 19.5876 0.254277 -0.414232 1.10488
19.3561 23.4475 20.1986 -1.6591 -0.674882 2.0785
18.7279 20.6545 19.8797 -1.11858 -0.898782 0.743919
17.4248 21.2774 17.7178 0.46138 0.463742 -1.01385
19.8313 22.485 17.7859 0.874809 0.855793 -0.723774
16.6286 22.4764 19.9435 -0.211678 1.53243 -0.303676
22.1386 17.3466 18.3929 -1.32069 0.754789 -1.76902
20.8085 19.5891 18.5334 2.50441 -1.0311 -0.135954