ITEM: TIMESTEP
0
ITEM: NUMBER OF ATOMS
37
ITEM: BOX BOUNDS ss ss ss
1.5703655924919325e+01 2.4961916294149415e+01
1.6192968724945445e+01 2.3983189639285527e+01
1.6625852000092554e+01 2.4648663325460355e+01
ITEM: ATOMS x y z vx vy vz
20.1246 18.774 20.0946 1.14542 1.01101 0.249289
18.6089 19.1304 17.6642 0.892517 -0.0720746 0.465798
16.1817 18.6785 18.704 0.9962 -0.808701 0.975453
18.2598 16.8714 19.2018 -2.06436 0.345324 -0.461752
24.9578 19.2437 20.3631 -1.56615 -0.628969 0.555018
21.2426 16.197 20.1597 0.00828643 -0.359976 1.15655
20.5054 17.1329 17.7537 -1.13024 0.975421 -1.1735
21.2711 19.6629 17.1509 -2.97192 -2.09999 -0.42947
22.7272 18.1995 18.9873 0.805203 -1.19762 1.82636
15.7077 20.7998 20.289 0.514958 0.527123 -1.3798
19.593 23.614 20.5224 0.0609447 -0.65561 0.416924
18.3486 21.0358 19.7603 1.14021 0.49659 1.06621
17.824 23.4546 18.4352 -1.44403 -0.764275 -2.51332
16.6186 21.1296 17.6847 -0.398182 -1.3598 -0.262296
19.299 21.7013 16.9888 1.03048 2.09682 -0.464463
23.6051 20.7275 18.3719 -0.124386 1.59213 -1.70112
21.0404 21.5349 19.1876 1.62515 0.412428 0.459043
23.0692 23.3972 18.8061 0.0915748 0.455382 0.183661
22.0149 22.2115 16.6299 2.42846 -0.497296 0.517247
24.5686 21.9297 20.6008 -1.85946 -1.52276 1.31303
20.496 23.9791 17.9798 -1.13819 0.269731 0.461396
19.1461 18.8935 23.2263 0.351679 -0.110838 -0.553964
19.1126 16.6289 21.7359 -0.799708 -0.104301 -0.379573
17.4136 18.6977 21.0828 1.19291 -0.514705 0.144014
21.5317 17.7671 22.4046 1.07918 0.320816 0.975568
21.6462 20.0183 23.9729 0.797706 -0.441402 -0.215981
23.7505 16.9668 21.1345 0.863068 0.319635 -1.05021
24.0472 18.914 22.967 -0.0449684 0.0931058 1.31373
19.2117 21.1964 24.6446 0.897457 0.0959495 -0.191427
18.7111 23.3327 23.0829 2.018 -0.92324 -0.498644
20.0708 21.1837 21.9593 -1.84714 1.32477 0.338893
16.9341 23.1323 20.9795 -1.39295 1.25872 0.808678
17.3396 20.9918 22.5904 1.10106 -0.258044 0.680187
22.4988 20.098 21.0932 -0.878496 2.09138 -2.67998
21.2845 22.7507 23.9092 -2.42237 -0.598068 -0.452711
22.1734 23.0305 21.351 -0.141974 0.0587205 1.74227
23.6788 21.6074 23.1452 1.18409 -0.827395 -1.2411
ITEM: TIMESTEP
1000
ITEM: NUMBER OF ATOMS
37
ITEM: BOX BOUNDS ss ss ss
1.5703655924919325e+01 2.4961916294149415e+01
1.6192968724945445e+01 2.3983189639285527e+01
1.6625852000092554e+01 2.4648663325460355e+01
ITEM: ATOMS x y z vx vy vz
20.1356 18.737 20.1621 -0.883422 0.51679 -0.434377
18.7782 19.1448 17.7248 0.632457 -0.630353 -0.033721
16.239 18.6762 18.7932 -1.71979 -1.03916 0.0473308
18.1584 16.952 19.1145 -0.690001 -0.737635 -0.481303
24.987 19.3157 20.5762 -0.25775 -1.09846 1.20999
21.3207 16.2427 20.1185 0.453977 -0.308427 -1.35668
20.4482 17.2078 17.8235 -0.410617 -0.278065 0.915124
21.28 19.7508 16.7894 0.356595 0.322645 -0.898596
22.6567 18.2987 18.9617 -0.397669 -0.444126 0.468796
15.7372 20.9746 20.1486 0.341599 -0.585019 -1.29716
19.6965 23.6369 20.3608 -1.75965 1.58801 0.0726856
18.2808 20.9857 19.79 -1.29276 -0.488908 0.889489
17.745 23.4004 18.3881 -0.976165 -0.102697 -0.546378
16.6922 21.0976 17.5867 0.335544 2.14861 1.1876
19.279 21.6077 16.9212 1.54072 0.255556 -0.697902
23.5667 20.6857 18.3725 -0.0997076 0.181737 -0.115937
20.8958 21.395 19.0565 0.851022 -1.13224 -1.43113
22.7613 23.4507 18.9514 -0.454113 0.78843 0.0169103
22.0188 22.156 16.7074 0.549714 1.4368 0.0575061
24.4341 22.0552 20.5967 -0.31207 0.0622236 -0.218228
20.2933 23.8473 17.8845 -0.0425255 -0.324571 0.201407
19.0545 18.9644 23.2608 0.0671035 -1.4338 0.403008
19.1976 16.5331 21.6162 0.394961 0.366989 1.37624
17.5601 18.7457 21.0808 0.66921 -0.104622 -0.271682
21.5025 17.7962 22.4117 0.823306 -0.28715 0.0509297
21.7949 20.029 24.018 0.00311903 -1.11981 -1.35355
23.6866 17.1838 21.1533 -1.13222 -0.0570623 -0.470435
23.9448 18.7756 23.1285 0.561777 0.86766 0.360101
19.212 21.185 24.6776 -1.0023 0.212364 -1.14182
19.1428 23.3707 22.9547 -0.184775 -0.663667 -0.045165
19.9981 20.9671 22.0428 -0.897405 -0.324038 2.72969
17.2499 23.1588 21.0125 -0.16213 -0.529287 -1.98282
17.2518 21.0528 22.7318 1.13879 1.65167 2.18129
22.5284 20.0355 21.0735 0.997866 0.279195 0.68131
21.2982 22.6874 24.0717 0.815798 0.761332 -0.151545
22.0752 22.9508 21.5649 1.72977 0.227365 0.278604
23.7132 21.5604 22.9877 0.411744 0.0217289 -0.199598
ITEM: TIMESTEP
2000
ITEM: NUMBER OF ATOMS
37
ITEM: BOX BOUNDS ss ss ss
1.5703655924919325e+01 2.4961916294149415e+01
1.6192968724945445e+01 2.3983189639285527e+01
1.6625852000092554e+01 2.4648663325460355e+01
ITEM: ATOMS x y z vx vy vz
20.1823 18.7493 20.0217 3.05469 -0.0824183 -0.049319
18.5704 19.2337 17.7679 -0.361659 -1.11763 -0.9655
16.1878 18.8091 18.6838 1.40013 0.7125 0.70069
18.1608 16.8991 19.0929 -0.226525 1.4107 -0.160908
24.9291 19.1395 20.1688 0.699004 0.706035 -1.39003
21.3441 16.2165 20.1344 -0.173121 0.0399899 1.09083
20.3646 17.1516 17.6972 -0.42308 0.376863 -1.19215
21.2224 19.6103 17.2644 -1.25578 -1.14676 0.181681
22.792 18.137 18.9825 -0.0736911 -0.342561 -0.0811642
15.831 20.7529 20.2292 -1.13138 -0.596994 -0.358847
19.746 23.5056 20.6865 -1.11755 0.323848 0.404614
18.3217 21.1937 19.8422 -0.814502 0.533363 0.20352
17.7893 23.3178 18.5245 -0.26553 -0.970363 -0.988836
16.6588 21.0407 17.6458 -0.607811 1.2528 -0.942756
19.2353 21.7653 17.0099 0.49341 0.543415 1.14797
23.5583 20.6498 18.3323 -0.519705 0.492796 0.283085
20.9943 21.4897 19.1492 0.920409 0.0042291 0.222611
23.0007 23.2715 18.8679 0.0916851 -0.301893 -1.27055
22.03 22.1364 16.7203 -0.421795 0.694493 -0.589741
24.4155 21.8858 20.5977 1.80831 0.799524 2.48249
20.5964 23.8628 18.1246 0.277787 -0.937893 0.460909
19.2133 18.9744 23.1759 -0.889846 -1.38897 -0.112548
19.2854 16.5333 21.5022 -1.7841 -0.377378 -0.321275
17.6542 18.677 21.0013 -1.93884 -0.00558869 0.868989
21.4208 17.7874 22.4225 -1.00052 1.35306 -0.145864
21.6981 20 23.9533 -0.00556369 0.540715 0.731233
23.6448 17.2299 21.288 1.20952 -0.283177 1.13159
23.883 18.9728 23.0824 1.16279 -0.774412 -0.0838983
19.2893 21.2519 24.5432 0.185126 -0.0822904 0.1081
18.608 23.3627 23.1265 -0.811489 -1.76055 -0.516761
20.1694 21.2112 21.9773 0.819367 2.40484 1.38208
16.9789 23.1482 21.015 0.179499 0.386258 -0.274307
17.3628 20.9689 22.6253 0.442184 -0.965292 0.889794
22.5864 20.0651 21.0552 0.628418 -1.36176 0.181837
21.0986 22.8829 23.8127 -1.18988 -0.210626 -1.12369
22.2239 22.9713 21.3298 0.718421 -0.0272025 -0.481025
23.5672 21.7597 23.1606 0.921621 0.158324 -1.42286
ITEM: TIMESTEP
3000
ITEM: NUMBER OF ATOMS
37
ITEM: BOX BOUNDS ss ss ss
1.5703655924919325e+01 2.4961916294149415e+01
1.6192968724945445e+01 2.3983189639285527e+01
1.6625852000092554e+01 2.4648663325460355e+01
ITEM: ATOMS x y z vx vy vz
20.172 18.7692 19.9603 -1.32532 -0.217884 0.666206
18.7085 19.2531 17.6744 -0.372366 -1.00691 0.23916
16.4137 18.7121 18.8995 -0.660634 0.282894 -0.209189
18.4861 16.8242 19.0788 -0.13035 -0.112366 0.904365
24.9379 19.1271 20.5265 0.21628 -0.515899 0.839925
21.0261 16.2824 19.8835 0.90705 -0.0609513 -0.60532
20.5427 17.1943 17.5984 0.93247 1.4856 -0.659629
21.227 19.7711 16.9241 1.23383 -0.714448 -0.376053
22.6725 18.245 18.6767 1.53391 1.6935 -0.927252
15.8355 20.5639 20.5063 -0.497827 0.805634 -1.65976
19.573 23.5448 20.766 0.754114 -1.46777 0.549249
18.3322 21.0271 19.885 0.412025 -0.906784 -0.00773366
18.0331 23.5825 18.5146 -0.81972 -1.08845 0.751702
16.6777 21.1685 17.9141 -1.95129 0.198083 -0.659865
19.2677 21.8688 17.0947 0.328693 0.901583 0.794669
23.709 20.4547 18.2843 -0.133667 0.277473 0.292145
21.0424 21.3676 19.1141 -0.641882 1.45436 1.46582
23.3436 23.1739 18.6968 2.30212 -0.334158 0.890762
22.0857 22.1424 16.7494 0.223043 -1.2842 -1.05799
24.3935 21.6484 20.7601 -0.0683812 0.772794 -0.336534
20.7553 23.9663 18.3588 -0.354442 -0.482324 -0.0615511
19.2252 18.9392 23.4225 1.53111 1.14022 1.46332
19.2322 16.7623 21.7906 0.29413 0.931171 0.135039
17.6355 18.6775 21.1592 -0.579482 -0.610057 -0.367464
21.4714 17.9429 22.6237 -1.23377 -0.441777 0.289148
21.5997 20.1978 24.1582 -0.779276 -0.8478 0.350171
23.4365 17.1014 21.039 -1.03155 0.18103 -0.483852
23.9275 19.1409 22.8438 1.01196 -0.36738 -0.035023
19.3049 21.3396 24.5704 0.341297 0.698211 -1.08867
18.2784 23.2098 23.0723 1.63372 1.3976 0.790008
20.1363 20.9635 21.9559 0.577339 -0.758643 -0.670709
16.9807 23.0666 20.9262 -2.24768 0.198233 -0.289785
17.3244 20.9127 22.6399 0.485379 0.187528 0.691149
22.3823 19.9016 20.9875 -0.2591 -2.01454 -1.05123
20.9964 22.9133 23.4838 -0.221698 -0.826684 1.1725
22.1276 22.9902 20.9963 -0.193894 -0.68505 -0.127284
23.3209 21.8681 23.0792 -1.21615 2.13816 -1.61045
ITEM: TIMESTEP
4000
ITEM: NUMBER OF ATOMS
37
ITEM: BOX BOUNDS ss ss ss
1.5703655924919325e+01 2.4961916294149415e+01
1.6192968724945445e+01 2.3983189639285527e+01
1.6625852000092554e+01 2.4648663325460355e+01
ITEM: ATOMS x y z vx vy vz
20.2389 18.6858 20.0722 -1.11636 -0.312856 -0.350362
18.5217 19.1513 17.776 0.703831 -0.95206 -1.58236
16.1326 18.9238 18.6738 -0.328025 1.50392 1.32377
18.1868 16.9414 19.2754 1.00178 0.925547 -0.853064
24.9308 19.2024 20.3601 0.43991 0.652385 2.17523
21.2881 16.1545 20.0284 -0.405694 -0.184291 -1.34706
20.4372 17.1642 17.7668 -0.427735 -0.617843 0.24272
21.26 19.5351 17.2351 -0.670978 1.67017 0.193962
22.6491 18.1952 19.0255 -0.474875 -0.809668 -1.18978
15.6739 20.8734 20.2901 -0.680803 -1.33241 2.11007
19.505 23.7254 20.6018 -1.29889 0.548184 -0.270471
18.2879 20.9848 19.7101 0.967806 0.19883 1.37777
17.9928 23.4492 18.4804 -1.80505 -0.652571 -1.11943
16.6079 21.3349 17.6791 -0.113959 -1.12714 -0.374664
19.3021 21.6309 17.0914 -0.328536 0.152068 0.0686888
23.5662 20.6033 18.4123 0.98068 0.0604353 -0.185057
21.0447 21.6066 19.2882 -0.0711916 -1.6012 0.206437
23.1065 23.3626 18.8164 -0.564579 0.687404 -0.0931039
22.0028 21.9948 16.7632 1.68227 -0.512659 -0.254952
24.5458 21.9048 20.678 -1.54412 0.353454 1.08168
20.5865 23.9007 17.8832 -0.329685 1.00565 -0.234296
19.2101 18.8755 22.923 -0.355084 0.163326 -1.51417
19.341 16.4849 21.6139 0.685744 0.0984828 0.43446
17.4729 18.7751 21.0043 -1.62568 0.514263 -0.162662
21.5401 17.6984 22.517 1.61973 1.10733 0.897029
21.6454 20.0574 23.818 -0.820535 -1.28187 -0.433943
23.6305 17.209 21.2981 -0.0761398 0.96927 1.82405
24.0423 19.1137 23.0434 -0.299616 -1.46367 -1.03365
19.1877 21.0963 24.4384 0.481975 0.0764103 -0.507433
18.8362 23.1319 23.2067 -0.221201 1.83404 -1.52968
19.9189 21.124 21.8348 1.80291 -0.565886 -0.582809
17.1024 22.9556 21.0624 1.51773 0.74295 0.040868
17.1902 20.9409 22.6391 1.43178 0.143429 0.772163
22.5282 20.2596 21.0041 -0.599667 -0.201477 0.264057
21.382 22.7557 23.833 -0.454065 -0.417524 0.246332
22.0936 23.0723 21.3149 1.11764 -0.859023 0.963222
23.6264 21.7396 23.1567 0.178653 -0.515406 -0.603561
ITEM: TIMESTEP
5000
ITEM: NUMBER OF ATOMS
37
ITEM: BOX BOUNDS ss ss ss
1.5703655924919325e+01 2.4961916294149415e+01
1.6192968724945445e+01 2.3983189639285527e+01
1.6625852000092554e+01 2.4648663325460355e+01
ITEM: ATOMS x y z vx vy vz
20.2472 18.87 20.0853 -1.28808 0.723737 0.278728
18.6805 19.0522 17.6088 -0.00790235 -0.152999 -1.58188
16.4629 18.715 18.7204 -0.574725 -0.933907 0.357652
18.3349 16.8972 19.153 0.422836 -0.200232 0.111444
24.8899 19.3722 20.4048 0.366333 -0.678027 -0.219857
21.0093 16.176 20.2838 -0.185311 0.200106 -0.920119
20.5417 17.2379 17.7829 0.277952 -0.133708 1.21565
21.3225 19.6643 17.0942 -0.435929 -0.470566 0.966601
22.6848 18.2741 19.013 0.755588 -0.165615 0.983094
15.9819 21.0567 20.0997 0.0942734 2.1873 -1.55765
19.7956 23.6367 20.2501 1.37409 -0.985922 0.453545
18.5407 21.0419 19.6799 -0.865038 -1.05903 1.32146
17.6512 23.2307 18.4946 0.299386 0.379409 1.27179
16.7041 21.0419 17.4577 -0.564735 0.264629 0.133077
19.2766 21.6263 16.9648 0.283168 0.550531 0.600249
23.639 20.7598 18.3045 0.931788 0.297059 1.21394
21.1613 21.3944 19.1003 -0.276959 -0.878959 0.127914
22.4589 23.703 18.9932 -1.15038 -0.865861 0.861968
21.9872 22.3162 16.6489 -0.158514 0.975653 -1.1027
24.2844 21.9946 20.5082 -1.231 0.0462332 0.515648
20.2426 23.9345 17.6991 -0.172447 -0.651927 0.902276
18.9822 18.8447 23.656 1.4739 -1.07299 0.348945
18.9749 16.6962 21.6719 -0.175827 1.14246 -1.48883
17.7491 18.8455 21.0912 0.139891 2.76632 1.40838
21.3693 17.6793 22.4981 -0.699877 0.95681 0.401487
21.742 19.8216 24.0954 -0.173224 -0.850939 0.797586
23.4287 17.1369 21.0239 0.133286 0.749848 0.356212
24.0309 18.984 22.9996 -0.460089 0.871852 -0.51399
19.031 21.1879 24.5198 -0.725352 -1.14452 -0.0561694
19.1778 23.2582 22.9429 1.27831 -0.0192161 -0.0955371
19.9781 20.8486 22.1038 0.43634 1.26018 -0.855008
17.3516 23.2334 21.1691 0.197455 -2.17413 -1.85202
17.2688 21.1591 22.6164 -0.497969 -1.33077 0.0360462
22.4696 20.0329 21.1099 1.06323 -0.876624 -2.84231
21.4487 22.4814 24.1181 -0.0306139 1.76347 -0.763441
21.9535 22.8683 21.4864 -0.659884 -0.787392 -1.23554
23.7618 21.5416 23.1651 0.806024 0.297744 0.421363
ITEM: TIMESTEP
6000
ITEM: NUMBER OF ATOMS
37
ITEM: BOX BOUNDS ss ss ss
1.5703655924919325e+01 2.4961916294149415e+01
1.6192968724945445e+01 2.3983189639285527e+01
1.6625852000092554e+01 2.4648663325460355e+01
ITEM: ATOMS x y z vx vy vz
20.1285 18.8704 20.2235 -0.159144 -1.45313 1.33935
18.6639 18.9999 17.7412 0.330462 0.208867 0.0651162
16.2727 18.8683 18.7703 -0.424095 0.849145 -0.538802
18.4015 16.7362 19.2413 0.474535 0.388337 0.457311
25.0587 19.369 20.4535 -1.1388 0.94048 0.0122014
21.2464 16.3371 20.1751 1.30254 0.209311 -0.325457
20.5193 17.1512 17.7514 1.2819 0.610849 -0.391443
21.181 19.7535 17.1749 0.643866 -0.2108 -0.610709
22.6305 18.4397 19.103 0.783065 0.451773 1.11597
15.7745 20.8216 20.2908 0.0191746 -0.770099 -0.0108966
19.9477 23.7227 20.4172 -0.0233875 0.976643 0.762229
18.395 21.0656 19.7298 -1.23623 -0.717901 0.473808
17.8007 23.5015 18.2216 1.51573 0.134731 -0.684044
16.591 21.2265 17.7923 -0.769134 -0.159771 1.59185
19.2981 21.594 17.1433 0.838874 0.170735 0.720693
23.6166 20.788 18.2379 -0.916984 0.201803 -1.05577
21.197 21.4194 19.2945 -1.10037 -0.0639741 1.3916
22.9009 23.5447 18.8518 0.544099 -0.288099 -0.639444
21.902 22.3115 16.6631 0.865977 -0.679177 0.0365521
24.501 21.8325 20.4688 -1.58539 -2.99011 -0.0384128
20.4854 23.9283 17.8453 0.690573 1.0731 -0.570355
19.111 18.8401 22.9494 -0.0781011 -0.123003 0.202488
19.0643 16.5578 21.7546 0.40991 0.944605 0.679133
17.3473 18.578 21.0033 -0.605648 -0.43058 -0.615752
21.3969 17.5183 22.6189 -0.649413 -0.229736 0.09233
21.6322 19.919 23.9451 -0.912072 -0.927103 -0.227447
23.5795 17.103 21.1681 0.446868 -0.364465 -0.705396
23.9727 18.7961 23.0302 -1.84909 2.09229 -0.29178
19.2651 20.9577 24.5857 1.23294 0.210146 -0.686589
18.6877 23.2909 22.91 -0.624705 -1.10639 0.475757
20.104 21.1899 22.0501 0.192063 -0.108543 -0.491483
16.9874 23.1658 20.8586 -0.191074 0.253395 0.109951
17.3584 21.1435 22.6057 -0.139945 0.0821475 -0.408096
22.5412 19.9631 21.2183 0.251991 -0.623956 -1.94281
21.2062 22.6288 23.8436 1.40407 2.04171 1.67424
22.2975 23.2143 21.4601 -1.17504 0.0692 -0.74862
23.5512 21.4669 23.0225 0.349995 -0.662426 -0.217269
ITEM: TIMESTEP
7000
ITEM: NUMBER OF ATOMS
37
ITEM: BOX BOUNDS ss ss ss
1.5703655924919325e+01 2.4961916294149415e+01
1.6192968724945445e+01 2.3983189639285527e+01
1.6625852000092554e+01 2.4648663325460355e+01
ITEM: ATOMS x y z vx vy vz
20.1624 18.7546 19.9303 -0.234837 -0.170423 1.05804
18.4452 19.0535 17.678 0.03674 -0.950185 -0.166781
16.19 18.7437 18.852 0.917376 0.619795 0.495199
18.2569 16.7764 19.2096 -0.35931 0.846876 -1.10879
24.9146 19.2374 20.3041 0.575135 1.65452 -0.482679
21.2342 16.2135 20.1549 1.73435 -0.771504 -0.00339098
20.5936 17.2251 17.6789 -1.03782 -0.651041 0.860726
21.2558 19.6614 17.075 1.24178 0.165066 0.0152371
22.7298 18.2608 19.1115 -0.660542 -1.62572 -0.0688254
15.7591 21.183 19.9089 0.0075958 -0.933423 -0.635171
19.6621 23.383 20.8621 2.22608 0.502485 1.25812
18.2659 20.9637 19.6976 -0.488417 -0.668418 0.670336
18.0365 23.3587 18.6545 -0.313163 -1.86274 0.87974
16.7314 21.324 17.505 0.502813 0.595226 -0.644039
19.3146 21.5842 16.9997 -0.160765 0.876386 -0.105975
23.6146 20.7801 18.3886 -0.616627 1.09799 -0.275258
21.0579 21.4823 19.2594 -0.206749 -0.549264 0.16728
23.3839 23.2474 18.7356 0.176103 -0.371095 -0.890046
21.907 22.3913 16.6837 -0.519203 -0.851183 0.0594857
24.6825 21.8699 20.6845 1.17218 -0.00893722 -0.5226
20.6307 23.8867 18.3338 0.367297 1.89712 -0.334471
18.9295 18.8404 23.5338 -0.769229 -0.358308 -0.340278
19.0987 16.5549 21.7447 -0.918242 -0.597048 -0.301428
17.5038 18.6126 21.1167 0.899481 -0.0194927 -1.46796
21.365 17.9515 22.4277 0.225838 0.280556 1.54651
21.8016 20.2289 23.9227 1.87064 0.380958 1.00288
23.558 17.044 21.1792 -1.73752 1.06636 0.228168
24.2089 19.0918 22.7643 0.294821 0.10845 -0.047037
19.1213 21.1426 24.4753 -2.27275 -0.216122 -0.630467
18.5351 23.1145 23.263 0.203946 -0.731111 1.19104
19.9246 20.7879 21.8433 -0.419473 -0.223994 -0.260769
16.889 23.0775 21.1241 -0.861329 0.770556 -0.855252
17.1811 20.9943 22.6165 0.306588 1.19196 1.46693
22.5079 20.145 21.1977 0.312378 0.821026 -0.273181
21.1751 22.7034 23.477 0.264387 0.331181 0.798472
22.3365 23.1122 21.1021 -0.111522 0.22278 -0.543271
23.6504 21.8327 23.1191 -1.64803 -1.8693 -1.74051
ITEM: TIMESTEP
8000
ITEM: NUMBER OF ATOMS
37
ITEM: BOX BOUNDS ss ss ss
1.5703655924919325e+01 2.4961916294149415e+01
1.6192968724945445e+01 2.3983189639285527e+01
1.6625852000092554e+01 2.4648663325460355e+01
ITEM: ATOMS x y z vx vy vz
20.1885 18.8185 20.1575 0.892956 0.0611848 1.36945
18.6953 19.3496 17.847 -0.410472 -1.10622 -0.579507
16.4486 18.8074 18.6968 -1.16846 -0.00892085 -0.57088
18.462 16.8058 19.2148 -0.947817 -2.52787 -0.0950286
24.8978 19.0562 20.2295 0.039897 0.104207 -0.660294
21.1875 16.1614 20.0212 0.56963 0.791802 0.615661
20.4154 17.077 17.5933 -0.69446 -0.16249 -0.361556
21.2637 19.664 17.1144 -0.520093 -0.386585 -0.545609
22.6374 18.1773 18.9365 0.412965 -1.25851 -0.982251
15.7659 20.5955 20.6051 -1.30504 0.648547 0.178007
19.6993 23.607 20.4563 1.57634 -0.588808 -1.00729
18.3444 21.0834 19.7854 -0.48824 -0.0503217 1.13846
17.9759 23.5716 18.4332 0.644404 -0.60311 -1.11865
16.3804 21.4464 18.1597 2.27848 0.810181 0.31909
19.27 21.852 17.1258 0.117325 2.04342 -1.1747
23.6104 20.7809 18.3449 0.690813 1.19862 0.381089
21.0394 21.3083 19.1984 0.857889 -0.125883 0.120709
23.2151 23.3476 18.8225 -0.144782 0.662577 0.0188393
22.0038 22.2147 16.7661 0.0769965 1.62809 -0.621417
24.5972 21.6118 20.9081 -0.339713 -0.431846 2.27739
20.6293 24.0976 18.2441 -0.810496 1.14473 -0.605198
19.1789 18.8966 23.0865 -0.644239 0.326242 0.472387
19.2225 16.5182 21.672 -0.28763 -1.05321 1.4439
17.3785 18.3747 21.2418 -0.928851 -2.22079 0.959989
21.6223 17.6639 22.4883 -0.897208 0.281725 0.637159
21.6171 20.0747 23.9167 1.67256 1.41597 -0.223491
23.7321 17.032 21.0312 1.69036 -0.126214 0.120738
23.9262 19.0356 22.9603 -0.356872 -0.412404 -0.0813165
19.1628 21.2919 24.4652 -0.480198 -1.40942 0.234437
18.3823 23.3406 22.8038 0.936111 1.08806 1.28252
20.0329 21.1878 21.9088 -0.787215 1.04788 -1.98309
16.8079 23.0589 20.6758 0.116452 0.0261505 -0.468674
17.3859 21.044 22.4987 0.462672 0.102061 0.518891
22.5164 20.022 21.1358 -0.619954 -0.769717 -1.46291
21.1204 22.9729 23.511 -1.06923 -0.327362 0.195197
22.3228 22.9967 21.2401 -0.968819 0.914413 0.742519
23.4788 21.6704 23.3182 0.833938 -0.726178 -0.484582
ITEM: TIMESTEP
9000
ITEM: NUMBER OF ATOMS
37
ITEM: BOX BOUNDS ss ss ss
1.5703655924919325e+01 2.4961916294149415e+01
1.6192968724945445e+01 2.3983189639285527e+01
1.6625852000092554e+01 2.4648663325460355e+01
ITEM: ATOMS x y z vx vy vz
20.0158 18.7458 20.0097 0.0498219 -0.162782 0.492656
18.5131 19.0271 17.5582 2.00092 0.909635 0.794485
16.374 18.8358 18.8069 -0.870225 -1.16207 0.32863
18.1655 16.7378 19.1017 1.18255 0.712368 0.375436
24.9467 19.3294 20.7393 -1.83756 -0.328277 0.429141
21.4616 16.1972 19.9849 1.51598 -0.56069 -0.539858
20.5417 17.1088 17.9179 -0.49397 0.549247 -0.370007
21.2694 19.7689 17.1702 0.178312 -0.635713 1.15514
22.7729 18.317 19.0334 -0.882552 1.01836 0.00928521
15.7777 21.1262 20.1008 0.195746 0.452069 -0.185572
19.7711 23.6334 20.4228 0.236453 2.3419 -2.28758
18.4056 20.9458 19.7157 -0.0522046 -0.0642776 0.092013
17.6289 23.4962 18.617 -0.320201 -0.620255 0.921959
16.6834 21.1148 17.6118 -1.68766 1.56313 0.716336
19.0972 21.5661 16.9608 1.94117 1.29942 -0.00458951
23.6237 20.692 18.4546 1.89539 -0.175085 -1.13498
21.0859 21.4219 19.2314 -0.694245 -0.718985 -0.79821
22.8528 23.3914 18.917 -0.212759 -0.307938 -1.10441
22.0471 22.153 16.7044 0.0121674 -0.0386667 0.832252
24.5627 21.8846 20.5943 0.771144 0.657542 -1.27545
20.1946 23.8157 18.0301 -2.06589 -0.168384 -0.705537
19.2595 18.857 23.201 0.27243 0.97708 1.46486
19.1608 16.5498 21.4212 0.681591 -0.622529 0.329688
17.5487 18.8359 21.0988 -0.741709 -0.404942 -0.423144
21.4156 17.8384 22.274 -1.37162 -1.58263 0.818835
21.6053 20.0592 23.9493 0.738884 -0.175089 -0.0562361
23.7087 17.0757 21.1089 1.1593 -0.524333 -1.24631
23.8855 18.9486 23.0896 -0.691629 -1.91735 1.46387
19.401 21.2798 24.6488 -0.4229 -0.315644 -0.212857
18.8701 23.2923 23.112 0.392844 -0.675061 -0.529825
19.9155 21.0968 21.9268 0.297067 -0.0672412 0.460159
16.9928 23.2067 21.1095 -1.24439 0.127099 -0.545949
17.348 21.0048 22.492 0.658313 0.97854 -0.00231516
22.4346 20.0928 21.1209 1.16733 -0.846243 0.532346
21.4749 22.7497 23.8553 -1.77277 -0.473886 -0.675767
22.0309 22.8209 21.3933 0.28555 1.63992 0.779852
23.7715 21.5977 23.1308 -0.270685 -0.678242 0.101651
ITEM: TIMESTEP
10000
ITEM: NUMBER OF ATOMS
37
ITEM: BOX BOUNDS ss ss ss
1.5703655924919325e+01 2.4961916294149415e+01
1.6192968724945445e+01 2.3983189639285527e+01
1.6625852000092554e+01 2.4648663325460355e+01
ITEM: ATOMS x y z vx vy vz
20.1202 18.7845 19.8502 -0.185544 -0.9914 -0.186437
18.6157 19.1326 17.539 -0.174223 -0.0544439 0.287249
16.1837 18.7921 18.9605 -0.486132 -0.0227944 2.08559
18.3022 16.9305 19.156 -0.12231 0.569097 -0.33173
24.7048 19.1393 20.1946 0.850305 0.794616 1.5501
21.0172 16.2479 20.0209 0.182899 0.797641 0.412331
20.4956 17.0949 17.6794 1.06664 0.893476 -1.571
21.2708 19.6149 17.1749 -0.263682 0.0114988 -0.461381
22.6512 18.203 18.9978 1.645 -1.12565 0.395023
15.8823 20.9894 20.3711 -0.183564 0.0157477 -0.637453
19.789 23.4109 20.3011 -0.351631 -0.0559145 2.13652
18.3396 20.9677 19.6337 0.112639 -0.527361 0.472348
17.7765 23.2722 18.434 0.0659818 0.467842 -0.905111
16.6782 20.95 17.5509 0.5921 1.18091 -0.207435
19.253 21.7589 17.0028 0.321042 -1.2959 0.327358
23.5335 20.8342 18.4834 -1.44054 0.272853 -0.190915
20.9981 21.437 19.1223 1.29299 -0.0495788 -1.64354
22.8681 23.453 19.0557 -0.836425 -3.8219 -1.96807
22.0764 22.0207 16.6753 0.285308 0.0496412 1.09717
24.5667 22.0328 20.7221 -0.753166 -0.0550956 1.03249
20.5143 24.0629 17.8893 -0.633649 0.579004 0.709386
19.1712 18.8229 23.248 1.19101 1.31735 -0.310743
19.2131 16.5519 21.8326 0.757431 0.947104 1.29558
17.6097 18.7726 21.1199 0.632604 -0.272521 -2.1572
21.4947 18.2101 22.2814 0.652814 -0.601627 -1.3613
21.5562 20.0081 24.1901 -0.273702 -0.120762 0.544876
23.6448 17.0323 21.133 -0.945452 0.0965563 -0.2644
24.1547 19.1125 22.7847 0.451853 -0.217038 0.258484
19.0296 21.3359 24.5185 -0.290813 0.164716 -0.318497
19.0314 23.2529 22.942 -0.349171 0.530254 0.345487
20.0767 20.9242 21.9524 -1.15263 0.594894 -0.859597
17.1761 23.129 21.1119 -1.30693 0.0985611 1.49488
17.273 20.8749 22.6161 -1.21718 1.35909 0.690886
22.5696 20.2879 21.0624 0.522732 1.43823 -0.26754
21.2643 22.6038 24.0999 0.564338 -1.40879 0.210647
22.1179 22.9763 21.5839 -0.184579 -0.733514 -2.12106
23.5948 21.59 23.3231 -0.0363661 -0.824783 0.416994
ITEM: TIMESTEP
11000
ITEM: NUMBER OF ATOMS
37
ITEM: BOX BOUNDS ss ss ss
1.5703655924919325e+01 2.4961916294149415e+01
1.6192968724945445e+01 2.3983189639285527e+01
1.6625852000092554e+01 2.4648663325460355e+01
ITEM: ATOMS x y z vx vy vz
20.0004 18.7319 20.3191 -1.15056 1.52004 0.579802
18.7343 19.1976 17.6572 0.461366 -0.288534 -0.13944
16.3157 18.6887 18.5385 -0.254914 -1.10166 1.01946
18.3739 16.9294 19.1031 0.876129 0.79827 1.27594
24.9631 19.3177 20.5532 0.823792 -1.82384 0.512827
21.2032 16.3597 20.045 -1.08636 0.983978 -1.27709
20.4739 17.0925 17.7151 0.399409 -0.343438 -0.0240938
21.0874 19.8916 17.2013 -0.512155 -0.760268 0.949834
22.6164 18.2594 19.0667 -0.0737949 -0.330298 -1.10453
15.7352 20.7775 20.2368 1.02211 -0.881437 0.33035
19.6062 23.7138 20.6246 0.241812 -0.615981 0.396915
18.333 20.9556 19.7064 0.473493 -0.80714 0.876516
18.0984 23.4221 18.6269 -0.448181 -0.518751 -1.37301
16.5259 21.2527 17.7976 -0.47245 0.899296 -0.0244676
19.2007 21.652 17.0259 -0.44333 0.157581 -0.674425
23.5507 20.6509 18.3397 -0.896035 0.487636 -0.671327
21.0066 21.541 19.321 0.296333 -0.210175 -1.3352
23.1587 23.3528 18.6175 -1.83286 -0.592975 0.538313
21.9824 22.1403 16.4712 -0.418443 -1.61219 0.546968
24.5396 22.01 20.4325 -0.365796 -0.121694 0.92692
20.6521 23.7344 18.0743 0.890593 -1.44891 0.733845
19.0248 18.9677 23.236 0.791964 0.826738 0.158438
19.0871 16.6352 21.6433 0.240893 -0.43131 -1.03573
17.3066 18.704 20.9835 0.439765 1.30458 -1.34154
21.4622 17.7066 22.5557 -0.297439 -0.18251 -2.11787
21.7427 20.0192 23.8684 -0.787684 1.01692 1.25168
23.6735 17.245 21.2493 0.805847 0.999857 -0.448969
23.9184 19.038 23.1076 0.801663 0.299919 -0.771972
19.4347 21.1137 24.5702 0.262913 -0.411756 0.18923
18.7476 23.1484 23.0974 -2.01846 0.441689 1.12514
19.9274 21.1561 21.9149 -0.764611 -0.39362 -0.168528
16.9851 22.8683 20.9625 2.096 0.463279 -0.791528
17.167 20.8688 22.6042 -0.0212384 1.47822 0.214063
22.4523 20.0767 21.1169 1.26977 2.9561 -1.31248
21.4065 22.6983 23.8912 -0.139676 -0.555341 0.113455
22.3248 23.0775 21.3915 0.429837 -0.335873 0.320774
23.7967 21.6201 22.9486 -0.639705 -0.866413 2.55174
ITEM: TIMESTEP
12000
ITEM: NUMBER OF ATOMS
37
ITEM: BOX BOUNDS ss ss ss
1.5703655924919325e+01 2.4961916294149415e+01
1.6192968724945445e+01 2.3983189639285527e+01
1.6625852000092554e+01 2.4648663325460355e+01
ITEM: ATOMS x y z vx vy vz
20.1574 18.7868 20.1851 0.27468 -0.727169 1.41822
18.7528 19.001 17.6209 0.590378 0.535391 -0.843144
16.3252 18.8829 18.6773 -0.900311 0.45583 -1.6895
18.3878 16.8228 19.2896 0.115891 -0.874589 0.108198
24.9754 19.4636 20.5108 0.598627 -0.804494 1.00734
21.0233 16.3791 20.371 -1.97715 -1.29184 0.77122
20.4698 17.0867 17.7589 0.846952 0.416401 1.19335
21.2662 19.7017 17.0682 -0.117567 -1.28614 -0.873693
22.6845 18.1777 19.0101 -1.69627 2.39391 -0.852835
15.7795 21.1714 20.1415 -0.26603 0.0665126 1.28742
19.7107 23.5494 20.3915 -0.464714 -1.32275 1.39033
18.4491 21.0519 19.5763 1.36911 -0.683593 0.210476
17.5645 23.3834 18.5699 1.48991 -0.232958 2.19009
16.755 21.0521 17.5853 -0.508147 0.321003 0.233354
19.2312 21.692 17.0992 -0.354896 -2.0554 -1.09569
23.5443 20.6935 18.4174 -0.295448 0.112913 0.512884
21.0481 21.5011 19.062 -1.66981 0.848002 -0.307971
22.7679 23.4035 18.729 -1.04068 1.9139 -1.35658
21.9062 22.2156 16.6005 -0.0145308 0.6101 0.0999696
24.2149 22.1063 20.4873 0.487976 1.28008 0.224259
20.3843 24.0819 18.0269 0.0499507 -0.92883 -3.48712
19.104 18.7345 23.3641 0.0702463 -0.727611 -0.134626
18.8989 16.6081 21.8104 -0.0896771 0.38079 -1.32513
17.4854 18.7949 20.972 -0.567178 1.57207 -1.55079
21.6116 17.6867 22.5896 0.783771 0.332511 -1.24188
21.7303 19.8191 23.8026 0.0850009 -0.146321 0.452211
23.6435 17.2057 21.1661 1.70837 -0.236042 0.829893
24.2112 18.9908 23.024 -0.713466 -0.503082 1.10052
19.1879 21.1034 24.5567 0.0703943 0.813357 0.220699
19.1134 23.2222 23.0229 -1.03345 -0.32365 1.43358
20.1867 21.0598 21.9225 0.293412 -0.691412 -1.13377
17.1227 23.2156 20.9995 0.11683 -0.476284 1.0489
17.4922 21.0012 22.4274 0.4942 0.695874 -0.848183
22.5214 19.9176 21.0623 -0.609123 -0.548395 0.795928
21.3534 22.4003 24.192 0.983975 0.0432883 -0.730887
22.0364 23.1281 21.5507 1.54058 1.7346 0.0587577
23.5181 21.5228 22.9738 0.348186 -0.665978 0.884184
ITEM: TIMESTEP
13000
ITEM: NUMBER OF ATOMS
37
ITEM: BOX BOUNDS ss ss ss
1.5703655924919325e+01 2.4961916294149415e+01
1.6192968724945445e+01 2.3983189639285527e+01
1.6625852000092554e+01 2.4648663325460355e+01
ITEM: ATOMS x y z vx vy vz
20.2981 18.7337 20.2541 -1.05941 0.900696 1.53773
18.4946 18.9703 17.3328 0.161222 0.757295 0.0439282
16.3259 18.779 18.7672 1.01318 1.38039 -0.338213
18.4164 17.0288 19.281 -0.856246 -0.621021 0.122823
24.9949 19.5074 20.5017 -1.96203 0.667918 -1.24755
21.1516 16.2594 20.1574 0.57466 1.15664 -0.365853
20.4281 17.1246 17.6963 0.335757 0.361392 -0.0282582
20.9246 19.5886 17.499 0.321161 -1.77029 0.864876
22.7741 18.2286 18.8873 -0.647533 2.7259 0.282392
15.7255 20.8976 20.2106 -0.782721 -1.24931 -0.863414
19.9836 24.0908 20.3141 0.363993 0.235296 -0.876834
18.4688 20.5711 19.5491 1.8862 -0.405975 -0.898011
18.0275 23.3278 18.547 -0.458203 1.96012 0.74516
16.7029 21.3166 17.6795 1.11117 -0.760111 -0.99651
19.2805 21.6387 16.8656 0.322475 -0.0623935 0.953089
23.3132 20.7985 18.4876 -0.00502956 -1.00594 0.996482
20.7765 21.9288 19.2314 -0.152801 -0.36339 0.321177
22.8119 23.5325 18.9174 -0.364434 -1.39974 -1.84815
21.9036 22.1149 16.753 -0.329 -0.216135 0.210007
24.4349 22.0216 20.5527 -0.918461 1.02457 1.08671
20.3764 24.026 17.6605 0.442351 0.527198 -1.58281
19.0935 18.7771 23.3131 -1.06949 0.111083 -0.374079
19.0179 16.6378 21.8556 -0.203234 0.284767 0.54448
17.4033 18.7077 21.1004 0.42453 -2.08119 0.122494
21.4845 17.7116 22.4534 0.362047 0.076777 0.132518
21.6053 19.8722 24.0049 -0.266142 0.265506 -0.514288
23.7673 17.1703 21.0438 -2.81609 -0.977656 1.00772
24.0113 18.9137 22.8724 1.15658 0.423273 -0.613988
19.2841 21.3164 24.5379 2.17148 -0.0565213 1.94753
19.0325 23.3245 22.9141 0.51226 -1.6032 1.56454
19.9686 21.0164 21.8741 1.28611 -1.41474 -0.503543
17.3778 22.8266 20.9038 0.870646 0.0715361 -1.99299
17.311 20.9553 22.5961 -0.548966 -0.260663 1.10083
22.5315 20.0807 21.0857 -0.505158 -0.363314 -2.28129
21.4797 22.5233 24.1402 -0.624023 -0.638204 1.57865
21.9954 22.8964 21.5603 -0.286026 2.87073 0.669972
23.6376 21.4 23.2138 0.539184 -0.55128 -0.507343
ITEM: TIMESTEP
14000
ITEM: NUMBER OF ATOMS
37
ITEM: BOX BOUNDS ss ss ss
1.5703655924919325e+01 2.4961916294149415e+01