ITEM: TIMESTEP
0
ITEM: NUMBER OF ATOMS
37
ITEM: BOX BOUNDS ss ss ss
1.6054298262793367e+01 2.5469418188088106e+01
1.6832762411486019e+01 2.4748818245362958e+01
1.5839266210986274e+01 2.4975468101239610e+01
ITEM: ATOMS x y z vx vy vz
18.2731 18.4663 17.8504 0.101873 0.475927 0.00907454
20.1844 20.4645 18.4246 -0.988587 0.896111 -1.18307
17.0991 17.5142 20.0781 -0.0769034 -0.596416 0.294621
19.765 19.5285 15.8433 1.28663 0.247887 -1.14374
19.8855 17.8625 20.0149 0.863246 2.06522 -0.382637
16.0584 19.7414 19.0129 0.909499 -1.08816 1.50022
25.4653 19.2906 19.9989 1.00429 -0.0681665 0.251483
21.1748 17.9981 17.5906 -0.0566976 1.53778 -1.65841
22.4707 16.8368 19.7407 1.13122 0.924315 0.565777
22.1931 19.526 20.182 0.907252 -0.450727 -0.0844246
22.307 20.4169 16.7333 0.743115 -0.326202 -0.373361
23.7825 18.5704 18.1011 -0.744878 1.97688 -2.44192
17.7697 21.057 17.2259 -0.422711 -0.177336 -0.53912
19.1036 23.1695 18.4152 0.292487 0.162081 1.02606
20.1653 22.1124 16.1457 -2.04089 -0.720228 -0.584799
16.7777 22.3006 19.4942 1.36629 -0.663271 -1.69749
21.8765 22.7713 18.1772 -1.32032 -0.653866 0.451213
20.8795 24.7447 19.7411 -0.32164 -1.52661 -0.300432
23.9582 21.2231 18.9365 -1.77807 -1.59521 1.4235
18.3004 20.1754 20.4473 1.20232 0.430318 0.825847
18.4669 17.7462 22.3858 -2.06389 1.47697 0.310418
20.5489 20.7088 24.9714 0.180016 0.593206 -1.26273
18.0545 20.0085 23.8257 -1.72105 1.39495 0.73992
16.1833 19.2894 21.8638 1.01912 -0.138156 0.505124
20.3475 19.8494 22.3007 -3.23094 -2.04326 -0.43513
20.1358 18.1541 24.4907 -2.39707 0.458632 -0.309354
23.942 17.9953 21.7177 -0.0615163 -0.395581 1.52941
22.6077 19.3084 23.7055 2.02325 -0.420828 0.6689
21.3767 17.2603 22.2445 1.03808 -0.544038 0.440457
24.0827 20.7797 21.7317 -1.39449 0.202522 0.69292
16.8964 21.8792 22.1439 1.95635 -0.781804 -0.792155
20.552 22.0943 20.6587 1.60835 0.429878 0.380322
18.5143 23.8701 21.0301 1.05598 -0.852553 0.840323
19.3148 22.4039 23.2409 -0.331354 0.256292 1.52952
22.0913 21.9867 23.1053 0.702306 -0.0780787 0.591116
20.9936 24.3346 22.3213 1.09171 0.505276 1.01662
23.0167 23.1756 20.7232 -1.53236 -0.913755 -2.40408
ITEM: TIMESTEP
1000
ITEM: NUMBER OF ATOMS
37
ITEM: BOX BOUNDS ss ss ss
1.6054298262793367e+01 2.5469418188088106e+01
1.6832762411486019e+01 2.4748818245362958e+01
1.5839266210986274e+01 2.4975468101239610e+01
ITEM: ATOMS x y z vx vy vz
18.353 18.3673 17.6274 -1.24142 -1.06322 -0.0764119
20.3914 20.4609 18.2918 1.56294 0.900175 -3.41674
17.3345 17.4202 19.893 -0.780115 -0.372278 -0.276112
20.035 19.6186 15.8324 0.0719698 -1.27083 1.18563
19.9615 17.1202 19.9013 -0.852911 -0.606484 -1.63634
16.189 19.6788 18.8728 -0.435277 -0.537094 -0.195833
24.6726 18.9451 19.9703 -0.737711 1.21755 -0.938184
20.9717 17.7271 17.4796 0.90624 0.258879 -0.327814
22.7048 16.9058 19.8616 0.554921 -0.173775 1.95464
21.872 19.3992 20.4496 -0.603577 0.492148 0.83503
22.3795 20.771 16.5571 0.0123 0.491149 0.407117
23.1931 18.6777 17.8911 -0.478113 0.0884981 0.931612
17.9052 20.9684 17.1253 0.310836 1.00171 -1.94025
19.1235 23.0168 18.4571 -0.816478 -0.150435 -0.0687223
20.1804 22.2353 16.1485 -0.362864 -0.183516 -0.524383
17.0084 22.0142 19.6726 0.286286 0.0259125 -0.735877
21.8625 23.0599 18.1667 0.0656751 0.98913 1.63192
20.6708 24.9223 19.704 -0.324791 0.423934 -0.0335441
23.6063 21.2789 18.8932 0.557425 -0.106763 0.0370395
18.5406 19.7609 20.0897 -0.756403 -1.05769 -0.938437
18.5634 17.8378 22.3365 -0.0928054 1.37903 -0.0806086
20.5389 20.6716 24.9911 0.0522607 -0.21472 1.01941
18.0259 20.088 24.262 0.606626 0.124627 1.72774
16.4661 19.2478 21.7882 1.21097 -0.458307 1.328
20.2134 20.2353 22.4663 0.236849 -0.579471 1.10583
20.1403 18.2384 24.6034 -0.570686 0.140214 0.363312
23.7385 17.7246 22.0705 -1.34579 -0.929291 -1.06711
22.5053 19.361 23.4173 0.244345 0.129925 -0.752169
21.1037 17.3194 22.2742 0.210395 -0.175621 0.676976
23.7252 20.9017 21.6651 0.764981 0.0981772 -0.271363
17.6965 21.7026 22.101 0.524131 0.724188 -0.418312
20.6742 22.2648 20.7124 -0.0970144 0.85083 0.21955
18.6996 23.9869 21.1784 0.572417 -0.0186293 0.19865
19.5052 22.692 23.6976 0.436861 0.126371 0.530233
22.0761 22.222 23.2438 0.242129 0.415897 -0.34547
20.9785 24.4807 22.2237 -1.03538 -2.66776 -0.789261
23.0087 23.2916 20.6984 1.10078 0.687525 0.68026
ITEM: TIMESTEP
2000
ITEM: NUMBER OF ATOMS
37
ITEM: BOX BOUNDS ss ss ss
1.6157318358851228e+01 2.4625959114413781e+01
1.7076487203665508e+01 2.4770445868006288e+01
1.5816382495092553e+01 2.5032405900787950e+01
ITEM: ATOMS x y z vx vy vz
18.5554 18.4549 17.7531 -1.96495 -0.71094 -0.809372
17.1881 17.4582 19.8946 -0.481446 0.197183 -0.164113
20.5633 19.4714 16.0137 0.201279 -0.37636 -0.624036
19.8623 17.5841 20.0982 1.03891 1.19539 -1.95764
16.202 19.61 18.6999 -0.0628656 0.215815 0.414801
18.0427 20.9872 17.407 0.441095 -0.306569 -0.295641
18.507 20.0058 19.9485 -0.309261 -0.976939 -0.0912889
20.6976 20.4609 18.32 0.10607 0.772085 -1.10543
24.6723 18.8361 19.6971 -1.61776 0.893921 1.00258
20.7842 17.3726 17.5936 -0.622883 -1.2779 -0.730846
22.5212 17.0624 19.8583 -1.31964 0.243173 1.31389
22.903 18.7816 17.7007 0.672119 -1.28725 -0.335216
19.0488 22.9314 18.5493 0.525028 1.02564 1.29726
20.0022 22.0471 16.1216 -0.00313676 -0.536893 -0.135707
16.7284 22.0121 19.711 -1.78044 0.0573211 1.13577
22.452 21.1216 16.3797 2.15158 0.677615 1.66308
21.6719 23.1008 18.1371 -0.0133995 -0.0135661 -0.958123
20.5782 24.7493 20.0523 1.45573 -0.95446 -0.371973
23.639 21.22 18.9165 -1.21773 -0.851869 1.20755
18.4475 17.8755 22.5359 0.308159 -2.69453 -0.117065
17.9486 20.1085 24.1008 -0.0308834 -0.681806 -0.122415
16.5039 19.2885 21.4892 -1.99938 0.68669 -0.437985
19.9072 19.9902 22.3902 0.268042 -0.694232 0.416682
20.0704 18.3018 24.5512 2.12622 -0.78921 0.402403
22.0285 19.4819 20.5219 1.31875 -0.8328 0.162746
20.576 20.9107 24.8719 1.00591 0.131599 -1.09708
23.9717 18.1099 22.1148 -0.49803 -0.100451 0.312131
22.3309 19.3805 23.6382 0.360306 0.484482 1.31547
21.2321 17.4034 22.3143 0.752869 -0.169413 0.292003
24.0097 20.7343 21.5437 0.969957 0.698933 -0.0716161
17.6003 21.6627 22.1236 -1.74443 0.549409 -0.395727
18.6687 23.8066 21.2072 -0.0330306 1.21477 0.196424
19.5016 22.7362 23.5931 0.327861 0.599839 0.0283063
20.6666 22.0387 20.618 -0.216363 1.72212 0.727471
22.3098 21.9957 23.0378 0.368716 -0.309961 -2.54799
21.2497 24.2488 22.4354 -0.888379 0.189237 0.363592
22.972 23.2737 20.6758 0.405414 2.00993 0.117112
ITEM: TIMESTEP
3000
ITEM: NUMBER OF ATOMS
37
ITEM: BOX BOUNDS ss ss ss
1.6157318358851228e+01 2.4625959114413781e+01
1.7076487203665508e+01 2.4770445868006288e+01
1.5816382495092553e+01 2.5032405900787950e+01
ITEM: ATOMS x y z vx vy vz
18.4992 18.4336 17.8335 -0.407102 -0.131727 0.54189
17.1021 17.5502 20.089 0.750667 0.739644 0.81838
20.4553 19.508 15.872 0.0917498 1.43717 0.268804
19.8207 17.6857 20.2246 -0.444481 -0.538839 -0.889417
16.2163 19.7642 18.9585 0.211778 0.0399689 -0.840066
18.0113 20.9314 17.3955 0.0127337 -0.244533 1.4779
18.477 20.0865 20.2316 1.69653 1.23516 -0.176332
20.6629 20.3504 18.2776 -0.177775 0.132267 -1.19761
24.5314 18.9986 19.6555 -0.756032 0.547325 0.0547452
20.9355 17.5979 17.8062 -0.522973 -1.15925 0.168959
22.5135 17.1157 19.7837 -1.16646 0.606624 0.503682
23.0587 19.0074 17.4997 1.25459 -1.12205 -1.08665
19.2421 22.925 18.6248 0.551032 0.756854 0.218618
20.0725 22.0368 16.2864 -0.375086 0.890955 -1.5087
16.802 22.2686 19.4642 -0.502995 -0.234356 1.19032
22.5673 21.1182 16.2168 -0.933627 -1.16088 -0.264277
21.8642 23.0472 17.9532 0.432888 1.21355 1.55401
20.9554 24.7222 19.8872 -0.984149 0.927135 -1.43998
23.4187 21.2787 18.9041 -1.05759 -0.968557 0.875106
18.4766 17.5301 22.6856 1.2683 -1.6961 0.958959
17.9522 19.9115 23.8808 -0.559542 0.441759 0.112202
16.4652 19.2024 21.7718 -0.763757 0.890452 -1.50129
20.0928 19.7617 22.4155 -0.198863 -0.497928 1.36525
20.1832 18.2069 24.7201 -1.06764 -0.00194856 -0.377676
21.9449 19.5147 20.4982 1.50557 0.0132542 0.644607
20.3982 20.7876 25.0273 -1.63144 1.12535 -0.432305
23.7723 18.1039 21.9535 -0.627298 -0.270772 -0.890046
22.5917 19.4277 23.8644 1.93687 -0.572903 0.155795
21.3032 17.4698 22.4475 0.441236 -1.36865 0.224317
24.1254 20.7693 21.413 1.0165 0.553569 0.181978
17.1371 21.7795 21.8804 0.232048 -1.61882 -1.22498
18.7947 23.9789 21.0225 -0.242366 -0.931963 0.361026
19.3442 22.3982 23.1491 0.376077 1.92578 0.283588
20.706 22.0704 20.7136 -0.340475 0.269059 -0.399085
22.2514 21.761 22.953 1.53719 0.207826 0.671029
20.909 24.2514 22.5331 -1.97993 -0.951968 -0.461473
22.9611 23.2636 20.7212 1.42382 -0.482456 0.0587178
ITEM: TIMESTEP
4000
ITEM: NUMBER OF ATOMS
37
ITEM: BOX BOUNDS ss ss ss
1.6157318358851228e+01 2.4625959114413781e+01
1.7076487203665508e+01 2.4770445868006288e+01
1.5816382495092553e+01 2.5032405900787950e+01
ITEM: ATOMS x y z vx vy vz
18.6221 18.5278 17.6385 -0.821054 -0.644692 -0.78476
17.2139 17.7339 19.8163 -0.127072 0.556372 0.101374
20.556 19.2248 15.9153 0.576663 -0.881285 0.493686
19.9829 17.6971 20.1523 0.338688 0.699043 0.566678
15.8709 19.7751 18.95 -0.393258 -0.85199 -0.922294
17.6053 20.8926 17.4472 -0.0276686 -0.199974 0.278912
18.5039 20.2421 19.9995 -0.0448845 -0.42971 -1.76125
20.6722 20.1422 18.3959 0.245522 0.832737 -0.106894
24.7205 19.0098 19.7067 -0.144511 -0.394464 -0.0391809
20.9898 17.3923 17.717 0.205192 -0.521012 2.70149
22.7175 17.2872 19.7873 2.24127 1.20696 -0.162221
23.1248 18.9094 17.4197 1.72294 -0.968912 -2.16362
18.9501 23.0732 18.4618 -0.0464701 0.383497 -1.16749
20.0317 21.7829 16.2899 -0.623004 0.775976 0.0707074
16.7645 22.2695 19.6408 0.569693 0.657295 1.07628
22.5639 21.0881 16.3839 0.327669 0.681138 -0.889432
21.6198 22.6353 18.3218 -0.559844 1.39558 0.811959
20.7934 24.7733 19.8398 0.20561 0.182384 -1.6834
23.7037 21.0746 18.7933 -2.49133 0.0719123 -0.665882
18.4161 17.8397 22.2827 0.370324 1.22654 1.56329
17.9693 19.8045 23.9406 -0.94957 2.21804 -0.0292303
16.4395 19.6384 21.4821 0.50658 0.426143 0.456911
20.1274 19.9544 22.5591 0.0419383 -0.415175 0.715765
20.0669 18.1588 24.5651 -1.30016 -0.817537 -1.24653
22.2082 19.7562 20.6507 -1.63282 -0.75362 0.227505
20.5974 20.6255 25.0384 -1.80845 -1.10402 0.496398
23.9059 18.0158 21.9683 -0.475805 -0.390415 -0.387065
22.5754 19.3715 23.6949 0.228561 -0.161912 0.379351
21.2904 17.4631 22.3678 1.64182 0.340547 -0.984809
24.1557 20.7072 21.6848 0.7106 -0.605314 -0.147321
17.5705 21.7613 22.1241 -1.36899 -0.426866 -0.265545
18.5349 24.0324 21.189 -0.902324 -1.8206 1.64521
19.5885 22.5262 23.5506 0.0306449 1.03931 1.10406
20.3303 22.0727 20.756 0.721499 -0.276978 0.148213
22.119 22.0553 23.1175 1.00296 0.787112 0.245486
20.9186 24.3659 22.3381 0.91808 -1.54348 -0.086648
22.7944 22.9348 20.6282 1.11096 -0.272624 0.41028
ITEM: TIMESTEP
5000
ITEM: NUMBER OF ATOMS
37
ITEM: BOX BOUNDS ss ss ss
1.6157318358851228e+01 2.4625959114413781e+01
1.7076487203665508e+01 2.4770445868006288e+01
1.5816382495092553e+01 2.5032405900787950e+01
ITEM: ATOMS x y z vx vy vz
18.4873 18.3361 17.8328 -0.523616 -0.627519 0.218805
17.108 17.5047 20.1079 0.259339 0.268348 0.814212
20.1326 19.4962 15.9566 -0.156663 1.13739 -1.60674
19.8805 17.6986 19.9722 0.801607 -1.14134 0.626394
16.3048 19.7033 19.0954 -0.269562 -0.308805 2.06879
18.0764 20.8497 17.2739 -1.18703 0.25686 -0.760785
18.5371 20.2598 20.2265 1.06874 0.597168 0.695773
20.5901 20.1984 18.3946 0.426251 0.735131 0.165701
24.6273 18.7727 19.7908 0.623578 1.18998 -0.020341
20.798 17.3389 17.5388 0.139123 0.0603564 -1.48922
22.5591 16.9522 19.7075 -0.107783 -0.808003 0.396391
23.025 18.8393 17.6556 0.809451 0.456198 -3.54044
19.214 22.846 18.6649 1.43297 1.21449 -0.00876612
20.2668 22.2582 16.3048 -0.123699 0.125761 0.577442
16.7777 22.306 19.3855 0.823893 0.633885 0.743326
22.4662 21.1111 16.4258 2.15194 -0.456307 -0.771507
21.7726 23.1099 18.318 -0.561889 -0.788102 0.354452
20.719 24.9346 19.8291 0.854877 -0.502504 -1.2238
23.3598 21.1842 19.105 0.135327 0.404404 1.50709
18.4958 17.8207 22.3222 1.35621 -0.259706 1.38417
17.9549 20.1229 23.9306 -1.16154 1.23818 0.234078
16.3646 19.2844 21.7991 -0.597892 -0.183343 0.282017
20.1288 20.0309 22.3553 -0.571274 0.826203 -0.793363
20.2712 18.2609 24.3936 1.50893 -0.441642 0.342439
22.1262 19.3457 20.551 -0.769987 -1.04737 0.961067
20.5815 20.8815 24.8484 0.777697 0.0519636 -1.89729
24.1161 17.8531 22.0292 0.416105 0.299103 0.928193
22.5632 19.3551 23.6652 -1.3887 -1.81155 1.21597
21.547 17.3135 22.2553 0.62605 -0.751942 -0.155887
24.0482 20.7182 21.6481 -0.923815 -0.0648457 -0.919317
17.1115 21.736 21.9935 -0.633597 0.255301 -1.47862
18.5378 23.6857 21.1718 -0.381852 -0.483381 -0.177714
19.2486 22.5191 23.3909 -3.13496 1.65694 1.11554
20.6957 22.0437 20.6235 -2.1393 0.185246 1.75734
22.0309 22.1984 23.0847 -0.23441 -1.23651 -0.625622
21.0488 24.4198 22.246 0.319729 -0.422387 -0.528461
23.0419 23.3254 20.7211 0.335735 -0.257657 -0.391315
ITEM: TIMESTEP
6000
ITEM: NUMBER OF ATOMS
37
ITEM: BOX BOUNDS ss ss ss
1.6157318358851228e+01 2.4625959114413781e+01
1.7076487203665508e+01 2.4770445868006288e+01
1.5816382495092553e+01 2.5032405900787950e+01
ITEM: ATOMS x y z vx vy vz
18.291 18.342 17.6727 -0.138714 0.346969 1.85394
17.1982 17.5319 19.9264 -0.367671 1.61651 -1.73544
20.0614 19.3976 16.0607 -0.260698 -1.10664 -0.276276
20.0326 17.8918 20.0495 0.673927 0.910525 -0.744101
16.0433 19.5381 19.0059 -0.513426 -1.83401 -0.326917
17.9911 20.9598 17.4047 0.748415 -0.846648 0.530394
18.464 20.0585 19.9565 1.1921 0.315125 -1.32625
20.7398 20.2953 18.4908 -0.441543 -0.0417 -0.817317
24.9841 18.9336 19.9022 1.27113 0.774589 -1.77219
20.6944 17.4439 17.5154 0.854146 0.386806 -0.0808154
22.7337 17.317 19.6814 -0.858018 -0.810262 0.261386
23.1837 18.7679 17.8179 0.719624 0.836919 -0.0997309
19.0778 23.1759 18.6201 -0.116215 0.0490372 1.27499
20.1409 22.0862 16.1593 1.03227 -0.936124 0.171722
16.7009 22.1583 19.6347 -0.843372 -0.889656 0.0411834
22.4253 20.8936 16.3401 0.092984 -0.200187 0.814591
21.7917 22.9995 18.1578 -1.43402 0.0722101 1.79454
20.8107 24.7479 19.6781 0.226475 -0.0429785 -0.857505
23.5463 21.0571 18.9093 0.405366 -0.361444 -0.23858
18.4035 17.8589 22.2313 -0.0658175 -0.820922 -0.0913902
17.9806 19.8707 24.0352 0.0321509 -0.0268322 0.240089
16.4129 19.5337 21.6694 -1.95445 0.796058 -0.0854771
20.0895 19.8484 22.3042 -0.384847 -0.720761 0.538528
19.9968 18.2087 24.3701 -1.23484 -0.0101525 -0.605806
22.2598 19.7049 20.7331 -0.743224 -2.77407 0.106037
20.2708 20.6334 25.1382 -0.751575 0.251324 0.244394
23.9766 18.2096 22.1029 1.17716 -0.749335 -0.796439
22.4035 19.4692 23.659 0.253271 2.06714 1.75907
21.4542 17.3439 22.2322 -1.29541 1.19097 -1.74303
24.441 20.8463 21.5789 0.70741 -0.835465 -1.42433
17.6345 21.8497 22.212 0.535582 0.151613 1.5792
18.5798 23.9952 21.0445 0.33215 0.727416 -0.856786
19.5371 22.6195 23.4703 0.388191 0.145551 0.459302
20.2689 22.0032 20.7411 -0.693748 -0.131102 0.795612
22.152 21.8711 23.043 1.7829 1.45294 1.18236
21.0801 24.2641 22.3672 -0.309932 0.63092 0.196928
22.7624 22.8881 20.6986 -0.0177196 0.415664 0.0341189
ITEM: TIMESTEP
7000
ITEM: NUMBER OF ATOMS
37
ITEM: BOX BOUNDS ss ss ss
1.6157318358851228e+01 2.4625959114413781e+01
1.7076487203665508e+01 2.4770445868006288e+01
1.5816382495092553e+01 2.5032405900787950e+01
ITEM: ATOMS x y z vx vy vz
18.5796 18.3509 17.6766 0.925258 -0.582029 0.889958
17.3282 17.2398 20.1897 -1.90822 -0.983049 -0.541603
20.0251 19.5668 15.8001 0.237557 0.30661 -0.436277
19.9126 17.5084 19.9947 -0.193676 0.242442 0.60123
16.3059 19.4409 18.9388 0.981178 1.19018 2.1088
18.0225 20.8892 17.2549 1.00771 2.98943 -0.6541
18.6222 20.1569 20.0784 1.13029 -0.670241 0.0237927
20.5632 20.464 18.4176 -0.206709 -1.01816 -1.5882
24.5436 18.8713 19.77 1.98866 0.323996 0.677664
20.9093 17.4977 17.4536 0.111603 -0.557857 0.494784
22.4448 17.0709 19.8003 -0.978339 0.15495 -0.83484
23.1221 18.7517 17.7182 -0.0489394 1.15841 0.654689
19.1058 23.1117 18.4396 -1.03981 -0.81245 0.898489
20.1574 22.1971 16.2731 0.876489 -2.0774 0.403757
16.8212 22.0376 19.5817 0.61109 0.389647 0.308723
22.4095 20.9337 16.5435 -1.66752 0.265766 -0.263986
21.8591 23.1831 18.0852 0.593898 -0.308242 0.977527
20.8902 24.7957 19.8186 -0.549997 1.34233 -0.52522
23.4497 21.2648 19.1675 -0.134963 -0.240776 -0.446774
18.4356 18.1819 22.3668 0.192029 0.0733479 0.473422
18.1487 20.0541 24.2396 0.484181 -0.754193 -0.299839
16.2746 19.386 21.4148 -0.465981 1.71236 -1.04536
20.1998 20.1221 22.4361 1.3905 -1.03829 0.235767
19.9672 18.2608 24.597 -0.223108 -0.0991027 -0.944587
21.9712 19.4819 20.4623 -0.77689 -0.751645 -0.0598171
20.5845 20.8078 24.9572 -0.267459 0.739364 -1.04658
23.8971 17.7621 21.8322 0.573966 -0.899931 -0.891272
22.5618 19.3511 23.6814 0.487773 1.51594 0.494376
21.3263 17.381 22.4201 0.72959 0.892078 0.53094
24.0237 20.7925 21.5821 -1.29273 1.06003 0.537169
17.4459 21.536 22.1565 -2.96287 -0.0585942 -0.0571252
18.5821 23.7123 21.1131 1.08908 -0.0394815 -0.254755
19.4584 22.6464 23.6249 0.400034 0.912635 0.581054
20.6284 22.1461 20.5729 0.151559 -1.2524 -0.92531
22.0685 22.0305 22.9899 1.10326 -0.578504 -0.95778
20.9818 24.3508 22.362 -1.4791 -2.3873 0.745617
22.9875 23.2794 20.8045 -0.869398 -0.159855 0.135672
ITEM: TIMESTEP
8000
ITEM: NUMBER OF ATOMS
37
ITEM: BOX BOUNDS ss ss ss
1.6157318358851228e+01 2.4625959114413781e+01
1.7076487203665508e+01 2.4770445868006288e+01
1.5816382495092553e+01 2.5032405900787950e+01
ITEM: ATOMS x y z vx vy vz
18.4426 18.4418 17.698 -2.55733 0.2625 0.324925
17.3503 17.5612 20.1163 1.33955 0.783777 -0.159924
20.1121 19.4593 15.9861 0.0755555 1.72873 1.48887
20.0152 17.794 20.0283 0.216798 -0.409708 -0.949076
16.1787 19.5481 18.8947 -1.07436 -0.244314 -1.82465
17.8611 20.888 17.2671 1.01496 -0.535966 0.114177
18.5044 20.1634 20.0147 -1.21059 -1.3295 0.0608319
20.6168 20.4982 18.3809 1.07342 0.470034 -2.21178
24.6598 19.0894 19.8442 2.87411 0.199603 0.0158077
20.8432 17.551 17.6688 0.510698 -0.0355758 0.284615
22.576 17.185 19.7588 -1.66122 -0.759975 1.87566
23.0333 18.8293 17.7131 0.0949035 0.62552 -1.37571
19.0367 23.2834 18.541 -0.256374 0.237345 -0.277103
20.013 22.1343 16.1659 0.446437 0.0204135 1.7344
16.7537 22.0867 19.4535 1.12512 0.246852 -1.01446
22.331 20.8878 16.4631 -0.234182 -0.166825 -0.402601
21.8951 22.847 17.9868 0.659226 0.179647 -0.687352
20.9336 24.726 19.7608 -0.163175 -0.124722 0.31834
23.5608 21.2074 19.0273 -0.451828 0.310381 -1.14397
18.5935 17.5163 22.5048 2.04334 1.0227 -0.756935
17.9134 19.751 23.9139 0.101884 -0.282321 0.144329
16.5511 19.2981 21.6633 -1.08254 -0.785582 1.7384
19.9006 19.7354 22.3632 -0.530298 -0.0395841 0.412918
20.0922 18.261 24.6205 -0.563053 -0.815829 1.20236
22.0937 19.8189 20.7715 -0.749675 1.45729 0.393383
20.2553 20.7499 24.9332 1.17593 1.71092 -0.782256
23.9272 17.9626 21.9541 -0.661651 -0.357822 0.61683
22.3868 19.2439 23.6284 0.945392 0.904374 0.106281
21.2651 17.1941 22.3911 0.0357803 -0.0772158 0.471615
24.3034 20.7658 21.7132 -0.315656 -0.545204 0.0878643
17.3811 21.7732 22.0454 -0.481361 0.015037 -0.265035
18.707 23.8491 21.2326 -0.771357 0.693559 -0.982017
19.5226 22.7621 23.5099 0.490048 -0.461442 -0.549524
20.487 22.1205 20.7088 -1.15893 -0.745487 1.83415
22.156 21.9011 22.9817 0.0797751 -1.96629 -0.412002
21.2968 24.4597 22.2218 -0.0297724 -0.0122286 1.31813
23.0647 23.2709 20.6879 -0.349574 -1.17309 -0.749496
ITEM: TIMESTEP
9000
ITEM: NUMBER OF ATOMS
37
ITEM: BOX BOUNDS ss ss ss
1.6157318358851228e+01 2.4625959114413781e+01
1.7076487203665508e+01 2.4770445868006288e+01
1.5816382495092553e+01 2.5032405900787950e+01
ITEM: ATOMS x y z vx vy vz
18.4262 18.3071 17.7188 -0.575896 0.522913 -0.0209859
17.3072 17.5105 19.9389 1.89444 0.434538 -1.31604
20.1287 19.3589 16.0148 -0.631089 1.16963 2.44361
20.0395 17.6745 19.9711 0.971855 0.282267 0.208887
16.089 19.6009 18.9993 -0.268634 -0.549816 1.72965
18.111 20.8555 17.5238 0.872216 0.487826 -1.39002
18.4614 19.9974 20.1081 0.419264 -0.999776 -1.79292
20.6178 20.4434 18.3468 0.583347 0.426498 -0.843038
24.656 19.003 19.9846 1.29844 -0.167954 -2.13958
20.8654 17.3187 17.5092 -0.192778 -0.60419 -0.0128822
22.6878 17.0087 19.7814 -1.375 0.289689 1.16201
23.0305 18.8293 17.811 0.394956 -0.116005 -0.0101011
19.1077 23.3853 18.3685 -0.0209671 -1.69034 -0.844855
20.0714 21.9842 16.0653 0.18275 -0.305469 0.5814
17.0036 22.2318 19.7139 -0.969715 0.00548819 0.456444
22.3965 21.092 16.4565 -0.858767 1.06701 1.46433
21.6438 22.8253 18.0971 -0.53393 1.6374 -1.53885
20.8854 24.8305 19.8148 -0.369668 -1.27914 0.184527
23.5966 21.4503 18.9317 0.173749 -1.31861 -1.76971
18.4482 17.6951 22.2762 1.04057 1.11588 0.203968
17.9579 19.9383 24.1558 -1.61398 0.0932829 0.599637
16.5532 19.3013 21.7544 0.161119 0.266336 0.132091
19.9446 19.9013 22.3353 -0.291872 -0.250917 -1.12479
20.0364 18.2648 24.4206 -0.155023 -0.672681 -0.403183
22.0904 19.6721 20.5002 -1.00897 -0.015081 2.09619
20.4737 20.8416 25.0004 -1.00955 0.619185 0.945771
23.8398 17.8782 21.9924 0.911952 -0.238399 1.48086
22.4763 19.3291 23.5564 0.715037 -1.46812 0.234476
21.2899 17.2335 22.1122 -0.986263 -2.01674 -0.589982
24.1654 20.839 21.7994 -0.437205 -0.991091 0.611624
17.5676 21.685 22.2425 0.22824 0.369167 -1.19227
18.6854 24.0393 21.054 -1.81533 -0.257835 1.58645
19.4708 22.7017 23.4352 -0.247737 0.365769 1.57518
20.4547 22.0203 20.756 0.91097 -0.0563534 -1.59107
22.0049 21.8461 22.9927 -0.201297 0.823246 0.11144
21.1143 24.5184 22.2773 0.809659 1.79426 0.0376654
22.9159 23.2025 20.7984 1.99512 1.22814 -1.26595
ITEM: TIMESTEP
10000
ITEM: NUMBER OF ATOMS
37
ITEM: BOX BOUNDS ss ss ss
1.6157318358851228e+01 2.4625959114413781e+01
1.7076487203665508e+01 2.4770445868006288e+01
1.5816382495092553e+01 2.5032405900787950e+01
ITEM: ATOMS x y z vx vy vz
18.4878 18.2781 17.9438 -0.0885773 0.220074 0.0461998
17.1657 17.3873 20.1395 -1.40296 0.761432 -0.243271
20.2104 19.4169 16.1043 -1.27742 -0.0198144 2.13607
20.1422 18.1546 20.0365 1.04368 1.62839 0.194386
16.0094 19.6627 19.0011 -1.37011 0.540617 1.97386
17.8273 20.8139 17.4615 0.544774 2.56532 -1.72973
18.3395 20.2535 20.2329 -0.226874 0.0630674 -0.0103327
20.5624 20.391 18.4732 1.47088 0.0807492 -0.191927
24.9427 19.1849 19.9024 -0.54752 0.142893 -1.18723
20.876 17.608 17.5716 0.00118622 -0.303999 -2.12543
22.7329 17.1243 19.6738 1.25279 -0.242652 -0.59602
23.193 18.8731 17.9201 1.7868 0.960727 0.553838
19.0679 22.9673 18.4522 -0.208729 -0.31817 -1.38686
20.1453 22.0002 16.0879 -0.79208 -0.35838 0.845447
16.8514 22.208 19.5135 -1.10666 -1.67841 -0.284844
22.3788 20.8474 16.4502 0.321095 -0.665628 1.09866
21.8258 22.9918 18.081 -1.05865 0.72231 -0.373427
20.7552 24.7193 19.8042 0.151198 0.974747 0.142268
23.7676 21.3107 18.7316 0.0477424 -0.216644 0.430288
18.3922 17.9452 22.294 0.0565393 0.121385 0.614557
17.8885 20.0785 23.9544 -0.599516 -0.732174 -1.10585
16.2819 19.4891 21.6505 -1.253 -1.83772 0.624543
20.1674 20.0719 22.3202 -1.52428 -1.09753 0.00568264
20.0776 18.2284 24.3997 0.172667 0.171213 -0.757275
22.234 19.7532 20.592 -1.01517 -0.555275 1.18709
20.5934 20.676 24.9079 -0.054224 1.19346 1.19659
24.0366 17.6982 21.7715 0.501002 -0.736392 1.47819
22.6178 19.2141 23.5791 0.276739 -2.03207 0.178608
21.3516 17.3621 22.2222 1.90689 1.01663 1.00553
24.2818 20.638 21.8774 0.500913 0.575446 0.326698
17.0478 21.8584 22.1351 0.99428 0.955774 -1.48626
18.4019 23.8911 21.2401 -0.277686 0.639488 -0.323598
19.2859 22.4435 23.3911 1.64962 -0.777388 0.792064
20.4709 22.12 20.6716 0.436032 1.4965 -0.895008
22.1983 21.7935 22.9708 0.0147802 -1.61223 0.131475
20.9579 24.1875 22.2292 -0.735622 -0.164759 -2.29259
23.0485 22.973 20.8268 0.409462 -1.48096 0.0276191
ITEM: TIMESTEP
11000
ITEM: NUMBER OF ATOMS
37
ITEM: BOX BOUNDS ss ss ss
1.6157318358851228e+01 2.4625959114413781e+01
1.7076487203665508e+01 2.4770445868006288e+01
1.5816382495092553e+01 2.5032405900787950e+01
ITEM: ATOMS x y z vx vy vz
18.3808 18.4391 17.8145 2.212 -1.6496 0.198865
17.4254 17.414 20.047 0.215842 1.27009 -0.458074
20.348 19.5578 16.0313 1.04802 0.0290347 -0.0585284
20.0369 17.691 19.9695 -0.320868 -1.92553 0.256508
16.0888 19.5984 19.0545 -0.52879 0.928528 0.469567
18.055 21.0027 17.4098 -0.831902 -2.59128 -0.361459
18.4962 20.0198 20.125 -0.428569 0.601779 0.0802375
20.6551 20.7074 18.2958 -0.000637251 -0.219595 0.435231
24.5636 19.0407 19.7258 -1.04994 0.084722 -0.111631
20.7228 17.3663 17.4274 -1.9641 0.610589 0.573894
22.7321 17.0484 19.6506 0.283206 1.12555 -0.927762
22.7939 18.8535 17.6749 -0.835322 -0.0721359 -0.859183
19.1936 23.1834 18.3235 -1.90367 0.32036 0.10668
20.2403 22.2261 16.0963 -0.497806 0.414205 0.320269
17.0447 22.234 19.5201 -1.03571 -2.23045 -1.88431
22.5537 20.9236 16.3236 0.048569 2.07799 0.945936
21.8448 23.1807 17.9536 0.392056 -1.9022 -0.284847
20.6402 24.6048 19.831 0.463392 0.0575473 -0.364795
23.3396 21.2128 18.922 -0.348298 1.01671 1.03406
18.5492 17.7574 22.4904 0.620261 1.25628 -0.129268
18.0723 19.9459 24.1531 1.01271 0.614426 -0.508077
16.5632 19.29 21.8889 -1.60893 1.59502 -1.73634
19.996 20.0666 22.3639 0.0780028 1.55536 1.71997
20.0439 18.2178 24.6374 0.983414 0.307859 -0.0135954
22.0186 19.4809 20.7055 -0.395498 -1.72387 0.0378474
20.4142 20.7701 24.96 1.13438 -1.03849 -1.5082
24.0437 17.8798 21.9076 0.439082 1.14035 1.96876
22.3182 19.3904 23.7045 -0.601278 -0.308867 1.10453
21.5205 17.3424 22.3207 1.0416 -1.72397 -2.0726
24.1599 20.6353 21.7556 -0.395242 -1.366 1.64205
17.5346 21.7147 22.0858 0.168879 0.477372 -0.0102952
18.4294 23.8864 21.1048 -0.00268683 1.06383 0.573319
19.307 22.7289 23.4422 0.873498 -1.36637 -1.29862
20.5299 22.0348 20.5752 0.242963 1.04069 1.70783
22.0256 21.8549 23.2066 0.35457 -0.478103 -0.101733
20.9922 24.2803 22.2366 -0.0902587 0.439734 0.60629
22.9411 23.0338 20.8801 1.22705 0.568434 -1.09252
ITEM: TIMESTEP
12000
ITEM: NUMBER OF ATOMS
37
ITEM: BOX BOUNDS ss ss ss
1.6157318358851228e+01 2.4625959114413781e+01
1.7076487203665508e+01 2.4770445868006288e+01
1.5816382495092553e+01 2.5032405900787950e+01
ITEM: ATOMS x y z vx vy vz
18.3336 18.1228 17.6359 -0.383111 0.772367 0.486772
17.1437 17.1942 20.0252 0.173643 -0.0627867 0.467265
19.6775 19.7468 15.9465 -1.42266 -1.36045 -0.771109
19.8214 17.4298 19.951 -0.345656 0.0287386 -0.644893
16.0813 19.2179 18.5401 -1.23161 -0.563369 -1.0079
17.8454 20.8894 17.3538 0.0598507 -1.64597 1.84972
18.4963 19.743 20.0163 -1.25514 0.384109 0.887759
20.6595 20.4781 18.4631 -1.36309 -0.932886 1.14673
24.7603 18.9643 20.0712 -1.21322 -0.712076 -0.170197
20.9102 17.9554 17.6919 1.12457 0.366114 -0.328432
22.6605 17.1511 19.6996 -0.423468 0.0238023 -0.654641
23.2574 19.1241 17.6899 0.0157128 0.769554 0.951492
18.9065 22.666 19.0705 -1.1229 0.311176 -0.08446
19.8994 22.4277 16.5002 0.372609 1.47916 0.307258
16.4129 21.636 19.3364 1.33943 -0.164667 0.238355
21.984 20.9449 16.4193 -0.453534 0.913395 -0.972558
21.8953 23.0928 18.0461 0.0453498 0.0138079 -0.285552
20.7202 24.6709 19.5793 0.276754 2.06305 -1.19867
23.651 21.238 19.0587 0.0645146 -1.00973 0.968783
18.5082 17.9319 22.2772 1.67921 0.349584 -0.301053
18.0436 20.2569 23.9369 -0.176526 -1.28876 -1.0676
16.4071 19.5907 21.2747 1.44936 0.27371 0.151813
20.1235 19.9579 22.297 1.19618 -0.885643 -0.527733
20.1464 18.2961 24.3494 -0.767069 -0.270713 -0.301964
22.0025 19.4535 20.5997 1.5461 1.20476 -0.977651
20.464 20.6945 25.1375 -0.633816 0.222278 0.270732
23.9447 18.0011 22.1169 1.17995 -0.438139 0.886489
22.4529 19.4017 23.8884 -0.394344 1.40889 2.30005
21.3602 17.3206 22.3505 -0.996577 1.70664 -0.964291
24.029 20.7098 21.8132 0.794386 -0.67835 -0.928719
17.8955 21.8908 21.6095 1.2016 -0.53194 -0.118304
19.0445 24.1555 21.3307 -0.460853 -0.188216 -1.6385
19.4135 22.7104 23.541 -1.39059 0.662493 -0.0376874
20.8813 22.0634 20.8536 -1.07708 0.930876 1.04317
22.0992 21.9317 23.238 0.160275 -1.4396 0.963218
21.5516 24.3042 22.2552 0.37209 -1.43027 -1.23533
23.131 23.2512 20.6505 2.05967 -0.280959 1.29766
ITEM: TIMESTEP
13000
ITEM: NUMBER OF ATOMS
37
ITEM: BOX BOUNDS ss ss ss
1.6157318358851228e+01 2.4625959114413781e+01
1.7076487203665508e+01 2.4770445868006288e+01
1.5816382495092553e+01 2.5032405900787950e+01
ITEM: ATOMS x y z vx vy vz
18.4369 18.0814 17.8399 -1.58723 -0.158016 0.802949
17.0746 17.6877 20.1897 0.141011 -1.14031 0.521363
20.1936 19.5666 16.0378 0.402247 0.988696 -0.200707
19.8388 17.7928 20.1526 -0.107929 0.23578 1.50354
16.0545 19.4234 18.5745 0.288703 -0.103777 0.152178
17.9943 20.8706 17.3135 0.138836 0.435191 -1.03036
18.4293 20.1249 19.8113 0.158267 -0.817096 1.06832
20.6773 20.2358 18.4224 -1.172 -0.564652 2.26924
24.7515 18.8819 19.7867 0.812797 -1.33394 1.20643
20.9221 17.5195 17.5191 0.394219 -0.465786 1.20719
22.6605 17.2321 19.7886 -0.927279 -0.364844 -1.7725
23.1578 18.8742 17.7489 -1.14246 1.1854 -0.739406
18.8825 22.9553 18.8063 0.460559 0.809218 -0.96473
20.0784 22.24 16.4792 0.232766 -0.207715 -1.09308
16.3269 21.7415 19.3834 -1.74187 0.333807 -0.182945
22.3666 21.1123 16.3728 1.8549 1.13664 -0.354006
21.8527 23.1634 18.0783 1.41136 0.0732395 0.396802
20.7364 24.5926 19.8711 0.417108 -1.0245 -0.551421
23.5703 21.302 18.8509 -0.00883771 1.69473 -0.294972
18.497 17.8549 22.3741 -1.38035 0.0496199 -2.71185
18.0934 20.0121 23.9071 0.888832 0.393726 -1.05341
16.3578 19.623 21.5621 -0.665429 0.785156 -0.101332
20.1764 20.0092 22.449 0.616873 -1.30181 0.762755
19.9924 18.1637 24.5317 0.871405 -0.675095 1.39127
22.047 19.6543 20.6537 0.475146 -0.139349 -1.18719
20.6094 20.4669 25.2231 -0.750832 -0.351865 -0.152545
23.8831 17.9481 22.0143 0.357759 1.70988 0.198
22.5096 19.4707 23.8294 -0.145535 1.40896 1.03218
21.3283 17.2917 22.2601 1.25864 0.364362 1.18132
24.2942 20.5778 21.7048 -0.265489 -1.52863 -0.356917
17.7538 21.872 21.668 -0.587987 0.00469855 0.717566
18.6907 24.2395 21.4493 -0.244539 0.420635 -0.0141131
19.6666 22.464 23.4428 -0.168018 -1.14949 0.178532
20.5049 21.9898 20.495 -1.40659 -0.505341 -0.239909
22.2664 21.9048 22.8086 2.2407 -2.36734 -1.4489
21.0463 24.3834 22.569 -0.401375 1.57183 -0.170328
22.8928 23.2913 20.6461 -0.718381 0.597994 0.0309911
ITEM: TIMESTEP
14000
ITEM: NUMBER OF ATOMS
37
ITEM: BOX BOUNDS ss ss ss
1.6157318358851228e+01 2.4625959114413781e+01
1.7076487203665508e+01 2.4770445868006288e+01