ITEM: TIMESTEP
0
ITEM: NUMBER OF ATOMS
38
ITEM: BOX BOUNDS ss ss ss
1.5558574841796993e+01 2.4922515604535700e+01
1.6104089428153035e+01 2.3779950482646022e+01
1.6260684206463662e+01 2.4386592755768817e+01
ITEM: ATOMS x y z vx vy vz
18.9623 16.1082 19.9527 0.983554 0.0970113 -0.0552643
18.8131 18.1609 18.1509 0.857731 -1.21571 1.80557
21.2914 16.9927 18.7934 2.04359 -0.978109 -0.315476
22.4544 19.5858 19.6201 -1.84213 1.33191 0.445164
21.1683 19.1634 17.1205 -1.47079 -0.60912 0.50731
23.5387 17.0733 20.3043 0.959718 -0.892527 1.33811
23.6773 18.0273 17.7504 -1.96039 0.225405 -0.176119
16.4693 22.628 20.2185 1.14973 0.36275 0.749408
18.7657 20.4034 16.5564 -1.36209 1.05496 0.834665
19.0856 23.539 20.2035 -0.0706118 -0.664823 0.261413
17.3381 20.3644 18.8781 2.28148 -0.529045 0.357598
20.1188 21.1578 18.9292 1.25345 -0.615484 0.206115
18.1215 22.7299 17.7953 1.88387 -0.941292 -0.254311
24.9184 20.2845 18.6924 -0.180071 1.63875 -1.63409
20.6202 23.7745 17.9634 0.867032 -0.199678 0.413752
21.0596 21.7525 16.2648 -0.764759 2.02583 -2.76314
23.4668 20.362 16.4264 -0.0926208 0.00172017 1.78345
22.7865 22.1065 18.3487 0.916173 2.00607 -0.420098
19.9527 18.7366 20.6189 -0.718351 -0.0978632 -0.269799
19.8898 19.4296 23.3744 -1.72316 -0.713895 -2.44321
17.2382 18.1134 20.5138 -3.09098 -2.08882 -0.472838
18.7972 17.0736 22.507 -1.99983 -1.32686 1.25228
17.1725 19.2631 23.0381 -1.4308 0.359962 0.366624
22.2937 18.5598 22.2895 1.07176 1.10204 0.402394
21.173 16.2644 21.4402 0.40243 -0.0582852 -0.329888
24.7529 19.2814 21.226 0.89689 0.479226 -0.930029
17.5531 23.7759 22.4411 -0.161108 0.59521 -0.130356
18.5149 21.7033 24.0555 -1.30517 1.10723 -1.26384
16.0183 21.728 22.9701 0.964275 0.53892 0.924739
18.4049 21.0726 21.3922 -0.0211491 0.251707 1.1309
20.1952 23.4892 22.7569 -0.636547 -1.36588 -0.276507
15.5627 20.1578 20.9315 -2.44851 -0.530396 -0.649418
21.2992 21.1863 21.6408 0.40739 0.482266 -1.24544
22.8807 23.2313 22.9256 1.41603 0.54488 0.418263
21.8235 23.6346 20.4351 0.845238 -0.355541 -0.314625
23.6059 20.6881 23.2863 -0.0437288 -0.200094 1.26457
23.956 21.8382 20.8157 1.08001 -0.265448 0.835704
21.2696 21.5689 24.3825 1.04244 -0.556982 -1.35359
ITEM: TIMESTEP
1000
ITEM: NUMBER OF ATOMS
38
ITEM: BOX BOUNDS ss ss ss
1.5558574841796993e+01 2.4922515604535700e+01
1.6104089428153035e+01 2.3779950482646022e+01
1.6260684206463662e+01 2.4386592755768817e+01
ITEM: ATOMS x y z vx vy vz
18.9134 16.2087 19.8558 0.551588 1.27722 -0.893377
18.6753 17.9556 17.8333 0.0744256 -0.533868 -0.127081
21.2987 17.0579 18.9392 1.6472 -0.211679 -0.963691
22.4096 19.6256 19.8383 0.638372 -0.406113 -0.278157
21.081 18.9976 17.4179 -0.60763 -0.0700364 -0.278859
23.5281 17.1544 20.5257 0.0169504 1.28531 -0.364571
23.7841 18.1311 18.0058 1.84566 -1.10004 -0.712499
16.4471 22.6599 20.1397 -1.72252 -1.06139 1.9722
18.8618 20.2866 16.685 0.860866 -0.883086 1.15695
19.1706 23.5365 20.1051 -0.0519543 0.25306 1.28096
17.3184 20.299 18.7869 -0.970365 0.560662 -0.660554
20.1293 21.2187 18.9094 -0.405144 0.656206 -2.19003
18.1208 22.9355 17.8648 -0.0675062 0.192689 0.762185
24.9708 20.4096 18.7398 1.32149 -0.766346 0.350218
20.519 23.8971 17.8855 1.29457 0.588739 -0.93862
20.9268 21.8138 16.4025 0.0849531 -0.0885312 -0.35786
23.1292 20.2515 16.6227 0.0301163 0.951374 -0.222344
22.7929 22.0936 18.308 -0.261788 -1.06688 -1.14457
19.7927 18.7852 20.4182 -0.480812 0.192103 1.52635
19.9365 19.1451 23.3112 -1.15395 0.476607 1.54807
17.1986 18.1979 20.3194 -1.7697 1.13775 -0.37692
18.4765 17.0978 22.4374 0.0821927 -0.0147886 -0.114176
17.1418 19.1486 23.0008 -0.00136966 0.0893256 1.67944
22.4196 18.7767 22.6609 -0.232353 -0.186686 0.161817
21.054 16.7085 21.7698 0.506757 0.390009 -1.15848
24.7834 19.2173 21.0349 0.607646 -0.223595 0.694204
17.6644 23.5606 22.3846 -0.673153 -0.14305 -1.32493
18.7872 21.4411 23.8826 -0.475189 0.89849 -0.61162
16.1522 21.5833 22.9798 -0.960951 -0.794898 0.21516
18.3112 20.9422 21.2513 -0.408797 0.926452 0.0708195
20.3427 23.654 22.7897 0.611776 -0.132318 -0.79559
15.6074 20.2958 20.8982 -0.158804 -0.916566 0.965765
21.2737 21.2928 21.5521 -0.890722 0.76811 1.52883
22.882 23.1816 22.8856 0.380627 -0.762438 0.634776
21.8543 23.6386 20.4388 0.816498 -0.197131 -0.132777
23.8116 20.7373 23.1085 -0.749995 0.845013 0.596049
23.9629 21.8778 20.7704 0.333011 -1.45245 -0.928683
21.4804 21.1951 24.2506 0.338012 -0.477239 -0.568384
ITEM: TIMESTEP
2000
ITEM: NUMBER OF ATOMS
38
ITEM: BOX BOUNDS ss ss ss
1.5558574841796993e+01 2.4922515604535700e+01
1.6104089428153035e+01 2.3779950482646022e+01
1.6260684206463662e+01 2.4386592755768817e+01
ITEM: ATOMS x y z vx vy vz
18.8721 16.2757 19.903 0.0894682 0.199982 -1.40271
18.975 18.2973 18.2733 0.0471045 0.101014 0.0112568
21.1758 17.0748 18.6499 -0.540224 0.841236 -0.428277
22.4222 19.602 19.6508 1.13636 -0.0806468 -1.50305
21.1478 19.2515 17.039 -0.46927 1.05644 0.167245
23.4749 17.1639 20.1925 0.16665 -1.00917 0.85282
23.62 17.9875 17.7229 0.380519 -0.0579126 0.552226
16.6451 22.6376 20.0518 0.0307807 -0.801446 -0.931944
18.7008 20.483 16.6103 -1.60207 -0.761887 -0.850743
19.1678 23.4361 20.1244 -0.434254 -0.146908 -1.39884
17.2668 20.2119 18.9853 0.385881 -0.558047 0.410534
20.1254 21.1296 18.9126 -0.646071 1.30457 -0.0921068
18.1428 22.7173 17.7617 1.01689 -0.020936 -0.442084
24.85 20.172 18.8967 0.238303 -0.26368 -0.189914
20.5324 23.6674 17.8272 -0.0898905 1.13533 3.14696
21.1056 21.779 16.1616 -0.092479 -0.210939 0.882091
23.4436 20.4092 16.6313 0.665817 -0.586729 -2.23603
22.6398 22.087 18.4057 1.24306 -0.623846 -0.447677
20.0195 18.7683 20.6917 -1.21641 -0.114513 -1.83659
19.9944 19.6143 23.2956 -0.0633341 1.43679 -0.989936
17.1697 18.1429 20.6277 -0.728447 -1.00791 0.0876021
18.899 17.1496 22.4348 1.55608 -0.582026 0.714923
17.2538 19.2324 23.0643 0.262028 0.433922 -1.2492
22.2004 18.3787 22.4036 1.70134 0.0783565 0.353208
21.1954 16.2031 21.4012 -0.738029 -0.894894 0.33986
24.578 19.3084 21.365 2.10884 -0.815269 0.729046
17.6877 23.4875 22.3818 1.11776 2.21511 -0.0924342
18.5715 21.6955 24.0977 -0.487194 -0.448918 0.613687
16.0275 21.6465 22.8816 0.140916 -0.519386 -0.203048
18.5469 21.026 21.3738 -2.0145 -0.395389 -0.335961
20.2456 23.4478 22.7215 -0.316415 1.81825 -0.710165
15.6163 20.1018 20.9716 -0.427717 -0.351068 3.31233
21.3469 21.2873 21.651 0.192977 -0.526204 2.66633
22.9292 23.1897 22.8756 -0.404241 -0.433444 -0.367737
21.7653 23.749 20.4131 -0.30317 0.627613 -0.852336
23.5105 20.542 23.3867 -1.64578 -0.242868 0.387372
23.8553 21.9057 20.834 -0.84262 0.0700517 1.62564
21.2891 21.7506 24.3376 0.581329 0.135364 -0.292332
ITEM: TIMESTEP
3000
ITEM: NUMBER OF ATOMS
38
ITEM: BOX BOUNDS ss ss ss
1.5558574841796993e+01 2.4922515604535700e+01
1.6104089428153035e+01 2.3779950482646022e+01
1.6260684206463662e+01 2.4386592755768817e+01
ITEM: ATOMS x y z vx vy vz
18.8828 16.1012 20.082 0.731293 -2.25399 -1.12671
18.805 18.0553 18.1269 -0.277145 0.339099 0.642488
21.1566 17.1432 18.8418 0.539216 -0.185774 -0.806242
22.4108 19.6835 19.5237 1.05755 -2.4555 -0.511192
21.0194 19.1698 17.1138 -0.322849 0.89378 -0.790523
23.426 17.1734 20.1661 0.729204 0.477666 0.954951
23.5949 18.0215 17.7787 1.30484 -0.711791 -0.60333
16.6272 22.6547 20.2149 0.159764 0.361512 0.414654
18.8511 20.4137 16.5816 -0.67392 -0.0946436 -0.383597
19.1429 23.6616 20.1381 0.778846 -1.74066 1.37323
17.5808 20.1744 18.8605 -1.32271 0.0754369 0.271831
20.2088 21.2236 18.8892 1.5951 0.661248 0.123268
18.1791 22.5705 17.7182 0.278482 -0.616179 0.272413
24.8748 20.1132 18.8127 0.421098 -0.259354 -0.363784
20.6626 23.9154 18.0072 0.997999 -0.231798 1.0818
20.8842 21.8538 16.3806 0.0966453 0.285839 0.40076
23.2995 20.2325 16.7142 -0.952177 0.0406395 -0.75577
22.8514 22.1853 18.3996 -0.109882 0.095557 0.243186
19.8739 18.7859 20.4614 0.167837 0.744203 -0.0760548
20.0488 19.4655 23.4395 1.28765 0.126924 0.686822
17.2337 18.0471 20.6844 -0.10583 -1.07594 -0.457707
18.9783 17.1794 22.4638 -1.87834 0.58953 -0.723796
17.4801 19.1999 23.13 -0.679626 -0.062058 -0.387892
22.0584 18.4641 22.1464 0.0104474 -0.00356254 0.468307
21.1666 16.2257 21.2955 -0.700287 -0.912012 -0.594322
24.4418 19.4133 21.2518 0.781942 0.156601 0.148633
17.5911 23.7343 22.4692 -2.2205 0.43381 -0.262226
18.4295 21.7503 24.1385 0.37167 2.02467 -1.04428
16.1532 21.7559 22.8759 -0.559409 -0.281462 -0.0727528
18.5404 21.0576 21.2931 -0.158852 0.680097 1.09274
20.0685 23.2312 22.6278 -0.328851 0.256838 -1.63442
15.7562 20.1021 20.948 0.392057 1.39987 2.37594
21.4573 21.0429 21.5404 0.103165 1.32236 0.401057
22.8133 23.1132 22.8221 0.507677 -0.938222 0.321242
21.9579 23.6267 20.5129 -0.366711 -0.686077 -0.273142
23.3426 20.6701 23.3458 0.848152 1.97613 0.484176
24.0555 22.0678 20.8626 -1.54246 0.468143 0.238122
21.1051 21.7304 24.3513 -0.961083 -0.900927 -1.12788
ITEM: TIMESTEP
4000
ITEM: NUMBER OF ATOMS
38
ITEM: BOX BOUNDS ss ss ss
1.5558574841796993e+01 2.4922515604535700e+01
1.6104089428153035e+01 2.3779950482646022e+01
1.6260684206463662e+01 2.4386592755768817e+01
ITEM: ATOMS x y z vx vy vz
19.0093 16.2607 19.9983 0.201935 0.030553 -1.20937
19.0718 18.5736 18.4063 1.36319 0.95299 -0.747147
21.1663 16.9615 18.8017 0.160989 -1.59486 -0.184876
22.3722 19.7254 19.6257 -1.19085 -0.966217 0.277501
21.2288 19.0722 16.9453 -0.0294553 -0.65201 -0.206285
23.3133 17.3083 20.3658 -0.635198 -0.459805 0.0953674
23.6506 18.0223 17.8182 1.08182 1.25625 0.610313
16.3641 22.5555 20.086 -0.903679 -0.71612 0.864233
18.803 20.6875 16.4452 -1.05381 -0.338666 0.231995
19.1043 23.5576 20.1469 0.944344 -0.726096 0.814858
17.2458 20.3904 18.9421 1.26444 1.34036 -0.172689
20.1209 21.1509 18.8939 -1.11761 1.28482 1.2708
18.0842 22.7589 17.865 0.286949 -1.06658 0.984325
24.8354 20.2289 18.6407 0.0805424 0.45264 -0.341281
20.6796 23.6189 17.9945 1.00253 0.941146 -0.701084
21.0638 21.7281 16.307 0.451084 -1.48979 0.0320039
23.5041 20.2774 16.5806 -0.986626 -0.571165 0.503117
22.7657 22.1186 18.423 1.7905 -0.670365 -0.94094
20.0266 18.7631 20.8183 0.26316 1.71927 -0.00951559
19.9784 19.398 23.3779 0.131926 0.986364 1.37428
17.3737 18.2251 20.5376 1.37475 1.46479 -1.47742
18.7377 16.9956 22.4491 0.529895 -1.03805 -0.904141
17.2423 19.3374 23.0858 -1.16132 -1.72712 1.22846
22.3705 18.4658 22.4965 -1.54502 1.03987 -0.651877
21.0893 16.2646 21.513 0.720881 2.14041 0.872366
24.6381 19.3615 21.1757 -0.562462 -1.00599 -0.649052
17.5383 23.533 22.3373 0.469413 0.10489 -0.120424
18.5056 21.609 24.0132 0.74412 1.17513 -1.26435
15.984 21.6871 22.9636 1.83008 -0.803121 -0.957476
18.4765 21.0561 21.3373 0.742943 0.437864 0.437731
20.1737 23.2631 22.7126 -0.843352 0.617965 -0.407189
15.6028 20.1526 20.8812 -0.547225 0.254386 1.8777
21.2905 21.1639 21.7161 -0.226881 0.0895151 -0.739894
22.9229 23.1834 22.8323 -0.706156 -0.866254 -0.0793905
21.7361 23.4268 20.4336 -1.95543 -1.32336 1.847
23.564 20.7065 23.0661 -0.713523 0.257023 -0.610773
24.0314 21.8692 20.6473 -0.323307 -0.243278 -0.266386
21.3446 21.5515 24.3293 -0.93359 -0.287399 -0.680491
ITEM: TIMESTEP
5000
ITEM: NUMBER OF ATOMS
38
ITEM: BOX BOUNDS ss ss ss
1.5558574841796993e+01 2.4922515604535700e+01
1.6104089428153035e+01 2.3779950482646022e+01
1.6260684206463662e+01 2.4386592755768817e+01
ITEM: ATOMS x y z vx vy vz
19.0061 16.1111 20.051 1.93364 -1.34403 0.556974
18.7587 17.929 18.195 0.810487 0.0322431 2.33578
21.2846 16.7988 18.9264 -0.82355 -1.01279 -1.30996
22.3594 19.6417 19.5425 -0.913456 -1.15978 -0.594128
21.0574 19.0419 17.2323 -0.8215 0.234325 0.629148
23.4494 17.0254 20.5399 -1.35893 0.884017 -0.272091
23.6939 18.2185 18.0658 -0.516031 0.120556 1.23109
16.6873 22.5538 20.1012 -0.0194785 0.421479 0.526726
18.7009 20.2684 16.6595 0.233823 0.604456 -0.461943
19.3451 23.6377 20.2073 0.527389 0.348136 0.251647
17.2688 20.3163 18.8145 0.184222 0.353539 1.7162
19.9225 21.1894 19.0591 -0.823238 -0.650812 0.351483
18.3907 22.7223 17.7291 1.99102 -1.52206 -1.41016
24.8043 20.5956 18.4193 -0.518715 -0.884455 -0.551161
20.7165 24.0128 18.0981 1.3371 1.40583 1.06314
20.8676 21.7399 16.5071 -0.230566 1.22512 0.544027
23.265 20.3629 16.5323 1.31216 0.120007 -1.38157
22.686 22.2808 18.4604 -0.565655 -0.258578 -0.750288
19.8617 18.739 20.5304 -1.03141 2.17798 0.944158
19.7925 19.2822 23.2511 0.591874 0.922209 -0.420888
17.2163 18.1167 20.4312 1.67562 -0.34522 -0.933952
18.6755 17.1437 22.4072 -1.18573 -1.39324 -0.773822
17.0459 19.3092 22.8988 -0.646881 0.257475 -0.778317
22.3543 18.6776 22.2876 0.463193 1.59887 -1.52855
21.0326 16.4233 21.6091 1.28714 -0.795643 0.97578
24.7594 19.1901 20.8819 -1.39037 0.690235 -0.267505
17.53 23.7868 22.3118 1.12826 -0.150647 0.100077
18.6876 21.7527 24.0446 -0.455374 0.588595 0.0488336
16.1011 21.6895 22.6943 -0.128834 -0.470098 0.0644379
18.5711 21.0415 21.4152 -0.823048 -0.764527 -0.925504
20.1377 23.3431 22.7254 -0.441082 0.062969 -0.44267
15.5775 20.0545 20.9591 0.51367 -0.148117 0.205916
21.4669 21.2486 21.5012 -0.492363 0.141583 -0.459128
22.7139 23.2207 23.0677 -0.0674433 -0.876136 0.77733
21.9851 23.8576 20.6976 -0.211872 0.413763 -0.958949
23.7861 20.706 23.0975 1.53634 0.0451695 0.466652
24.0403 21.7897 20.8134 -2.20002 -0.889241 0.898834
21.4102 21.1913 24.244 0.139597 0.0168087 0.532356
ITEM: TIMESTEP
6000
ITEM: NUMBER OF ATOMS
38
ITEM: BOX BOUNDS ss ss ss
1.5558574841796993e+01 2.4922515604535700e+01
1.6104089428153035e+01 2.3779950482646022e+01
1.6260684206463662e+01 2.4386592755768817e+01
ITEM: ATOMS x y z vx vy vz
19.0941 16.3225 19.8418 0.497907 -0.613004 -0.432549
18.6088 18.3536 18.091 0.60461 -1.27735 0.129857
21.2966 16.9583 18.806 1.76125 1.47228 0.236725
22.62 19.4407 19.5182 -0.644792 -0.175476 1.37879
21.1036 19.0705 17.1681 -2.04755 -0.496976 -0.0827329
23.7134 17.2152 20.4822 1.6801 -1.1019 0.504103
23.6375 17.7111 17.736 -0.260864 1.01986 0.532322
16.3418 22.7145 20.196 -0.156697 -0.692754 0.0891469
18.717 20.5831 16.5958 0.639325 1.39592 -1.30952
19.0116 23.6225 20.3431 -0.397956 1.15573 -0.490569
17.0258 20.4175 18.8023 1.61805 0.187226 1.90312
20.0472 21.2121 18.8494 0.276607 0.748159 -1.32204
18.1188 22.8603 17.8831 0.781868 -0.359834 -0.0301695
25.03 19.7386 18.897 -0.09872 -0.0297606 -0.853376
20.6117 23.7115 18.0689 -0.152096 -0.611888 -0.784852
21.1876 21.6062 16.404 -0.15338 -0.337148 -0.497749
23.5319 20.1489 16.7464 -2.1122 -0.318412 0.222224
22.7263 22.0599 18.3474 0.364574 0.417715 1.00101
19.9491 18.8074 20.5561 0.520749 1.24615 -0.959036
19.8605 19.2243 23.2517 0.58157 0.561275 -0.180801
17.2724 18.1029 20.4315 1.21277 -1.02088 0.499136
18.7796 17.0005 22.2726 -0.000259256 0.506496 1.06111
17.0849 19.1617 22.919 -0.751254 -0.67498 -1.08892
22.2889 18.99 22.3598 -0.891146 0.182257 -0.42373
21.3466 16.5921 21.4104 1.21933 0.694772 -0.368359
24.867 19.4208 21.3956 -0.877564 -2.49878 -0.478148
17.543 23.5923 22.4745 -1.7463 0.534979 2.79133
18.6457 21.5474 23.8175 -0.550713 0.563021 -0.903671
16.1253 21.6685 23.1968 1.11046 -0.567112 -0.278293
18.2783 21.0649 21.1877 -0.409344 0.665854 0.28088
20.2562 23.5469 22.8834 0.826974 -0.117348 -0.00208711
15.5568 20.3041 21.1793 0.669813 1.29332 -0.479211
21.1119 21.2518 21.474 -0.668662 -0.555285 0.469226
22.9573 23.2952 22.857 -0.794374 -0.370516 -1.76955
21.7476 23.6873 20.4774 1.75129 0.100451 0.383387
23.7315 20.927 23.2458 -2.37505 0.387371 -0.881989
23.8436 21.7425 20.6969 -1.1916 -1.57417 0.795434
21.3401 21.3353 24.1461 0.16326 0.260743 1.33956
ITEM: TIMESTEP
7000
ITEM: NUMBER OF ATOMS
38
ITEM: BOX BOUNDS ss ss ss
1.5558574841796993e+01 2.4922515604535700e+01
1.6104089428153035e+01 2.3779950482646022e+01
1.6260684206463662e+01 2.4386592755768817e+01
ITEM: ATOMS x y z vx vy vz
19.0858 16.1503 20.0455 -0.54092 -0.816093 -0.312825
18.6176 17.963 18.2656 -0.165773 -0.647451 0.377557
21.3739 17.0068 18.7182 0.493011 -0.313056 -0.868137
22.4598 19.613 19.4551 -0.330052 -0.497315 1.18372
20.9361 18.9662 17.0822 -1.75674 0.379845 -0.393648
23.6076 17.1451 20.1832 2.35196 -1.07286 -0.118747
23.7803 18.1659 17.8132 -0.729075 0.442304 0.55986
16.6217 22.7231 19.915 -0.152004 0.993417 -0.112391
18.6949 20.3196 16.5691 0.464254 1.57976 -2.3697
19.0804 23.6153 20.1878 -0.632806 -0.455138 -0.556347
17.484 20.407 18.849 0.631733 2.5757 1.03553
20.2841 21.3186 18.9459 -0.451049 -0.348962 -1.55489
18.2325 22.7381 17.7057 0.506178 0.185993 -0.0605167
24.8857 20.3799 18.8087 0.326769 0.940955 0.0167049
20.7104 24.0238 17.9725 -2.51867 -0.494812 0.111706
20.7703 21.7762 16.5849 -0.209646 -0.144279 -1.76106
23.0683 20.4131 16.6397 0.185681 -1.00268 2.02801
22.8262 22.1961 18.3634 -1.00654 -0.857504 0.280397
19.8917 18.7418 20.378 0.883911 0.955237 -1.07127
19.8853 19.4733 23.4619 0.68169 -0.376092 0.311791
17.3424 18.1188 20.6424 1.0372 -0.232778 -0.03014
19.1842 17.1698 22.5047 0.433456 1.45923 1.20853
17.3701 19.2953 23.1187 -0.789004 -0.274931 -0.471378
22.0481 18.2888 22.2454 0.250907 -0.408425 -0.820528
21.3334 16.0874 21.3032 1.55379 1.57265 0.536211
24.6297 19.1162 21.2886 0.801661 -1.17597 0.376966
17.434 23.7526 22.2172 -1.40028 -1.32637 0.486572
18.5363 21.9016 24.0158 1.73557 -0.420886 -0.660856
16.2302 21.7424 22.9837 -2.06022 0.537932 0.726066
18.4254 21.1386 21.399 -0.949047 -0.71369 1.08166
20.2246 23.4131 22.6675 1.36319 -1.1942 0.230277
15.7267 20.3566 20.8968 0.625124 1.01086 0.175631
21.2498 21.1024 21.686 -0.485713 0.897244 0.442576
22.8723 23.1415 22.9715 0.393074 -0.555932 -0.337981
21.7863 23.4147 20.4668 2.75019 -1.03017 0.0681525
23.2789 20.5114 23.3531 -1.66964 1.60584 -0.484574
23.8657 21.7278 20.9154 -0.585821 -1.61343 1.12133
21.1752 21.5946 24.3896 -1.03636 0.836056 -0.374253
ITEM: TIMESTEP
8000
ITEM: NUMBER OF ATOMS
38
ITEM: BOX BOUNDS ss ss ss
1.5558574841796993e+01 2.4922515604535700e+01
1.6104089428153035e+01 2.3779950482646022e+01
1.6260684206463662e+01 2.4386592755768817e+01
ITEM: ATOMS x y z vx vy vz
19.117 16.281 19.9268 -0.42131 0.128939 -2.41815
18.8708 18.2677 18.1671 -0.24411 -0.238987 -0.216714
21.3032 17.0736 18.6243 0.532524 1.75161 1.16678
22.4541 19.5299 19.579 -0.739506 -0.792081 0.00891618
20.9967 19.1347 16.9391 1.298 1.05015 1.03098
23.5557 17.076 20.2552 1.82495 -1.08186 0.0214968
23.6628 17.9625 17.7123 -0.410829 0.563837 0.724935
16.4061 22.7102 20.2614 0.631378 0.0118044 0.534367
18.7397 20.7319 16.6088 0.862875 -0.0301825 0.652566
19.0663 23.4628 20.0633 0.358583 1.68844 -0.389689
17.1919 20.3769 18.937 -0.703169 -0.0680566 1.0901
20.1085 21.0623 18.8125 -0.328832 -0.765953 -1.93716
17.8294 22.6953 17.8832 1.15976 0.979298 -1.28936
24.8514 20.1481 18.8426 1.04006 -0.0183976 -1.14761
20.4208 23.7617 17.7334 -1.06432 0.722901 -1.21659
21.2111 21.7159 16.306 -1.15338 -0.974681 0.313571
23.2798 20.3638 16.6741 -1.05309 0.248126 0.197044
22.7825 22.0669 18.6112 -1.86293 -1.91947 -0.0921113
19.9828 18.7588 20.5427 0.973442 0.664938 -1.50306
20.0291 19.4346 23.3669 -0.850658 0.172269 1.23189
17.3174 18.0583 20.5231 0.106615 1.35506 -0.691617
19.0606 17.2253 22.4899 -0.768743 0.351923 0.75701
17.3197 19.3509 23.0438 -0.529479 -0.919735 0.763875
22.3473 18.483 22.4655 0.556852 1.57982 -0.213795
21.3642 16.3681 21.3947 0.519426 0.518567 1.40688
24.6274 19.1385 21.3254 2.17724 0.0239764 0.284411
17.7038 23.7873 22.3205 1.34873 -0.422551 -0.276982
18.3349 21.685 23.9526 0.0092926 -0.416939 -0.111205
16.0399 21.922 22.8816 0.860693 0.0536234 -0.64067
18.4964 21.0924 21.4238 -1.45467 1.23803 0.19659
20.2403 23.6053 22.7474 0.587396 -0.803273 1.89634
15.7704 20.2591 21.0088 -0.763204 -1.12072 0.343425
21.3561 21.0484 21.5589 -0.200519 -0.356497 0.426822
22.9842 22.9868 23.0026 -1.7118 -1.54564 -0.437305
21.704 23.5666 20.3572 -0.216759 -1.90338 -0.743379
23.4582 20.5801 23.5001 -1.21084 0.0742452 -1.08148
23.8977 21.6461 21.0039 0.11411 -0.0688026 0.968222
21.128 21.5921 24.1633 0.726225 0.269655 0.390657
ITEM: TIMESTEP
9000
ITEM: NUMBER OF ATOMS
38
ITEM: BOX BOUNDS ss ss ss
1.5558574841796993e+01 2.4922515604535700e+01
1.6104089428153035e+01 2.3779950482646022e+01
1.6260684206463662e+01 2.4386592755768817e+01
ITEM: ATOMS x y z vx vy vz
19.0696 16.1962 20.1284 -0.220459 -2.06455 -0.870356
18.8992 18.1827 18.1678 -0.792102 -2.3757 0.494983
21.2636 16.9305 18.9176 -0.622843 0.201954 -0.539678
22.3763 19.7106 19.3916 0.984698 -0.280483 -0.357528
21.0517 18.9612 16.9364 0.0213117 1.95482 -0.164296
23.3772 16.9663 20.347 0.541364 -0.461429 0.51835
23.8306 17.9696 17.9996 1.28878 -1.50434 0.684366
16.9186 22.5994 19.8729 1.49879 0.996364 -0.388758
18.6428 20.435 16.3763 -1.17241 -1.08478 -0.261276
19.3885 23.4078 20.2373 1.19976 -0.402177 -0.178639
17.1874 20.3766 18.5441 -0.399091 -1.09561 0.0252496
19.9417 21.0077 18.8428 -0.422864 -1.06115 -0.9213
18.2337 22.7762 17.5009 -1.37424 -0.840932 0.439797
24.8992 20.3149 18.7108 -1.06687 1.35254 0.773309
20.6243 23.8481 17.96 0.13244 1.08787 1.03347
20.8057 21.7365 16.4081 -0.836622 -0.94856 0.926582
23.1734 20.343 16.6516 0.486503 0.810557 -0.154428
22.701 22.4277 18.642 0.947965 -0.619418 0.328545
19.9725 18.8388 20.7656 0.92132 0.509886 1.16577
19.9529 19.2024 23.3629 -0.519889 0.607123 -0.847274
17.2547 18.227 20.4327 0.118589 1.03403 0.402545
18.4551 17.112 22.4863 0.0226378 1.36115 -0.527321
17.2264 19.2447 23.1525 0.458218 0.876977 -0.464399
22.4741 18.8274 22.1825 0.546897 0.366284 0.0884694
20.9812 16.6774 21.8513 -0.774311 1.06418 -0.882017
24.6347 19.0748 20.9334 0.897351 0.503639 0.3418
17.5482 23.5918 22.2875 0.168295 0.355031 0.485327
18.5758 21.5503 24.2185 0.445194 0.0370777 -1.12575
16.324 21.6225 23.0864 0.118494 0.638434 -0.923409
18.4575 20.9856 21.4491 -0.351526 1.05193 1.11751
19.9713 23.4419 22.9117 0.690412 -0.52187 0.619784
15.7451 20.2931 20.8214 -0.717195 -0.62275 0.0646404
21.2786 21.3988 21.3671 -2.2443 1.22385 -0.173393
22.9165 23.0949 23.0883 -1.28971 -1.28488 -0.0501247
21.898 23.8613 20.8054 -1.1171 0.616833 1.04514
23.8194 20.6978 23.2876 2.13157 -2.15665 -0.65318
23.8322 21.7626 20.852 0.863619 0.792931 0.167688
21.3072 21.315 24.0325 -0.562688 -0.118178 -1.2402
ITEM: TIMESTEP
10000
ITEM: NUMBER OF ATOMS
38
ITEM: BOX BOUNDS ss ss ss
1.5558574841796993e+01 2.4922515604535700e+01
1.6104089428153035e+01 2.3779950482646022e+01
1.6260684206463662e+01 2.4386592755768817e+01
ITEM: ATOMS x y z vx vy vz
19.0153 16.1714 19.8585 -0.594301 -0.905741 0.247274
18.8335 18.3225 18.1361 0.753645 0.507257 0.162411
21.137 17.1941 18.8584 -1.53664 0.28658 -1.27814
22.2319 19.6078 19.6159 0.784931 -2.14237 -0.785323
21.2927 19.1603 17.0302 0.658247 0.545021 0.0431645
23.2266 16.7316 20.4281 0.47868 0.42244 -1.67771
23.818 18.1859 18.1753 1.18149 -0.238394 1.12969
16.4681 22.6531 20.2799 -1.96948 0.923535 -0.171966
18.8206 20.4904 16.4688 -0.242879 -0.135211 -0.443948
19.1598 23.6391 20.3359 -0.241306 2.00963 -1.2483
17.2658 20.365 18.7354 -0.462519 -0.0885936 0.718763
19.9777 21.0983 18.8399 -0.743362 -0.517303 -0.506259
18.1525 22.7216 18.0131 -0.866382 -0.413248 1.16437
25.0206 20.3785 18.7005 -0.833092 -0.187568 1.17822
20.6798 23.7196 18.0683 0.86047 1.0432 -0.969569
21.1981 21.732 16.3821 0.546837 0.881207 -0.0958313
23.57 20.2455 16.5165 -0.14037 0.365653 -0.744538
22.9385 22.0607 18.3703 2.2825 -0.991059 0.940534
19.837 18.7529 20.5679 -1.75697 1.33719 -0.714382
20.1494 19.298 23.3931 -0.1921 -0.0931062 0.633881
17.2544 18.1961 20.5808 0.337359 -1.05016 2.37735
18.8501 17.1079 22.4634 0.116849 0.491337 0.375525
17.3121 19.2847 23.0187 1.05231 -0.777143 0.635901
22.3684 18.5372 22.2162 1.37391 -1.50377 -0.110751
21.1266 16.2863 21.5214 0.351166 0.36709 -2.00497
24.4616 19.0606 20.9748 -0.450948 -0.608143 1.40682
17.5377 23.6708 22.6232 -0.51533 -1.65665 -1.01512
18.7027 21.6504 23.6892 -0.898693 0.953851 0.395262
16.017 21.652 23.0577 -0.994807 -0.394784 -0.809005
18.2737 21.0478 21.2227 1.03115 0.851035 2.00782
20.1635 23.7912 22.9149 0.901485 -0.0744061 -0.44282
15.6153 20.1029 20.9089 -0.251223 0.609905 -0.21097
21.0722 21.1752 21.6466 0.910508 -1.35384 0.163259
22.7969 23.2557 22.8283 -0.343159 0.350458 -0.308642
21.8588 23.4427 20.414 -2.14553 -0.0310644 0.586397
23.4482 20.7329 23.1391 0.203076 1.74228 0.22958
23.9323 21.7702 20.7378 0.554294 -1.5144 1.0135
21.4258 21.7172 24.2781 0.800193 0.9893 -1.87149
ITEM: TIMESTEP
11000
ITEM: NUMBER OF ATOMS
38
ITEM: BOX BOUNDS ss ss ss
1.5558574841796993e+01 2.4922515604535700e+01
1.6104089428153035e+01 2.3779950482646022e+01
1.6260684206463662e+01 2.4386592755768817e+01
ITEM: ATOMS x y z vx vy vz
18.8833 16.2461 19.8707 -1.75417 -1.23556 0.679224
18.8358 18.2914 18.2588 -0.0777305 0.738101 -0.801422
21.2051 17.0988 18.4965 0.721699 -0.00503687 -0.421176
22.301 19.5975 19.3963 -1.43861 -1.19758 -0.263895
21.0273 19.1925 16.8983 -1.02992 -0.337351 -0.475343
23.7267 17.4489 20.1402 -0.211362 0.782243 0.845659
23.6708 17.7605 17.6633 0.459282 0.16112 1.00192
16.6254 22.6248 20.2263 -0.999684 0.614724 -0.294363
18.8498 20.7844 16.6762 -0.866137 -0.984539 1.21469
19.1728 23.6489 20.2395 0.362948 -1.32599 -0.553164
17.2807 20.4552 19.0285 -0.905812 0.0967901 2.71564
20.0461 21.1769 18.9435 0.0793338 -0.562388 0.576692
18.0995 22.835 18.0797 1.31599 0.609357 -1.35368
24.8844 19.6355 19.0145 -1.39573 0.766759 -0.311443
20.6436 23.5706 17.9202 1.11564 1.84111 0.312396
21.3356 21.6243 16.2627 0.369824 0.98642 0.681533
23.484 20.1976 16.7689 1.48819 -0.167913 0.50745
22.8781 22.1586 18.2766 -0.257369 0.123781 2.05194
19.8483 18.8669 20.6959 0.668134 -0.744465 -0.21287
20.2002 19.4922 23.5583 1.36499 0.798451 0.526235
17.2844 18.0806 20.6773 -1.17285 -0.546287 -1.7149
19.3261 17.2674 22.4982 -0.483173 2.27906 0.0886766
17.3553 19.1595 23.0064 0.167131 -0.89747 1.49384
22.0679 18.4407 22.1137 2.57927 -1.68825 -0.484002
21.3495 16.2621 20.95 0.122306 1.42814 -0.634847
24.5178 19.2085 21.5862 0.698787 -0.740393 -0.895114
17.5279 23.612 22.506 -1.64306 -0.128229 -0.654284
18.5682 21.7839 23.9468 0.856869 0.578168 -0.639783
16.0651 21.5967 22.9964 -0.650652 -1.84671 -0.456696
18.3797 21.0072 21.5018 0.432838 0.216581 -0.345729
20.2586 23.6348 22.5986 -0.740623 -0.643782 0.5487
15.6154 20.0226 20.8683 -0.732182 0.34304 -0.53227
21.1245 21.3182 21.5472 0.16399 1.27612 -0.0473182
22.8055 23.0564 22.8529 0.226945 1.10692 -0.553446
21.8888 23.6598 20.3201 0.147991 0.10697 0.218562
23.0504 20.5808 23.4733 0.0927237 -0.131697 -0.3379
23.7488 21.5995 20.6697 0.493683 -2.39737 -0.140317
21.0777 22.0128 24.482 0.43049 0.727142 -1.33919
ITEM: TIMESTEP
12000
ITEM: NUMBER OF ATOMS
38
ITEM: BOX BOUNDS ss ss ss
1.5558574841796993e+01 2.4922515604535700e+01
1.6104089428153035e+01 2.3779950482646022e+01
1.6260684206463662e+01 2.4386592755768817e+01
ITEM: ATOMS x y z vx vy vz
18.802 16.1118 19.9511 -1.11957 0.208994 0.344002
18.9468 18.0623 18.135 -0.437811 1.20376 -1.81124
21.3025 17.0419 18.7909 1.02213 1.77798 0.66415
22.3723 19.6709 19.4675 -1.25261 0.785629 1.31313
21.1343 19.1321 16.9787 -0.0110939 -0.843768 0.905969
23.5581 17.3415 20.2879 0.66992 -0.506013 0.516194
23.6703 18.0754 17.8448 -0.0818752 -0.498707 0.784493
16.5393 22.659 20.104 0.0690463 -1.06051 1.30586
18.7431 20.3845 16.6081 -1.78946 0.223887 0.287329
19.3883 23.4634 20.264 1.39128 0.758844 0.609621
17.4035 20.2441 19.0405 0.0463631 -0.388748 -1.5609
20.0586 20.9246 18.8233 1.64094 -0.42039 0.16811
18.3062 22.7461 17.8973 -0.624253 -2.31672 -1.06982
24.8531 20.312 18.7662 -0.576953 1.18168 -3.35317
20.7511 23.9282 17.998 1.41263 -1.56399 3.06412
20.6646 21.7759 16.3605 2.02828 0.935989 -0.351705
23.3238 20.3219 16.6526 -0.824605 -0.343612 -1.15148
22.6171 22.0973 18.2442 0.654675 -1.41571 0.740152
20.0106 18.7261 20.4972 0.691091 1.92218 -1.10366
19.787 19.3725 23.3508 1.42379 -0.829394 -0.624956
17.2336 18.1372 20.724 0.125044 -0.0226163 0.171389
18.8454 17.0757 22.4444 -1.38006 -0.31001 -0.114829
17.0211 19.3899 23.0092 0.230083 0.477441 -0.804921
22.2292 18.7231 22.1638 -0.346662 1.34377 -1.11873
21.0827 16.272 21.3747 -0.476091 0.769588 0.41609
24.749 19.357 21.2929 -2.0127 -0.424165 1.35507
17.7069 23.7414 22.4619 0.551043 -1.27303 1.59157
18.3984 21.5366 24.0397 0.0251674 1.09154 -0.532202
16.1145 21.9946 22.6105 0.121975 -0.543683 0.524172
18.5111 21.1336 21.4524 -0.449918 -0.600476 -0.895132
20.2291 23.284 22.9695 -0.17371 1.44795 0.922613
15.5544 20.2336 20.8642 0.4429 -0.763132 0.0814639
21.3084 21.2141 21.6649 -0.0329774 -0.630731 0.310466
22.8849 23.1373 23.0358 -1.7232 1.03022 -0.186719
22.0252 23.5643 20.3771 0.62378 -1.23915 -1.14137
23.6105 20.7559 23.3159 0.842783 1.37266 -0.591132
24.0076 21.7849 20.7695 -0.650042 -0.337558 0.227706
21.2652 21.2834 24.377 -0.0493191 -0.200006 0.108304
ITEM: TIMESTEP
13000
ITEM: NUMBER OF ATOMS
38
ITEM: BOX BOUNDS ss ss ss
1.5558574841796993e+01 2.4922515604535700e+01
1.6104089428153035e+01 2.3779950482646022e+01
1.6260684206463662e+01 2.4386592755768817e+01
ITEM: ATOMS x y z vx vy vz
19.1324 16.2654 19.7088 0.174649 -1.33483 -1.32609
18.5884 18.2874 18.1642 0.229499 0.247537 0.158713
21.2954 17.1653 18.8717 0.193761 -0.00268565 -1.00809
22.4617 19.7702 19.4331 -0.679429 0.187148 -0.0410902
21.025 19.2178 17.0616 0.963503 -1.98015 -0.799196
23.4527 17.1507 20.3572 0.0853287 0.228804 -1.9101
23.9167 18.0375 18.0601 0.41069 0.438441 0.0210827
16.5626 22.7056 20.1901 -0.229112 0.575742 0.432563
18.8094 20.1974 16.4175 0.56315 1.47068 1.20421
19.1858 23.6248 20.1782 1.60524 -0.347535 1.2219
17.214 20.4835 18.775 0.525845 -0.377456 0.927068
20.1196 21.1707 18.9471 0.395782 -1.97916 0.153325
18.2337 22.6539 17.7506 0.51913 0.833408 -0.0934618
25.0043 20.3859 18.7583 0.458509 1.43919 -0.427824
20.5706 23.7216 17.9972 0.480761 -0.843005 -1.37372
20.9162 21.5975 16.2093 -0.183052 -0.320635 -0.439268
23.2831 20.256 16.6888 -0.55917 -0.896022 -0.00411178
22.8018 22.2565 18.3456 -1.43166 -0.223135 -1.30737
19.927 18.9362 20.751 -0.697152 0.324597 0.698049
19.8509 18.7711 23.4722 0.524174 1.10323 0.475541
17.176 18.1779 20.6706 -0.719379 -0.22849 0.151798
18.4377 16.9442 22.352 -1.04863 -1.25969 -0.474028
17.1605 19.2126 23.143 -0.300291 0.939976 -0.932515
22.3945 18.635 22.4764 -0.63918 0.271723 -0.727947
21.0413 16.5551 21.672 1.63188 1.13246 1.57066
24.7354 19.3567 21.1448 1.17107 0.231303 -0.772201