ITEM: TIMESTEP
0
ITEM: NUMBER OF ATOMS
38
ITEM: BOX BOUNDS ss ss ss
1.6333877096281203e+01 2.4516951287891263e+01
1.6508212300761659e+01 2.4522357136357677e+01
1.6010738912378958e+01 2.4797213894396894e+01
ITEM: ATOMS x y z vx vy vz
19.7008 19.4125 17.2465 1.60677 0.441167 0.892145
19.4083 16.5123 20.1751 -0.111947 -0.276811 1.05009
19.593 16.721 17.4884 -0.97472 1.06336 -1.31652
17.5921 18.1185 18.6468 1.09131 0.595058 -1.57686
19.6246 19.221 20.0778 1.23225 -0.539134 0.134812
21.6874 17.8905 16.2254 1.46865 0.0636153 0.0201765
23.7208 18.9409 20.3532 -1.00054 2.07081 -2.33818
23.7933 18.9697 17.5426 -0.393561 -0.279733 0.175705
21.6897 17.6552 18.9181 0.0919911 0.166776 1.45093
21.8602 20.4921 18.7543 -1.88171 0.243822 -0.169454
19.9128 22.0852 20.0552 -1.79582 1.42211 0.28865
17.8307 20.959 18.5811 0.219173 0.68883 -0.286586
18.1859 23.7035 18.6235 0.870288 0.0163465 -0.843584
20.0408 22.1916 17.2606 1.44015 2.16354 -0.503917
20.8177 24.3529 18.8493 0.904679 0.428765 -1.21909
22.7143 22.8438 17.5493 -1.09154 -0.626302 0.799276
22.6364 22.8593 20.3188 0.964823 -0.233618 0.882707
24.5127 21.2529 16.3963 -1.04188 -1.05432 -1.93102
24.5129 21.2556 19.0603 -2.9571 -2.36183 0.14992
21.9748 20.5753 16.0148 -1.3478 -1.51703 1.46107
16.889 17.0209 21.0158 1.77154 -0.772671 -1.01093
16.338 18.5036 23.2314 1.04618 0.664296 -0.154819
18.2551 19.6486 24.734 0.455303 -0.202216 0.472725
16.9197 19.7182 20.8876 2.19526 -0.295769 -0.0395596
18.8987 17.9676 22.552 -1.83641 0.361477 0.224331
23.5105 18.9986 23.0982 0.692985 0.891435 0.738891
20.9177 19.2502 23.9986 0.38005 -0.967117 1.22248
21.5182 17.6998 21.6814 0.76195 0.418697 1.32163
21.7313 20.4787 21.5839 1.0519 -0.800542 -1.18772
19.0603 20.7913 22.3998 -1.81986 1.30656 0.723561
17.2488 22.4929 20.9158 0.921662 -0.211616 -0.716847
20.0446 21.732 24.7931 -0.647688 -0.664358 0.384641
19.1405 24.5183 21.0429 -0.440769 -1.4344 -0.340915
16.5142 21.1885 23.2718 -0.621265 0.333858 1.15934
18.3048 23.2703 23.3311 1.58017 -0.762006 -0.399115
24.3345 21.2459 21.8055 -0.411395 1.52826 -1.26763
22.6414 21.4242 23.9862 -2.99048 -0.67141 -0.173799
20.9338 23.0475 22.5433 0.617408 -1.19788 1.92345
ITEM: TIMESTEP
1000
ITEM: NUMBER OF ATOMS
38
ITEM: BOX BOUNDS ss ss ss
1.6630691714472402e+01 2.4410325752649594e+01
1.6263325291890904e+01 2.4297888403583094e+01
1.5817164887200853e+01 2.4718673844492770e+01
ITEM: ATOMS x y z vx vy vz
19.4508 19.915 17.4109 0.427951 -1.92836 1.08291
20.0175 16.1785 20.4921 0.660319 -1.08112 0.579467
19.4651 17.2154 18.0188 1.3702 0.607997 -1.51931
17.2586 18.7396 18.2876 -0.405447 0.296273 -1.5667
19.6576 19.0486 20.046 0.792534 0.170143 -0.372436
21.7991 18.4345 16.7047 -0.519741 0.0183851 -0.744356
23.9527 18.8246 20.7394 0.921341 1.50965 0.476725
24.1559 18.4242 18.0596 -1.3977 -0.88498 0.632864
21.9093 17.6515 19.3527 0.984245 0.742333 0.606591
21.9565 20.3652 18.6941 0.509151 0.0460322 -0.368629
19.7847 22.0085 19.8062 -1.57761 1.25161 -1.0771
17.5062 21.4723 18.1927 -1.05328 1.47684 -0.40862
17.9562 23.9469 18.5147 1.14533 1.01823 -0.637847
19.8538 22.637 17.0534 0.832298 1.95592 -0.267559
20.7985 24.3597 18.7022 -0.406911 1.22794 0.569724
22.5814 22.663 17.5921 -0.711209 -0.16815 -0.600589
22.5102 22.932 20.1768 0.85838 0.16802 -0.404443
23.7475 20.3982 16.3686 -1.40788 -2.78308 -0.329539
24.3626 21.114 19.1002 -0.718528 -0.784266 -0.332086
21.3154 20.9921 15.7858 -1.81632 0.179743 -0.438851
17.5205 17.1852 20.3853 -0.948549 -1.34659 0.118601
16.6609 18.5797 22.8889 0.559205 -0.592442 0.912372
18.4331 19.4322 24.5936 -1.67625 -0.806779 -1.01369
16.895 19.7757 20.683 2.51026 0.19764 -0.527115
19.0951 17.8644 22.5569 0.380796 0.74087 0.149796
23.6567 19.0728 23.3154 -1.42357 -1.14679 0.355293
21.0059 19.235 24.1934 1.3809 0.521254 0.964639
21.9433 17.4752 22.0622 0.652942 0.308325 0.434607
21.6953 20.0953 21.5777 -0.323514 -1.12614 0.925741
19.0575 20.7159 22.2744 -0.50624 0.110271 1.27458
17.3053 22.4268 20.8598 1.27788 1.14837 1.08479
19.82 21.6542 24.7253 -0.113541 1.11884 0.034399
19.248 24.2825 20.8631 0.867894 -0.100779 -0.183295
16.6578 21.223 23.5009 0.537215 -2.26694 -1.22437
18.3579 23.2382 23.3473 -0.950443 -0.773525 1.55435
24.1 21.3997 21.7344 0.272109 -0.122506 -0.174374
22.5887 21.3108 23.9031 -0.270982 1.06675 1.45879
20.9297 22.7228 22.4468 -0.713232 0.0310159 -1.02534
ITEM: TIMESTEP
2000
ITEM: NUMBER OF ATOMS
38
ITEM: BOX BOUNDS ss ss ss
1.6630691714472402e+01 2.4410325752649594e+01
1.6263325291890904e+01 2.4297888403583094e+01
1.5817164887200853e+01 2.4718673844492770e+01
ITEM: ATOMS x y z vx vy vz
19.7359 19.7588 17.3109 0.390012 1.09538 -3.27755
19.6646 16.1761 20.5901 -0.553397 -1.81653 0.0854232
19.375 17.0414 18.0952 -0.00331482 -0.605626 -1.66868
17.2309 18.6133 18.3044 1.23865 -0.0372546 0.750213
19.5077 18.8292 20.0269 -1.08422 -0.58819 -0.0366071
21.9426 18.5496 16.6137 1.76022 1.32665 -0.207004
23.7283 18.8404 20.4587 0.408609 -0.683704 -0.244155
24.1249 18.7118 17.9813 -0.403368 0.795637 0.0855314
21.8393 17.5331 19.1643 0.11415 -0.351911 0.368046
21.9589 20.559 18.7436 -0.362261 -1.72057 -0.279721
19.7706 21.8757 19.7413 -0.413074 -0.20765 -1.0805
17.5907 21.0855 18.4256 0.722965 0.298065 1.3483
18.1196 23.6512 18.633 0.40397 1.28469 1.20577
20.0579 22.4075 17.1866 -0.901129 0.399327 -0.341917
20.8714 24.3173 19.131 -0.666784 -0.488389 -0.192068
22.6654 22.761 17.6804 -0.191097 0.0436667 -0.70233
22.5054 22.6997 20.3761 1.84052 -0.723833 0.29331
23.907 20.7531 16.5221 0.348597 1.00919 -0.128386
24.5542 21.1934 19.0867 -0.500648 -0.717005 0.275435
21.6334 21.0059 15.6604 1.42838 0.248084 -0.120817
17.1578 17.2459 20.7794 -2.04106 -1.6848 0.479356
16.5866 18.5117 22.9523 -0.0707881 0.660578 1.64708
18.3925 19.8796 24.6637 -0.86901 1.75675 0.904838
17.0838 19.7952 20.7785 -1.20115 -0.814062 1.3597
19.0835 17.8806 22.7852 0.447428 0.701624 -0.417184
23.5262 18.9524 22.9801 0.0735568 1.18993 0.00840378
20.9718 19.2918 24.0276 0.641332 0.297997 -1.48105
21.526 17.5922 21.7682 0.443256 -0.273246 0.583981
21.7031 20.3542 21.4447 -1.29939 0.428184 0.327338
19.2315 20.6944 22.3426 0.480262 -1.57624 0.416274
17.1768 22.423 20.8492 0.188376 -0.126051 -0.155602
20.2025 21.8018 24.7072 -1.89377 0.646635 1.79023
19.029 24.3858 20.9268 0.187076 0.843874 -0.5062
16.5252 21.1375 23.13 1.28418 -0.697559 -0.380847
18.2477 22.991 23.3195 0.989851 -0.521219 0.882499
24.4184 21.1246 21.7108 -0.683954 -0.71281 0.719649
22.5796 21.484 23.6047 -0.632094 0.618059 -1.08875
20.7842 23.1013 22.5071 0.379108 0.702333 -1.22202
ITEM: TIMESTEP
3000
ITEM: NUMBER OF ATOMS
38
ITEM: BOX BOUNDS ss ss ss
1.6630691714472402e+01 2.4410325752649594e+01
1.6263325291890904e+01 2.4297888403583094e+01
1.5817164887200853e+01 2.4718673844492770e+01
ITEM: ATOMS x y z vx vy vz
19.5104 19.6657 17.0256 1.2006 2.67631 -0.952563
19.6712 16.3673 20.4642 1.21632 -0.566465 0.153599
19.6566 17.0479 17.9324 -1.69027 -1.30777 0.677858
17.4311 18.3599 18.4748 -0.524899 -0.0403818 0.0951607
19.7189 19.089 19.8701 0.170478 1.29104 1.27433
21.6625 18.3604 16.4909 -1.86956 -0.937232 0.70585
23.7182 18.7953 20.5707 1.3777 0.314473 -0.195019
24.0593 18.6068 17.9116 1.04022 -1.82722 -0.890685
21.9108 17.4503 19.2322 -0.562331 1.17223 -0.479983
21.8896 20.2277 18.5618 -0.499965 1.50686 0.605209
19.8817 22.0484 19.8842 0.0433588 0.650508 -0.0554994
17.6908 21.0391 18.3814 -1.62705 -0.246932 0.208261
18.1756 23.8306 18.6787 0.177122 -1.63659 -1.27035
19.8802 22.4707 17.3084 0.787047 -1.07655 -1.11646
20.84 24.4066 19.1101 0.0224365 1.0211 0.557112
22.569 22.8301 17.8068 0.966453 -0.946689 0.959667
22.5904 22.7556 20.4556 -0.533817 -0.540442 -1.33309
23.9983 20.8118 16.5574 0.0138455 1.37989 1.06345
24.3231 21.0742 19.101 0.10373 1.24146 -1.77477
21.5625 21.0266 15.9922 1.63265 -0.803065 -0.197373
17.2736 17.172 20.8134 0.662367 -0.590027 -1.01687
16.4957 18.5954 23.1318 0.421912 -1.08017 0.23948
18.3056 19.8546 24.568 -0.406001 -0.0563967 -0.682894
17.059 19.7192 20.8492 0.0970997 -0.146963 0.764539
19.0051 17.8623 22.5378 1.01645 0.714742 0.870126
23.4638 19.0866 23.2326 -0.440015 -0.0141772 0.835158
20.8761 19.2115 23.9935 -0.596078 -1.44082 -0.0626412
21.6181 17.5217 21.9882 -1.82045 2.00806 -0.16238
21.8042 20.2916 21.4124 1.37989 -0.708189 -0.704272
19.1178 20.6394 22.1607 -0.108319 -1.38117 -1.3676
17.4176 22.4855 20.7605 0.72863 -0.34587 0.294138
20.2449 21.6991 24.6985 -0.561005 0.399042 -1.30699
19.0212 24.5409 21.153 1.41648 1.45524 0.03007
16.6588 21.218 23.1154 -2.21671 1.26994 2.28816
18.1338 23.0722 23.2888 0.387775 -0.610119 1.00302
24.4686 21.157 21.6777 -0.831087 0.137428 0.156085
22.6833 21.6494 23.3915 0.141627 0.0861304 -0.188371
20.6227 22.9696 22.4266 -0.716612 -1.02125 0.976538
ITEM: TIMESTEP
4000
ITEM: NUMBER OF ATOMS
38
ITEM: BOX BOUNDS ss ss ss
1.6630691714472402e+01 2.4410325752649594e+01
1.6263325291890904e+01 2.4297888403583094e+01
1.5817164887200853e+01 2.4718673844492770e+01
ITEM: ATOMS x y z vx vy vz
19.4046 19.814 17.317 -0.0910942 0.220599 0.582782
19.9753 16.3351 20.583 0.769569 1.15705 -0.913983
19.6615 17.2476 17.9614 2.22989 -0.465821 -0.628484
17.4794 18.4256 18.3088 -1.51964 0.751162 -0.796934
19.6943 19.0773 20.0183 0.444768 -0.164697 0.932662
21.739 18.3654 16.738 1.21322 0.498128 -0.0342136
23.7616 18.9337 20.6102 0.153905 0.0656305 0.0914343
23.9882 18.46 18.007 0.317917 0.2595 0.876749
22.106 17.229 19.2864 1.19611 -0.0836987 0.326191
21.8721 20.2506 18.6403 0.122045 1.29423 0.222286
19.7668 21.989 19.8786 -1.31014 1.10598 -1.44019
17.3759 21.4803 18.324 -0.746628 -0.60319 1.52062
18.1828 24.0211 18.7635 -1.22574 0.148197 0.158077
19.7374 22.5786 17.1767 -1.54999 -1.00407 -0.310529
20.8553 24.3934 18.7989 1.40951 0.714581 -0.956716
22.4441 22.7358 17.3972 -0.409705 -0.940385 -1.02592
22.3673 22.8107 20.1774 0.799629 0.404265 -0.244989
23.643 20.3696 16.6115 -1.3645 -0.697372 0.514453
24.3422 21.104 19.29 0.433765 -1.50707 0.6081
21.2129 20.7923 15.7994 -1.1562 -0.195606 -1.27985
17.5537 17.3028 20.4265 0.0260882 0.120366 -0.548443
16.8157 18.595 22.639 -0.190208 0.318746 -1.42662
18.2529 19.6003 24.5478 0.00367631 -0.167056 -0.392797
17.0052 20.0307 20.4021 0.584884 -0.574345 2.18896
19.3063 17.8597 22.6809 -1.78894 -0.427926 0.808503
23.6145 18.9854 23.1979 -1.02854 -0.308699 -0.208399
21.0415 19.0662 24.1716 -0.44734 -1.59822 -0.6863
21.8965 17.3544 22.1073 0.619042 -1.22172 -0.0348662
21.691 20.0938 21.4771 -0.635697 0.942529 -1.3372
19.1689 20.7109 22.2992 1.77714 1.31783 -0.561026
17.3118 22.7643 20.9382 0.931008 -0.59059 0.805841
19.9065 21.4304 24.9713 0.891268 0.435056 1.2629
19.188 24.4948 21.0295 -0.669232 0.661167 -1.24428
16.6819 21.2565 22.9888 0.894972 0.362801 -0.940032
18.5285 23.1527 23.3724 0.62259 1.12976 0.928881
24.0554 21.6045 21.7838 -0.110497 0.153464 1.60679
22.4842 21.3782 23.8673 -0.505048 -0.415598 1.7624
20.8979 22.916 22.4221 -0.691849 -1.09497 -0.185867
ITEM: TIMESTEP
5000
ITEM: NUMBER OF ATOMS
38
ITEM: BOX BOUNDS ss ss ss
1.6630691714472402e+01 2.4410325752649594e+01
1.6263325291890904e+01 2.4297888403583094e+01
1.5817164887200853e+01 2.4718673844492770e+01
ITEM: ATOMS x y z vx vy vz
19.6316 19.5429 17.0557 0.494246 -0.0500635 0.408964
19.7701 16.382 20.3065 0.864434 0.297706 0.106621
19.5947 17.1382 17.8645 0.0525389 0.233733 -0.921364
17.3571 18.551 18.4916 0.0333404 2.0982 -0.0386024
19.6212 19.0727 20.0166 0.671185 0.542071 -1.38516
21.657 18.317 16.4968 0.93044 -0.83151 0.164689
23.9105 18.9935 20.4072 -0.928041 -0.768028 0.585494
23.8341 18.4015 17.9086 -0.853994 1.3227 0.873581
21.9369 17.4302 19.2431 0.475535 0.592633 0.786653
21.7948 20.2383 18.5541 0.587636 -1.69009 -0.121055
19.6931 21.9281 19.8767 0.290175 2.08476 0.474797
17.723 21.177 18.3645 0.785565 -0.607795 -0.311102
18.194 23.7869 18.6802 -1.46857 1.62653 1.15679
19.9751 22.2721 17.2385 0.292931 -1.4128 1.5063
20.7117 24.4159 18.7917 -0.156301 -1.51388 0.726045
22.561 22.6954 17.6313 -1.60294 1.18723 -1.74339
22.3113 22.918 20.2055 0.101591 -0.372422 -1.45088
23.976 20.5317 16.7005 -0.422108 -0.624515 -0.113855
24.2678 21.2923 19.1488 1.23759 -0.29132 0.904593
21.6484 20.9266 15.7418 -0.252836 -0.139586 -1.6236
17.2795 17.251 20.6385 1.04291 -0.148509 0.595854
16.7407 18.7471 22.8787 -0.573893 0.0247671 1.09518
18.3524 19.4487 24.711 0.21012 1.37859 -1.03838
16.9701 20.0908 20.6859 -0.135283 0.792172 -0.260934
19.2175 17.7531 22.6056 -0.363836 -1.16179 0.00423347
23.4538 19.2631 23.0899 -1.1758 -1.69278 0.255942
20.9615 19.1806 23.9782 -0.81576 -2.87659 0.310755
21.9043 17.4853 21.8924 -0.898758 -0.363746 0.0721455
21.5675 20.2641 21.3732 1.28994 -0.745704 -1.02375
19.062 20.6551 22.3505 1.08628 0.64967 -1.22557
17.3877 22.6933 20.8791 -2.39205 -1.26501 0.829627
19.9674 21.5986 24.8528 1.89442 -0.300471 1.60025
19.4399 24.3422 21.0583 -0.889874 0.0883521 0.120453
16.7189 21.3529 23.3517 1.49968 0.387898 -1.35193
18.4184 23.1694 23.3061 -0.216439 0.333579 0.11814
23.8587 21.7126 21.8918 1.26423 1.1397 0.801485
22.4947 21.4219 24.2004 -0.371924 1.44784 0.40483
21.0457 22.5691 22.5418 -1.58639 0.628476 -1.29382
ITEM: TIMESTEP
6000
ITEM: NUMBER OF ATOMS
38
ITEM: BOX BOUNDS ss ss ss
1.6630691714472402e+01 2.4410325752649594e+01
1.6263325291890904e+01 2.4297888403583094e+01
1.5817164887200853e+01 2.4718673844492770e+01
ITEM: ATOMS x y z vx vy vz
19.2855 19.7993 17.0747 -0.951415 0.142228 0.776128
19.9941 16.2687 20.6611 1.38047 0.534929 -0.128643
19.3414 17.0013 18.1083 -0.764176 0.620254 0.151826
17.1888 18.5119 18.1616 -0.674952 0.814484 -0.691641
19.4749 19.1624 19.8857 -0.251972 0.118285 -0.158745
21.3409 18.2572 16.6848 0.960355 -0.759475 1.13308
23.9806 18.6829 20.5508 0.2493 -1.04692 -0.155234
23.7726 18.5724 17.9588 -0.12398 -1.59678 -1.32794
21.79 17.4403 19.3048 0.334258 -0.72411 -0.54656
21.6795 20.2627 18.5482 -0.737092 -0.606851 0.572487
19.8802 22.0388 19.9968 -1.13615 -1.0942 0.711173
17.6132 21.3089 18.4639 0.349014 -0.0210116 -1.88683
18.4357 23.9048 18.6129 0.82828 -0.789935 0.644859
20.3389 22.6254 17.2786 0.184523 -1.63666 0.977496
20.9272 24.2891 19.361 0.930803 0.99659 1.16061
22.7211 22.7173 17.5978 -0.83556 1.53872 -1.79948
22.6341 22.6096 20.3403 -0.136518 -0.0479411 1.38114
23.8546 20.5719 16.5517 -0.103235 0.792013 1.54907
24.4192 20.7805 19.1589 0.59677 1.22312 0.323975
21.4655 20.8305 15.9482 1.61219 -1.33199 0.081377
17.5929 17.2637 20.3935 -0.178624 -0.748238 -1.06728
17.0706 18.3596 22.8348 1.25611 -0.196783 -0.831819
18.2596 19.662 24.5985 1.33767 0.696569 0.628161
16.8048 19.8964 20.5433 -0.222083 2.11665 0.413976
19.5659 18.1551 22.4941 -0.488349 1.4596 -0.506955
23.804 19.2567 23.2065 -0.371851 0.0222385 0.699803
21.18 19.3254 24.1317 -1.21523 -0.167738 0.662074
22.098 17.553 22.0514 0.209326 0.0724695 -0.773944
21.737 20.1261 21.3332 -0.887367 1.71325 1.71106
18.875 20.6903 22.2307 1.08779 0.222998 1.83743
17.2797 22.6779 20.9698 -0.519197 0.524309 -0.0771322
19.9253 21.6733 24.6135 2.09354 -0.119519 -1.15452
18.8793 24.629 21.0171 -1.59944 0.612249 0.0120708
16.3569 21.0369 23.1314 0.584986 -0.445846 0.443324
18.0009 23.101 23.4831 0.281536 -1.46342 -0.867538
24.3856 21.2401 21.8523 -0.810163 -1.06644 -1.77351
22.4222 21.6339 23.5321 -1.19023 0.351403 -1.29347
20.6344 23.0935 22.3442 -1.07933 -0.708508 -0.82987
ITEM: TIMESTEP
7000
ITEM: NUMBER OF ATOMS
38
ITEM: BOX BOUNDS ss ss ss
1.6630691714472402e+01 2.4410325752649594e+01
1.6263325291890904e+01 2.4297888403583094e+01
1.5817164887200853e+01 2.4718673844492770e+01
ITEM: ATOMS x y z vx vy vz
19.508 19.8603 17.2188 1.03677 -0.890573 -0.686909
19.8571 16.4873 20.2974 -1.63697 -0.704375 -2.23068
19.6457 17.2243 17.6891 -0.847637 1.2386 -0.578512
17.4299 18.2728 18.5445 0.243515 1.13621 0.0333993
19.5348 19.1091 20.0193 -0.419258 -0.450295 1.10625
21.9076 18.5685 16.4303 1.13601 -0.734683 -0.371363
23.8394 18.7378 20.5639 0.06956 1.44076 1.91478
24.1381 18.4135 18.008 0.621513 0.112925 1.48459
21.7806 17.8265 19.1347 -1.47077 -0.0998287 0.125645
21.9344 20.3427 18.5008 -0.835019 -0.577338 -0.782279
19.7915 21.9568 19.7694 -0.160167 0.281676 1.21132
17.592 21.0904 18.5158 1.64908 -1.09735 -0.469546
18.2694 23.8862 18.733 -0.532249 1.66582 0.79907
19.9487 22.5297 17.2564 1.62427 0.516911 0.933604
20.8462 24.3418 19.0583 -0.00517402 -1.60478 -1.87889
22.6943 22.6489 17.6599 -1.41367 -0.654758 -2.18745
22.7222 22.6138 20.2448 0.654429 0.2264 -0.56625
23.8477 20.5627 16.3926 0.168038 -1.17574 -2.26339
24.4627 20.9079 19.0217 -0.188877 -1.6409 0.426108
21.5307 21.1048 15.7022 0.166706 0.31407 -0.167635
17.3678 17.2357 21.0796 -0.28926 0.606131 -0.436921
16.6271 18.6612 23.0486 1.19451 -0.621945 -0.989904
18.2676 19.67 24.6433 0.160247 -0.995172 1.17372
16.7436 19.7714 20.7662 0.904963 0.952662 0.840993
19.1891 17.8321 22.7877 0.469917 0.359756 1.17523
23.4615 19.0596 23.3496 0.64115 0.321092 -1.35586
20.9693 19.4621 23.9539 -0.834857 0.853316 -0.790296
21.7003 17.5574 21.9917 -0.463872 1.95819 -1.57492
21.6346 20.2461 21.5023 -0.284818 0.750513 1.49852
19.0067 20.6659 22.1371 0.662634 -1.79717 1.34321
17.1998 22.439 20.8136 -1.67801 0.204572 1.17954
19.9505 21.8337 24.4872 -0.933364 1.87113 0.75373
18.8593 24.3489 21.2343 -0.329294 -1.01387 0.231651
16.5261 21.222 23.1505 -0.9605 -1.52711 -1.61207
18.2196 23.0506 23.3935 -0.185422 -0.313087 0.993724
24.331 21.092 21.8325 1.34514 1.29207 0.52146
22.6608 21.5361 23.8311 -0.081923 -1.05242 0.248287
21.0142 22.8405 22.2464 0.802654 0.848563 0.94803
ITEM: TIMESTEP
8000
ITEM: NUMBER OF ATOMS
38
ITEM: BOX BOUNDS ss ss ss
1.6630691714472402e+01 2.4410325752649594e+01
1.6263325291890904e+01 2.4297888403583094e+01
1.5817164887200853e+01 2.4718673844492770e+01
ITEM: ATOMS x y z vx vy vz
19.4663 19.668 17.042 -0.32528 1.0347 -0.10266
19.8185 16.2896 20.6299 -0.00753281 2.56272 0.997739
19.6785 17.0634 18.0999 0.106881 -0.293163 -0.358994
17.3651 18.5008 18.3543 -0.571996 0.969802 -1.55759
19.6103 19.0798 20.0501 0.500303 1.14449 -0.310661
21.8775 18.4639 16.6586 0.449997 -0.493205 0.204321
24.0412 18.6953 20.553 -2.10565 1.42388 0.513519
23.998 18.6754 18.0058 0.119051 0.159468 -0.829502
21.9791 17.6326 19.339 0.663729 -0.097404 0.601629
21.8143 20.3753 18.4238 0.0614309 0.473712 -0.207427
19.9281 22.0381 19.7976 -1.15663 -2.09287 -0.161037
17.7151 21.2059 18.3897 -1.80694 0.667354 -0.111682
18.2461 23.981 18.7864 1.79297 1.90887 -1.23271
19.725 22.4839 17.0795 1.13331 -1.64701 1.53367
20.7462 24.5371 18.8372 -1.73659 1.64758 0.116139
22.33 22.7205 17.5238 0.302643 0.805661 -0.0248681
22.4487 22.8378 20.2513 -0.074428 -0.387407 -0.554078
23.6973 20.734 16.3317 -1.70855 -2.54694 -0.552843
24.1421 21.1488 19.3083 1.17323 -1.10894 1.05827
21.4071 20.8899 15.6259 -0.153516 0.317613 -0.13172
17.4238 17.4282 20.6299 0.974265 0.862053 0.0472834
16.6413 18.4738 22.8872 1.5421 -1.3009 1.41828
18.1989 19.6794 24.5626 -0.0210206 -0.107472 0.725963
16.8194 20.0068 20.6821 1.74274 -0.909002 0.5232
19.2067 17.8262 22.7463 0.332367 -2.73866 -1.13741
23.5888 18.8943 23.2754 -0.351937 1.67957 0.812769
20.8524 19.2904 24.0412 -2.24397 1.39647 -0.872515
21.7311 17.5701 21.9867 0.239632 0.569586 0.158701
21.9334 20.2481 21.4244 2.14345 -0.137513 -0.46002
19.1013 20.589 22.1787 -1.08263 -0.542804 0.527579
17.2474 22.564 20.9057 -0.510024 0.0738035 0.272794
19.8546 21.7887 24.5178 -0.356229 -0.138629 -1.47467
19.4927 24.3104 21.0537 1.8615 1.14989 -0.831063
16.5846 21.1793 23.2175 -0.693591 -0.902587 0.284023
18.2033 23.1805 23.2376 1.13345 -1.20355 1.05079
24.3304 20.9863 21.9794 -0.866179 -1.19744 0.81685
22.6879 21.2656 24.1173 0.36263 -0.0240373 -0.361737
21.0779 22.7079 22.4787 -0.86302 -0.977669 -0.390337
ITEM: TIMESTEP
9000
ITEM: NUMBER OF ATOMS
38
ITEM: BOX BOUNDS ss ss ss
1.6630691714472402e+01 2.4410325752649594e+01
1.6263325291890904e+01 2.4297888403583094e+01
1.5817164887200853e+01 2.4718673844492770e+01
ITEM: ATOMS x y z vx vy vz
19.2381 19.59 16.896 -3.13946 0.785351 1.05679
19.8738 16.0899 20.7297 -0.187254 -0.943401 -1.28819
19.351 17.0359 18.2595 -0.431068 -0.0160575 -1.02936
17.084 18.72 17.9643 0.524128 -0.0910098 0.686348
19.4093 19.3782 19.6118 1.16309 0.0163157 -0.299327
21.5532 18.2014 16.9236 0.0868485 1.73121 1.0674
24.1868 18.6522 20.6843 0.762282 -0.994655 0.321262
23.859 18.7333 18.1153 1.73499 1.396 -1.1416
21.6992 17.6963 19.5544 0.412544 0.110363 0.0703876
21.7682 20.3514 18.488 -0.747802 0.362799 -0.0872079
20.0215 22.1023 19.8277 -0.183091 0.592608 1.07562
17.7394 21.2406 18.5186 -0.23223 -0.201953 -0.732638
18.2858 23.9987 18.7874 2.12943 0.217872 -0.427097
19.7538 22.5765 17.1899 0.0501951 -0.481057 -0.876771
20.933 24.4429 18.7965 -0.308339 -0.832177 -0.851091
22.47 22.7259 17.5833 0.959942 -0.482539 0.310364
22.5303 22.8839 20.3739 -0.129783 0.919784 -0.927917
23.7307 20.7146 16.6306 -0.535699 0.742074 -0.886032
24.3031 21.2153 19.2546 -2.76198 -1.33211 0.326476
21.4909 20.648 15.8788 1.4849 0.500582 1.2806
17.5419 17.3704 20.2762 -0.305067 -3.10445 1.46736
16.8341 18.6025 22.6302 0.261212 1.00903 0.0567509
18.45 19.3858 24.4591 -0.467429 0.426819 0.107767
16.6036 19.8525 20.4699 -0.0207243 0.112509 0.0338794
19.5007 18.0558 22.2802 -1.58191 -0.0339853 1.212
23.7259 19.2292 23.1995 -1.8345 1.63386 -0.878362
21.1452 19.1833 24.1888 -0.283094 0.828594 0.301702
21.9086 17.359 22.1897 0.650692 -1.50297 -0.64704
21.7719 19.9854 21.5523 0.463087 0.78591 0.386322
19.028 20.6605 22.2054 0.059827 -1.43753 -0.487202
17.2683 22.3584 20.9497 0.717001 -0.777572 -0.599072
19.9399 21.5362 24.7112 1.16811 -0.122082 0.171388
19.3276 24.4295 21.0274 -0.122517 0.308268 0.297291
16.7182 21.1165 23.38 -0.188198 0.240531 0.354872
18.3814 23.2659 23.1028 0.446957 0.476849 -0.0135817
24.1444 21.3611 21.8404 1.82104 -0.266535 1.81719
22.5008 21.5229 23.9248 -0.633133 -0.845989 -0.0579381
20.9384 22.7377 22.5539 -0.802997 0.268746 -1.17134
ITEM: TIMESTEP
10000
ITEM: NUMBER OF ATOMS
38
ITEM: BOX BOUNDS ss ss ss
1.6630691714472402e+01 2.4410325752649594e+01
1.6263325291890904e+01 2.4297888403583094e+01
1.5817164887200853e+01 2.4718673844492770e+01
ITEM: ATOMS x y z vx vy vz
19.3924 19.6871 17.3458 0.176191 0.063841 -0.704656
19.9257 16.2473 20.5749 0.665615 -0.819942 0.0299115
19.4673 17.0218 18.0241 1.08369 -0.0968033 -1.4435
17.3396 18.6629 18.2403 -0.965389 -0.77238 1.14856
19.6439 18.9467 20.0195 -0.71113 0.26824 1.74169
21.6877 18.3065 16.7518 -1.19377 -2.6206 -0.693742
23.6666 18.9715 20.5832 -0.0635948 -0.626331 -0.0404868
24.0924 18.5582 18.0542 -1.98169 -1.17927 0.956445
21.8209 17.3904 19.1714 -1.12101 2.20675 0.502919
22.0759 20.3004 18.6067 -0.248467 0.490304 -0.326435
19.9914 21.983 19.6799 0.227765 1.43395 -1.12331
17.7313 21.2486 18.3787 0.162236 -0.624029 1.30239
18.2104 23.7458 18.7707 0.751885 -0.66417 -0.184094
19.8496 22.6896 16.9542 -0.156568 -0.495308 -0.656537
20.8397 24.4055 18.9613 -0.0527651 1.40876 -0.52661
22.3832 22.7316 17.5285 0.254475 -0.346271 0.469074
22.4977 22.8795 20.3765 -0.345492 -1.68413 0.0503249
23.8366 20.5221 16.4607 -1.12848 0.612099 1.31492
24.5518 21.4555 18.8271 -0.553664 2.11612 0.438031
21.4865 20.7368 15.9499 0.644116 -0.117868 2.09527
17.4796 17.173 20.4268 0.983353 -0.708563 -0.676417
16.5973 18.6179 22.7704 -0.101559 -0.265397 -2.11312
18.2974 19.3973 24.491 -0.274853 0.103282 -0.492731
17.0106 19.967 20.5951 -1.15223 0.225373 0.0164909
18.9854 17.8675 22.5057 -0.0196669 -1.41256 -0.627494
23.547 19.212 23.2867 -0.757741 -0.245511 0.397843
20.8935 19.0636 24.1513 0.846871 -0.458101 1.094
21.7391 17.5623 21.8885 1.21064 -1.03453 -1.52169
21.531 20.2455 21.6635 2.33468 0.464531 -1.02838
18.906 20.699 22.2806 1.94023 1.12595 -0.205658
17.3667 22.6665 21.0309 -0.94179 0.835678 -1.24937
20.1005 21.5711 24.5857 2.15949 -0.600182 -0.6602
19.3412 24.4202 21.176 -0.24983 -0.250721 1.06451
16.6222 21.2506 23.4628 -0.910783 1.6926 -0.045477
18.4305 23.1883 23.3284 0.366129 0.784297 0.195804
24.1371 21.297 21.7407 1.51631 -0.304703 -0.6438
22.6288 21.4424 23.9435 -1.10437 0.951861 0.858114
20.9054 22.878 22.423 -1.28885 0.543741 1.28741
ITEM: TIMESTEP
11000
ITEM: NUMBER OF ATOMS
38
ITEM: BOX BOUNDS ss ss ss
1.6630691714472402e+01 2.4410325752649594e+01
1.6263325291890904e+01 2.4297888403583094e+01
1.5817164887200853e+01 2.4718673844492770e+01
ITEM: ATOMS x y z vx vy vz
19.3264 19.8446 17.0139 -0.161473 -1.42014 -0.117989
19.7756 16.41 20.2952 -1.0177 0.727082 -0.0124648
19.9699 17.2276 17.9215 0.82172 1.8775 0.230772
17.565 18.4399 18.3361 -0.208727 -1.37816 0.0692047
19.498 19.1492 19.9819 0.343663 0.178026 0.764141
21.7444 18.4585 16.4717 -0.240678 0.119773 -0.191416
23.9383 18.9621 20.6965 0.560133 -0.393525 -1.11238
24.1379 18.428 18.216 0.0202065 0.443507 0.991754
21.9739 17.9438 19.4955 0.867249 -0.728467 -0.674109
21.6503 20.2722 18.3754 1.78748 0.365688 -0.580924
19.9419 21.9618 19.9854 -1.14081 0.0935063 0.124415
17.6731 21.3086 18.5473 -1.53317 -1.29549 0.58153
18.0876 23.844 18.7457 -1.12504 0.549561 0.799819
19.8118 22.5463 17.1305 -0.730376 -1.59474 -1.25086
20.6694 24.2621 19.1132 1.81153 0.37155 0.360024
22.5186 22.6333 17.4098 -0.0180028 -0.573618 0.608824
22.6594 22.5065 19.9726 0.308852 -0.759294 0.121537
23.6886 20.3278 16.4097 -0.723774 0.599187 -0.788898
24.4352 20.8742 18.8694 -0.80712 1.37761 0.290516
21.4591 21.0001 15.6137 1.77423 -1.64542 1.81609
17.3563 17.2763 20.6407 -2.82202 -0.773749 -2.08231
16.7414 18.7008 22.8083 -0.436073 0.11615 0.0673108
18.3114 19.5124 24.6174 -0.866942 0.604493 0.0900067
16.6121 19.9569 20.5091 0.0741894 -0.344034 -0.0757397
19.1713 17.8497 22.3149 1.84695 -0.253634 0.801981
23.5067 19.0183 23.4365 0.469633 0.293136 -1.57496
20.8614 19.2175 24.1069 0.769582 -2.09449 0.441842
21.9495 17.5492 22.0865 0.0128938 -0.819531 -0.898907
21.7467 20.2446 21.5815 1.20815 0.574572 0.805237
18.9453 20.7366 22.3302 0.554175 0.530208 -0.283627
17.4603 22.5141 21.0227 1.14468 1.95728 0.473515
20.0271 21.6481 24.9037 -0.286921 -0.682267 0.621159
19.1815 24.576 21.2206 -0.0568313 1.38555 0.301442
16.4759 21.2131 23.1048 -0.94553 0.146159 0.26212
18.5558 23.1084 23.5237 -1.16523 1.61144 -0.740425
24.0862 21.2866 21.7962 0.0406086 0.468851 -1.69426
22.5676 21.3638 23.9967 -1.31368 0.0264893 1.47905
20.9291 22.8369 22.409 1.18418 0.339236 -0.023018
ITEM: TIMESTEP
12000
ITEM: NUMBER OF ATOMS
38
ITEM: BOX BOUNDS ss ss ss
1.6630691714472402e+01 2.4410325752649594e+01
1.6263325291890904e+01 2.4297888403583094e+01
1.5817164887200853e+01 2.4718673844492770e+01
ITEM: ATOMS x y z vx vy vz
19.3796 19.7116 17.3043 -1.06761 0.119693 -1.72905
19.9998 16.272 20.4806 -0.329879 0.828843 -1.13772
19.2841 17.133 18.0497 0.302468 -0.937052 0.605308
17.2449 18.6398 18.1185 0.744155 0.8312 -0.352151
19.5032 18.8872 20.0967 2.48519 0.633558 0.401327
21.5326 18.3105 16.6754 -0.0413231 -0.889667 1.5596
23.9538 18.96 20.4794 0.371805 -0.935301 -0.694805
24.139 18.4498 17.9817 0.194761 -1.13381 2.11224
21.9005 17.4778 19.0385 2.06996 0.843949 -0.839649
21.9524 20.2111 18.6897 1.16098 1.05996 -0.210808
19.8826 21.7272 19.7164 -1.49946 0.149147 1.02645
17.4637 21.3643 18.4844 -1.41171 0.78823 -0.793039
18.2634 23.9746 18.9261 -1.97092 0.997651 -0.154864
19.6193 22.4784 17.1319 -1.65662 -0.163207 0.396817
20.8799 24.2483 18.9681 0.656771 0.535182 -0.372254
22.4142 22.4956 17.5209 1.36374 -0.121555 1.4202
22.5666 22.7003 20.1974 -0.229379 -0.712588 -0.922857
23.9958 20.6978 16.5991 -1.70664 -0.65875 0.261247
24.5475 21.1662 19.2612 0.983112 -0.67132 -0.931388
21.422 20.7443 15.9895 -0.644553 -1.65499 0.909357
17.3584 17.2241 20.3224 -0.271274 0.523946 -0.735924
16.8748 18.6275 22.6498 -1.03669 0.247185 -0.271466
18.2376 19.4088 24.5375 2.8232 -1.63146 1.44214
16.8596 20.0773 20.6205 0.179792 -1.18043 0.17194
19.2569 17.7467 22.5574 0.135329 0.89705 -1.00277
23.601 19.3069 23.1217 -0.611427 0.551847 -0.340108
20.8426 19.1462 24.0248 1.46006 -0.412594 0.247225
22.0031 17.5694 21.8235 0.243574 -0.665654 1.25251
21.6824 20.2946 21.432 0.0145186 -0.848019 -0.415362
19.1229 20.6062 22.2794 -2.30094 1.13403 -1.29736
17.4836 22.6097 21.1068 2.33396 0.708292 -1.36345
19.6975 21.632 24.7095 -0.903093 0.521054 0.874959
19.4049 24.6703 21.0467 -0.518088 2.22575 2.75684
16.753 21.2532 23.3205 -0.941027 0.249966 -0.954467
18.6485 23.3465 23.3173 -0.493895 -0.57827 0.288895
23.9916 21.6768 21.9885 -0.073913 0.57021 -0.537542
22.3456 21.2755 24.0498 -0.356296 -0.279481 0.151956
20.9012 22.8885 22.3926 0.541361 -0.942586 -0.82199
ITEM: TIMESTEP
13000
ITEM: NUMBER OF ATOMS
38
ITEM: BOX BOUNDS ss ss ss
1.6630691714472402e+01 2.4410325752649594e+01
1.6263325291890904e+01 2.4297888403583094e+01
1.5817164887200853e+01 2.4718673844492770e+01
ITEM: ATOMS x y z vx vy vz
19.3929 19.5744 17.153 1.94006 -0.262209 -1.32517
19.9955 16.4011 20.4315 0.537128 -0.710361 -0.455675
19.109 17.0207 18.083 -2.41474 -0.509284 0.283602
17.1482 18.4071 18.2549 2.57603 -1.07604 1.14624
19.5423 19.0885 19.767 0.245552 2.60414 -0.296881
21.7567 18.4521 16.5881 0.0475962 -0.67004 -0.186692
23.9918 18.7307 20.6427 -0.342903 -0.979107 0.937516
24.0677 18.5645 17.937 -0.942602 2.23892 1.12334
21.8766 17.7984 19.1707 1.00789 -0.176928 -1.64426
21.761 20.4154 18.5676 0.721683 -1.31381 2.05248
19.8911 21.9968 19.9512 1.90951 -0.0748101 0.481406
17.6788 21.1194 18.5422 1.3977 0.356161 -1.08722
18.3114 24.0726 18.8423 0.737414 0.961348 0.0342293
19.8756 22.5132 17.2274 1.2636 1.20205 -1.15658
20.9862 24.1827 19.2071 -0.125805 0.767839 1.85106
22.6943 22.786 17.5454 -0.740888 -1.12105 -0.475179
22.8635 22.7336 20.3249 -1.03756 1.68973 -0.703872
23.8927 20.7347 16.5971 -1.76456 -0.289242 0.57163
24.4555 20.9862 19.1013 0.917699 0.275417 -0.574341
21.3089 20.9765 15.9652 0.976168 -1.30211 0.986704
17.4587 17.2856 20.6383 -1.27746 0.236017 -0.433841
16.7476 18.6236 22.8931 -1.33188 -0.657823 0.764439
18.2641 19.8225 24.4985 -1.04244 1.06225 -0.833209
16.6662 19.8611 20.6178 -0.0740282 -0.956181 1.1625
19.2995 17.9023 22.4069 0.0801967 1.093 0.0476686
23.593 19.1006 23.3199 -0.1493 2.15586 -0.114479
20.927 19.3899 24.0126 -0.918054 -0.48075 -1.00071
21.837 17.4891 22.0626 0.337466 -1.24123 -1.91024
21.7323 20.1074 21.4609 -1.9068 -0.637802 0.616323