ITEM: TIMESTEP
0
ITEM: NUMBER OF ATOMS
38
ITEM: BOX BOUNDS ss ss ss
1.5994570893424417e+01 2.4913428921011675e+01
1.6013529325816858e+01 2.4828281195916983e+01
1.5753407361299367e+01 2.4991040164061765e+01
ITEM: ATOMS x y z vx vy vz
17.3783 18.4053 18.9785 -0.313593 0.728313 0.338122
20.3954 20.0784 15.7575 1.68508 -0.146259 0.451149
19.5438 18.0925 17.3303 -1.19146 0.132213 -0.376164
20.2682 18.4436 20.0156 0.985242 0.506922 1.03131
19.0861 16.1695 19.1628 -1.65189 0.40755 0.317527
17.8685 20.3288 17.0534 -0.665202 0.439085 2.04053
24.1071 18.4414 19.6967 -0.387211 1.67515 -2.45446
22.1441 18.9242 17.7141 0.43587 0.0264641 0.214064
22.0708 16.6422 19.2993 -0.797896 -1.45638 -0.641639
22.3697 20.3839 20.1547 1.18439 -0.759464 -1.63061
16.1281 20.9019 19.0667 0.818533 0.330413 0.417603
18.1561 22.7041 18.956 0.342896 0.606434 -0.830837
20.1607 20.7975 18.4195 0.189306 0.0436541 -0.460783
19.3672 22.4774 16.3676 0.33107 -0.845998 2.10482
20.638 23.74 18.3511 1.38258 0.592227 0.651844
24.2235 20.6368 18.0503 0.835497 -0.24092 0.312084
22.1044 21.8648 16.8619 0.553761 -0.72309 1.02409
23.1021 22.9138 19.2172 -2.19911 0.3256 -0.553593
15.9986 19.3702 21.2338 2.10644 -0.8897 0.00987564
19.7358 20.1027 24.987 0.639177 -0.632919 1.25974
18.0711 17.4686 21.4431 0.0722415 0.218469 1.34754
19.8799 17.6599 23.5254 -2.85043 -2.34168 -0.585733
17.8107 19.5356 23.222 1.57777 -0.706284 0.520344
18.4189 20.4071 20.6285 1.8826 -0.823267 0.15987
22.0841 18.9208 24.4677 -1.0505 0.899728 0.593804
20.4582 16.0176 21.4325 0.898746 -0.447554 -0.569977
20.6299 19.9927 22.3695 0.176907 -0.815169 0.372546
23.5866 20.2121 22.6739 -1.70552 -1.67969 0.796253
22.4034 17.873 21.8205 0.99096 1.97012 -0.887365
18.8757 22.0757 23.0939 -0.813923 0.859278 -0.869138
18.6921 24.201 21.2375 -0.714308 2.21593 -2.32235
16.7158 22.298 21.3572 -2.32095 -0.51239 0.10078
23.0262 22.7916 21.9395 1.44601 0.216478 0.821913
21.7276 21.7287 24.1362 -1.40612 1.08719 0.277612
21.5843 24.8242 20.6303 1.30777 1.0041 0.43807
20.522 22.3447 20.7796 -1.5287 -0.537669 0.569071
24.9093 21.2171 20.5512 0.987067 0.309915 -1.67023
20.7676 24.0225 23.0277 -1.23312 -1.0368 -2.31768
ITEM: TIMESTEP
1000
ITEM: NUMBER OF ATOMS
38
ITEM: BOX BOUNDS ss ss ss
1.5994570893424417e+01 2.4913428921011675e+01
1.6013529325816858e+01 2.4828281195916983e+01
1.5753407361299367e+01 2.4991040164061765e+01
ITEM: ATOMS x y z vx vy vz
17.641 18.6206 18.913 0.695564 -0.699801 0.276346
20.5035 20.0451 15.8491 0.444768 -0.21204 0.915514
19.76 18.075 17.3407 0.893301 -1.09216 -1.50914
20.1714 18.536 20.1166 1.19684 -1.04264 -0.981573
19.1152 16.2279 19.2079 0.245268 -0.579488 1.92654
17.816 20.2523 16.8029 -0.489634 1.80178 0.171029
24.339 18.5944 19.9569 -1.31076 -0.082435 -0.0502294
22.3022 18.846 17.608 -0.514735 -0.546591 -1.59013
22.0604 16.7893 19.4372 0.333078 0.111106 -0.304223
22.4201 20.314 19.8403 0.420912 2.02665 0.431846
16.2436 20.8606 18.9645 0.477734 0.595812 0.638217
17.9204 22.7155 18.9145 0.532317 -0.626719 0.0867207
19.8512 20.7562 18.2984 -0.841887 -0.70445 -0.757999
19.3463 22.3897 16.3945 1.00572 -0.262297 -1.45398
20.4672 23.6612 18.5466 -0.181365 2.16838 0.403564
24.1803 20.6428 18.0134 1.03025 0.61897 0.654489
21.9795 21.9013 16.9719 0.31608 0.616126 -0.479362
23.0437 23.0758 19.0964 0.67066 -1.4425 1.38063
15.9896 19.3794 21.1295 -1.57945 0.775042 -0.183783
19.6839 20.1794 24.7925 0.257542 -1.70546 -0.387061
18.0295 17.4446 21.4561 -1.15094 -0.71103 0.354854
19.7585 17.653 23.6052 -0.259877 0.782557 -1.02234
17.7209 19.6118 23.0933 -0.868168 -0.272864 -0.766481
18.38 20.6983 20.7847 -0.341852 -0.203853 0.292701
21.9488 18.9326 24.4054 0.67131 -0.280888 0.383119
20.3373 16.0937 21.5493 0.224103 -0.265027 1.56364
20.6694 19.9408 22.4758 0.530375 0.0540395 0.375837
23.5756 20.0483 22.5447 0.00249957 -0.325208 -1.24243
22.3504 17.8135 21.7843 0.615415 -0.258338 0.626459
18.9441 22.1075 23.2136 -0.258917 -0.335355 0.256465
18.8878 23.9794 21.2033 -0.68595 0.442691 0.0381468
16.5959 22.0801 21.7603 -0.140103 1.21337 1.77759
23.0852 22.6921 22.017 0.770488 0.114018 -0.341317
21.8451 21.683 24.1188 0.958442 1.00669 0.480322
21.7314 24.7556 20.6683 0.0673039 -0.532094 -0.0343552
20.7054 22.3332 20.736 -1.80145 0.0941382 0.0403613
24.703 21.3257 20.4242 -0.767547 -0.250413 -0.509906
20.9074 23.9543 22.9749 -1.16733 0.0102638 -1.46008
ITEM: TIMESTEP
2000
ITEM: NUMBER OF ATOMS
38
ITEM: BOX BOUNDS ss ss ss
1.5994570893424417e+01 2.4913428921011675e+01
1.6013529325816858e+01 2.4828281195916983e+01
1.5753407361299367e+01 2.4991040164061765e+01
ITEM: ATOMS x y z vx vy vz
17.4044 18.3956 18.976 0.381328 -0.0386081 1.09079
20.3685 20.0465 15.7902 -0.192787 -1.23755 -0.384842
19.8161 18.1144 17.4691 0.897284 -1.67808 0.162043
20.1686 18.5736 20.0974 0.193456 -0.297157 -0.0926233
19.3652 16.2228 19.1086 0.1914 0.494908 1.59041
17.675 20.294 17.1069 -0.00993227 0.638864 -0.836074
24.1281 18.4816 19.9353 1.33716 -0.0816628 0.160037
22.2552 19.132 17.7111 0.686254 -0.635962 -0.899536
22.0447 16.986 19.2711 0.708305 -0.527142 1.2629
22.3831 20.2775 20.1473 1.16321 -0.94171 0.183068
16.1602 20.9548 19.0781 -1.01011 -1.17138 -0.0251361
18.1576 22.6443 18.8188 -0.721546 -1.29632 -0.456289
20.1013 20.7905 18.4128 0.0252107 2.40337 0.413448
19.3231 22.3688 16.3871 0.626887 2.58382 0.797113
20.5309 23.7315 18.3085 -0.0751883 1.30175 -0.17929
24.2764 20.6815 18.0566 0.340443 1.55959 -0.879331
22.069 21.884 17.0014 -2.77934 1.34266 -1.06262
23.0502 22.9055 19.1936 1.06699 -1.55294 -0.371853
16.0551 19.4433 21.2052 -1.02458 0.234219 -0.944481
19.7763 19.9752 25.0237 0.54781 -0.980413 0.672513
18.0825 17.4519 21.4335 0.441973 1.57702 -0.6264
19.7653 17.6107 23.5397 -1.88294 -0.314695 1.19474
17.8129 19.539 23.1848 -1.36791 -0.402844 0.515553
18.3961 20.43 20.6367 -0.231047 0.017289 0.22029
22.1087 18.8956 24.4163 0.64958 -2.66069 1.27026
20.3705 15.9227 21.4562 -1.34138 -0.0983785 -1.16573
20.4894 20.0036 22.4188 -1.40221 0.572721 -0.910841
23.5769 20.1044 22.6118 1.04792 -0.928644 0.915775
22.118 17.847 21.8743 0.844097 0.14671 1.06273
18.9481 22.0434 23.2442 0.395464 0.655321 0.83614
18.8292 24.0684 21.0041 -0.591869 0.683481 -1.19134
16.8455 22.3764 21.4965 -0.600875 -0.435168 -0.193234
23.0412 22.7023 21.8997 0.698168 0.45244 0.585262
21.6838 21.75 23.893 -0.940271 0.0225155 -0.101973
21.5532 24.8177 20.6027 -1.60943 0.884643 -0.228052
20.5796 22.2219 20.7926 1.95332 -0.864459 -0.324503
24.941 21.3271 20.4038 1.12354 -0.45155 -2.06767
20.7591 23.9944 23.0024 0.461609 1.02402 0.00873939
ITEM: TIMESTEP
3000
ITEM: NUMBER OF ATOMS
38
ITEM: BOX BOUNDS ss ss ss
1.5994570893424417e+01 2.4913428921011675e+01
1.6013529325816858e+01 2.4828281195916983e+01
1.5753407361299367e+01 2.4991040164061765e+01
ITEM: ATOMS x y z vx vy vz
17.4866 18.1579 19.0065 -0.405651 -0.121375 1.75533
20.2134 20.1323 15.8956 0.796901 -0.725344 0.674447
19.8081 17.8623 17.395 -0.371489 0.339517 -0.0683456
20.3455 18.4948 19.7803 0.301357 -0.356897 -0.0479967
19.2928 16.1385 19.5828 0.314562 0.584474 1.65589
18.0688 20.2537 17.5233 0.823941 0.337776 -1.25159
24.2901 18.5187 19.3648 1.61095 -0.0338314 1.81614
22.1279 18.9883 17.7169 1.00484 0.838867 -0.979516
22.1265 16.6693 19.4559 -1.04969 0.764236 -0.399431
22.3768 20.2766 20.1857 1.54163 0.0291925 -1.29898
16.0923 20.9132 19.1295 0.224605 0.612465 0.0181563
18.1642 22.654 18.9031 -0.649221 -0.703359 0.0496784
20.3952 20.9575 18.4576 -0.192329 -2.1213 -1.19266
19.4256 22.6183 16.5574 -1.02131 -0.303939 -0.21586
20.6965 23.884 18.4534 -0.195497 0.677009 0.17629
23.9674 20.7035 17.9569 -0.290882 0.815455 -1.70915
21.9602 21.9056 16.7183 -0.821358 0.527755 -1.2001
23.1151 22.8672 19.2236 -0.464827 -1.17916 0.294994
15.922 19.3966 21.1232 0.635412 0.427303 -0.810699
19.6667 20.0237 24.8955 -0.373749 -0.110082 0.607254
18.0938 17.578 21.4258 0.723718 0.632601 0.866146
19.0933 17.5991 23.8213 0.496672 -1.00095 -1.21997
17.5774 19.7155 23.117 -0.0578252 0.0528069 -0.838624
18.4371 20.482 20.5249 -1.52045 0.360956 1.42606
21.904 18.5859 23.9908 -1.15047 -1.06304 -0.346874
20.6471 16.7599 21.7734 0.231656 -0.796677 0.460457
20.3776 19.7306 22.3025 0.0472191 -0.813271 -0.999929
23.4607 20.2985 22.6432 -0.239311 -2.65944 1.66976
22.9025 18.0206 21.5312 1.27748 0.36839 -0.412225
18.8581 22.0223 23.0329 0.940319 0.774106 -0.737502
18.8838 24.193 21.1747 -0.740421 0.239975 1.86436
16.857 22.1439 21.4131 0.101353 0.396932 -0.26787
23.0227 22.8398 21.9137 1.15823 -0.209295 -1.3816
21.5599 21.6169 23.9176 -1.15318 1.2013 0.779859
21.6123 24.7698 20.6266 1.05854 0.676143 -0.452516
20.5023 22.313 20.9178 -1.55618 1.41426 -0.193232
24.8877 20.9407 20.4555 -1.73231 0.272361 1.59358
20.791 23.9844 23.1026 0.696765 -0.145918 0.316264
ITEM: TIMESTEP
4000
ITEM: NUMBER OF ATOMS
38
ITEM: BOX BOUNDS ss ss ss
1.5994570893424417e+01 2.4913428921011675e+01
1.6013529325816858e+01 2.4828281195916983e+01
1.5753407361299367e+01 2.4991040164061765e+01
ITEM: ATOMS x y z vx vy vz
17.2753 18.364 18.9919 -1.59253 0.771064 0.575476
20.4382 19.9782 15.9199 -0.46155 0.588575 -1.62268
19.5176 17.9752 17.3351 0.960012 -0.246323 -0.759095
20.2879 18.6006 19.7584 1.04296 0.732139 -0.759503
19.2575 16.2482 19.4713 0.177385 0.204371 -0.994826
18.0874 20.2546 17.2919 -0.408804 1.60867 0.614395
24.2303 18.4572 19.3637 -0.287871 1.16486 0.91267
22.1858 18.9519 17.6101 -1.06108 -0.149894 0.595926
21.9455 16.8409 19.1031 0.318145 -0.89066 0.84842
22.5412 20.3494 19.9514 0.550131 0.221293 -0.66208
16.072 20.71 18.9979 0.54882 1.42867 -1.96666
17.8463 22.6684 18.9443 1.62244 0.00311959 1.19291
20.2493 20.9447 18.5034 0.72516 -0.0305517 2.56812
19.5795 22.4758 16.4654 -1.39486 -1.57591 -0.720106
20.3535 23.5725 18.8128 0.251446 -1.19437 -0.0441114
24.3161 20.7132 18.0109 1.04058 0.199637 -1.0665
22.1363 21.9498 17.0313 -1.30589 -0.874594 0.984027
23.1865 23.0339 19.2455 -0.639384 -1.07408 0.198045
15.9709 19.2956 21.1943 -1.10706 -0.14305 -1.89971
19.7032 20.2586 24.895 -0.250309 0.939303 -0.131379
18.1011 17.8142 21.5957 -0.0578899 -1.42956 1.03175
19.4038 17.716 23.9084 2.0261 -0.0347085 0.4841
17.6647 19.7048 23.2058 -0.202221 -0.929175 0.0453861
18.4274 20.6247 20.5477 -0.0980671 -1.69579 0.637306
21.884 18.7429 24.241 -0.662 0.185238 0.15513
20.5886 16.5008 21.8115 -0.18774 -1.11918 -0.0231337
20.4889 19.6231 22.1268 0.10262 1.59318 0.306622
23.4745 20.2243 22.6694 0.856849 -0.400459 -1.61794
22.698 17.9768 21.5407 0.813593 0.226159 0.406132
18.7882 22.1594 23.0162 -0.156006 0.935606 0.268582
18.846 23.9334 21.0974 -0.829043 0.388731 -0.584956
16.3963 21.9285 21.3978 -0.670754 0.611513 0.658542
23.3533 22.7912 21.9871 0.486468 0.687002 1.04901
21.4399 21.56 23.7123 -2.41404 -0.8537 0.854718
21.8475 24.6988 20.7893 0.46041 1.24418 0.0471587
20.767 22.0956 21.0033 1.15537 -0.204429 -0.642621
24.8968 21.1815 20.5657 0.227403 -0.340271 -0.774315
20.7637 24.0913 22.8962 0.421191 -0.546596 -0.164813
ITEM: TIMESTEP
5000
ITEM: NUMBER OF ATOMS
38
ITEM: BOX BOUNDS ss ss ss
1.5994570893424417e+01 2.4913428921011675e+01
1.6013529325816858e+01 2.4828281195916983e+01
1.5753407361299367e+01 2.4991040164061765e+01
ITEM: ATOMS x y z vx vy vz
17.2647 18.2876 19.019 0.460926 -1.56334 -0.303365
20.4287 20.1996 15.8262 -0.272267 0.0655453 0.188816
19.7109 18.2727 17.388 0.951807 1.95153 1.62856
20.3009 18.4266 20.0117 0.0634486 -1.03248 -1.13553
19.0786 16.248 19.0667 -1.2232 -0.688337 0.00977499
18.063 20.3915 17.3951 1.76669 -0.346014 -0.665201
23.9529 18.4378 20.0112 -1.01137 -0.734053 0.439793
22.2831 18.9818 17.8231 1.26251 0.0179686 -0.884312
21.9812 16.464 19.2687 -1.35198 -0.159579 0.711733
22.4027 20.3126 20.3194 0.339309 -1.03013 -1.35807
16.2397 20.8087 19.1141 -0.459697 1.4452 1.00466
18.0907 22.6519 18.8428 -0.635341 -1.12745 0.726768
20.4127 20.9198 18.4229 0.622204 0.306773 0.13341
19.4899 22.5229 16.3017 -0.333476 0.268233 0.955385
20.2844 23.8786 18.5225 0.0949179 -0.834083 0.761943
24.2501 20.7773 18.0905 0.576122 -0.613305 0.879583
22.2078 21.8617 16.5715 -1.47229 0.0289882 1.02176
22.7168 22.8517 19.0303 1.62392 1.05077 -0.0530845
16.0009 19.3373 21.2667 0.614858 0.556024 0.0947336
19.7199 20.0482 24.9383 0.391223 -1.60979 -0.673975
18.133 17.683 21.6156 -0.768503 0.186528 -0.603961
20.0621 17.6046 23.3734 1.46299 1.37329 -0.635378
17.7963 19.7941 23.1963 -0.215082 -0.249116 -0.246609
18.4957 20.3456 20.4964 0.284187 0.565073 -0.363771
22.0584 19.1083 24.3971 -0.230354 1.26898 1.69494
20.314 15.9337 21.1749 -0.981611 -1.10088 0.528496
20.5404 19.9167 22.3908 -2.47964 1.68594 0.41397
23.6015 20.1408 22.7203 0.298827 0.388356 -0.5443
22.2376 17.7289 21.9187 0.530566 0.550867 0.334172
19.0437 22.1502 23.1225 1.61333 0.186911 0.697208
18.6738 24.1395 21.0101 0.770133 -0.341335 0.624531
16.9246 22.0701 21.5924 -1.18206 0.424257 -1.39292
23.0401 22.7714 21.8403 0.368895 1.21744 -2.11697
21.6348 21.7057 24.0773 0.28957 -1.64975 -0.862635
21.5997 24.7958 20.6206 -1.22626 0.349243 1.37505
20.4276 22.2602 20.7709 -0.0443127 -0.985653 -0.310107
24.8019 21.193 20.5682 1.45071 0.898722 -0.826899
20.7453 23.9884 22.8939 -1.94972 -0.721361 -1.24818
ITEM: TIMESTEP
6000
ITEM: NUMBER OF ATOMS
38
ITEM: BOX BOUNDS ss ss ss
1.5994570893424417e+01 2.4913428921011675e+01
1.6013529325816858e+01 2.4828281195916983e+01
1.5753407361299367e+01 2.4991040164061765e+01
ITEM: ATOMS x y z vx vy vz
17.7465 18.5271 18.8571 1.17986 1.32323 -0.797404
20.4045 20.1229 15.704 -0.271884 0.85069 -1.02432
19.9071 17.9809 17.2103 0.916432 1.42574 2.2948
20.3998 18.4723 20.2873 0.175131 -0.0875848 0.173979
19.2529 16.2237 19.1855 0.126167 -0.471887 -0.123898
17.9231 20.1313 16.774 0.654413 -0.977105 0.120199
23.9668 18.4145 19.883 -0.513795 -0.563449 2.18195
22.3229 18.9946 17.5653 -1.34969 0.628501 -0.037966
21.9541 16.8979 19.1724 -2.31291 0.171881 -0.307612
22.3874 20.444 20.0415 0.522479 -1.96815 -0.379284
16.4271 20.8831 19.073 -0.459836 0.0238015 -1.13716
18.0772 22.7418 19.0364 -0.0842523 0.401869 0.538354
19.8257 20.5837 18.4447 -1.11751 -0.25302 0.34063
18.9853 22.3989 16.6191 0.296116 -1.28367 -0.523341
20.4906 23.7384 18.1969 -0.423338 0.13395 -0.712175
24.3076 20.6295 18.1589 0.775936 -0.645469 -0.741124
21.8261 21.7405 17.1711 -1.19662 1.20176 0.0654329
23.1256 23.0309 19.2895 0.177386 0.329675 1.44469
15.975 19.637 21.1727 0.692588 1.32259 0.075927
19.7454 20.042 24.9613 1.93877 0.470466 0.647139
17.9141 17.6317 21.398 -0.800075 -1.80163 -1.07357
19.9666 17.8645 23.2316 1.26959 0.577017 0.236829
17.7004 19.5035 23.2949 0.581137 -1.05087 -1.22039
18.3716 20.4646 20.8757 0.699948 0.849519 -0.50195
21.9896 18.9531 24.4476 -0.438423 -0.798976 1.97871
20.3449 16.0469 21.399 0.10864 -0.540828 -0.615137
20.7224 20.2589 22.4412 0.444082 1.84853 -1.01033
23.5479 20.237 22.7109 -0.579811 -0.0192513 -1.53722
22.4827 17.8107 22.0405 0.301372 0.451147 1.05041
18.904 22.0712 23.21 0.0612721 0.271821 -1.31704
18.7886 24.0144 21.1832 -0.757918 -0.914721 0.895372
16.7165 22.4649 21.3621 -0.218512 -0.0481809 -0.259697
22.9113 22.5494 21.8954 -0.744412 -0.754238 1.37631
21.7667 21.6134 24.4124 1.53559 0.604844 0.11125
21.466 24.7055 20.461 0.459804 0.0881221 -1.0631
20.5129 22.2903 20.4936 -1.04679 -0.708509 1.15316
24.9117 21.156 20.336 0.445189 -0.233961 -0.725383
20.9415 23.739 23.0131 -1.04612 0.146355 0.422954
ITEM: TIMESTEP
7000
ITEM: NUMBER OF ATOMS
38
ITEM: BOX BOUNDS ss ss ss
1.6038236497525070e+01 2.4947194892235220e+01
1.6037505603266709e+01 2.4659682471884203e+01
1.5904337922432084e+01 2.4774604088305843e+01
ITEM: ATOMS x y z vx vy vz
17.5014 18.3891 18.9854 -1.42781 1.10556 -0.484047
20.5768 19.9877 15.851 -0.534021 0.6514 -1.41855
19.7136 17.8641 17.3586 -1.07049 0.403458 -0.3475
19.1705 16.2622 19.3609 -0.103924 -0.85941 0.122578
18.0396 19.8047 16.5339 0.0806481 1.00107 0.224867
24.2696 18.5497 19.8504 0.150506 -0.613461 -0.409086
22.1735 18.7956 17.6899 0.256949 -0.641015 -0.316853
22.1042 16.7455 19.3448 2.26242 -0.643194 0.682902
16.6584 20.8574 18.7098 2.43642 -0.0284886 -0.627378
18.122 23.0103 18.9734 -1.04378 0.256065 1.80856
19.5635 20.5555 18.5359 0.0479522 0.694895 0.069143
19.213 22.0946 16.5412 0.346218 -0.320365 -0.314764
22.396 20.4944 19.8872 1.14005 -1.42183 0.382049
20.5645 23.9872 18.4185 0.372954 -1.28265 0.264569
24.1277 20.6636 18.0439 0.318145 0.261652 1.79592
21.7149 21.7324 17.5263 -1.70679 1.10757 0.55406
23.0376 23.234 19.3593 -0.106906 -1.32391 -0.325434
24.8729 21.4694 20.3289 -0.2399 0.519563 0.0787606
20.3363 18.5609 20.1472 -0.497756 -0.0810445 0.454412
15.9228 19.9249 21.1714 -1.61377 -0.293792 -0.207802
17.834 17.7714 21.4611 -0.578097 -0.0494493 -0.245085
19.7371 18.236 23.2294 1.48217 0.821233 1.04616
17.2781 19.6255 23.3911 -0.759698 -0.398162 0.533107
20.4357 16.2897 21.5584 0.609735 1.52404 -0.398796
22.1941 18.8419 24.2329 0.565446 0.330468 0.983504
23.9253 19.8652 22.4661 0.169174 -0.0891943 -0.522272
22.6984 17.6567 21.7011 -1.27573 -0.876414 1.13698
19.7788 20.4319 24.505 -0.0598303 -0.818916 -0.25401
18.5544 20.5242 21.0882 1.02027 0.842757 1.47826
18.185 22.0473 23.2984 0.941418 1.25491 0.155187
18.673 23.9634 21.3444 -1.07526 -1.28711 0.0638398
16.5238 22.4068 21.0599 0.0240727 -0.332304 -0.309024
20.5621 22.2916 20.3793 1.10509 0.75757 -2.34098
21.0678 20.3052 22.192 1.86991 -0.212198 -2.2254
22.9517 22.6049 21.8963 -0.821846 0.749059 -0.590929
22.4083 21.4037 24.2523 -1.03135 -0.561154 -0.501017
21.5118 24.6646 21.0485 -0.537551 -0.988766 1.56269
20.6122 23.0967 23.2878 -0.71503 0.841563 -1.55862
ITEM: TIMESTEP
8000
ITEM: NUMBER OF ATOMS
38
ITEM: BOX BOUNDS ss ss ss
1.6038236497525070e+01 2.4947194892235220e+01
1.6037505603266709e+01 2.4659682471884203e+01
1.5904337922432084e+01 2.4774604088305843e+01
ITEM: ATOMS x y z vx vy vz
17.5782 18.6251 19.2199 1.27321 0.466538 0.456015
20.2435 19.9885 15.7674 -1.09876 0.441281 0.981032
19.8706 17.8005 17.4878 0.174394 -1.47202 -0.616557
18.8618 16.2702 19.394 -1.62645 0.479833 0.728302
17.9422 19.6304 16.628 -0.110531 0.211041 -0.906376
24.2551 18.6236 19.8038 -0.447501 1.63528 0.910081
22.3207 19.0939 17.5722 -0.7403 0.788255 0.922443
21.788 17.1406 19.3309 1.71962 -0.320094 -0.282693
16.781 21.0418 18.4643 -0.92668 -0.600266 0.267429
18.1627 23.1897 18.8452 0.353359 -0.158209 -0.0719296
19.844 20.3046 18.4053 1.54276 0.570052 2.55607
19.1185 22.1833 16.6175 -0.0363921 -1.2471 -0.195559
22.3594 20.2106 20.0859 0.694031 -0.655739 -1.37922
20.5077 24.0925 18.4039 0.26551 -0.394191 -0.0340956
24.07 20.7884 17.9121 -0.119087 1.77036 -0.0524314
21.7503 21.8833 17.547 -1.25818 0.534881 0.878628
23.2653 23.1564 19.536 -0.206025 -0.296225 0.333491
24.7951 21.2661 20.3371 0.34533 -0.131503 -1.30477
19.893 18.4721 20.6425 1.154 0.837755 -0.0506531
16.2589 19.6577 21.1487 -1.47191 -1.11376 0.0317119
17.7652 17.1704 21.5988 -1.72431 0.637195 0.120343
20.0452 17.5977 23.3501 -0.341143 1.02247 0.48438
18.1816 19.4822 22.9812 -0.938063 -0.520557 0.0366864
20.2955 16.0049 21.4419 0.255415 0.616841 -0.325875
22.1099 18.9358 24.3414 0.133737 0.247002 0.47268
23.7323 20.0205 22.523 1.75579 -0.426905 0.577408
22.5012 17.9734 21.6806 0.505772 -0.310435 0.0628413
19.8936 20.1848 24.8531 0.333585 -0.443548 -1.10977
18.4815 20.8264 20.7773 -0.628321 -0.728824 -1.05101
18.3832 22.0776 23.0351 1.13118 0.667367 -1.43481
18.8636 24.1062 21.2148 1.83278 0.376335 -0.682937
16.4476 22.4542 21.0501 0.0257621 0.414518 -0.446439
20.6579 22.3176 20.2598 1.6408 0.49064 -0.617477
20.8363 20.3602 22.372 -1.78721 -0.37608 -0.110129
22.9731 22.6523 22.0405 -0.969237 -1.01606 1.07306
22.1382 21.5829 24.4651 0.463274 -1.99399 -0.325936
21.3758 24.6484 20.7632 -1.47627 -0.214703 -0.362793
20.6622 23.195 23.1124 0.306081 0.21256 0.468855
ITEM: TIMESTEP
9000
ITEM: NUMBER OF ATOMS
38
ITEM: BOX BOUNDS ss ss ss
1.6038236497525070e+01 2.4947194892235220e+01
1.6037505603266709e+01 2.4659682471884203e+01
1.5904337922432084e+01 2.4774604088305843e+01
ITEM: ATOMS x y z vx vy vz
17.6681 18.4046 18.8316 -0.552413 0.691576 -0.38416
20.5019 20.1203 15.9188 -1.27643 -0.541563 0.917436
19.6561 18.002 17.3044 -2.15588 0.791174 0.913234
19.288 16.2478 19.2371 0.511189 -0.223333 1.88238
17.9979 19.8158 16.4549 0.457796 -0.672642 -1.57036
23.7172 18.5356 19.9095 -0.298526 -0.0378435 1.04742
22.1048 18.8801 17.7114 0.915618 -0.0326408 1.20207
21.8635 16.4404 19.4481 0.108095 -0.0254108 0.421857
17.0447 21.0412 18.7273 1.50369 2.06322 0.211611
18.1604 23.3284 19.2899 -0.931699 1.03891 0.342414
19.8243 20.6765 18.5161 -2.62891 0.3907 1.57857
18.8239 22.3177 16.7049 1.17693 -0.210098 -1.43049
22.2884 20.7344 19.7111 -1.32573 0.327246 1.05645
20.588 23.7047 18.3121 -1.24192 -0.69631 0.726112
24.2177 20.4429 17.9659 1.61934 0.309757 0.264401
22.0138 21.7839 17.1109 -0.0409358 0.0375536 -0.261041
23.1581 23.0791 19.2164 0.232079 -0.221826 -0.549337
24.8871 21.4444 20.3189 0.153627 0.381093 0.738619
20.4118 18.5346 20.1563 -0.192905 0.83791 0.199507
16.0146 19.3672 20.7745 -0.804984 0.391141 -0.392382
18.0855 17.553 21.4719 1.6582 0.744205 0.371613
19.7824 18.323 23.3041 0.0976669 -1.71886 -2.06827
17.1474 19.7268 23.2307 0.864726 -1.37362 -0.918479
20.4632 16.1118 21.6769 0.137788 -0.979568 -0.441636
22.1768 18.9764 24.4036 -0.37614 1.83775 0.0263236
23.844 19.9245 22.3294 -0.481826 1.3956 0.951046
22.3906 17.8204 21.9828 -0.350829 -0.31997 0.0653726
19.8869 20.574 24.7633 1.30413 -1.04978 -1.75741
18.4549 20.206 20.8589 -1.20979 -1.49875 -2.35962
18.4293 21.9602 23.204 1.20909 -0.203461 0.324764
18.5249 24.2013 21.6241 -0.238097 -0.350215 -0.14228
16.6998 22.0963 21.1808 0.863954 0.185266 0.582498
20.1167 22.3764 20.7499 0.402954 -1.02703 -0.0504437
21.1259 20.4805 22.3102 -1.77903 -0.285843 -1.42174
23.1388 22.5338 21.7788 0.293637 -0.607143 -0.397921
22.3509 21.5314 24.4493 0.545065 0.984219 -0.726258
21.3879 24.46 20.8649 0.474519 0.0608948 -0.567753
20.7736 23.2527 23.2065 1.35595 -0.392305 1.61588
ITEM: TIMESTEP
10000
ITEM: NUMBER OF ATOMS
38
ITEM: BOX BOUNDS ss ss ss
1.6038236497525070e+01 2.4947194892235220e+01
1.6037505603266709e+01 2.4659682471884203e+01
1.5904337922432084e+01 2.4774604088305843e+01
ITEM: ATOMS x y z vx vy vz
17.5929 18.3978 18.8988 0.550479 -0.935387 -1.37015
20.4559 20.0572 15.9351 -1.66577 -0.199298 -0.963867
19.7592 17.829 17.5 -0.908076 1.13096 1.54772
18.9392 16.1517 19.397 -0.183649 0.731276 -0.0562125
17.9167 19.7632 16.4381 1.43358 1.67396 -0.241803
23.9937 18.4282 19.6028 0.0868187 -1.44981 0.739351
22.2489 19.0226 17.5385 0.4946 -0.580443 1.05247
21.8759 16.817 19.2618 -0.268561 1.71967 2.53017
17.0986 21.1439 18.6334 -0.896393 -1.22879 1.15101
17.9583 23.5295 19.0601 0.943501 -2.00181 0.720161
19.8242 20.4381 18.4967 -1.04588 -0.970627 0.211645
19.0751 22.3222 16.8503 0.110504 -0.110292 2.80471
22.3034 20.3624 20.0648 0.0675693 0.0469459 0.257686
20.6009 24.0334 18.4078 0.260682 -0.281846 0.880168
24.1432 20.6563 17.9937 -0.860369 0.458872 -0.568651
21.8841 21.7198 17.2044 -1.13302 0.912818 0.190655
22.9851 22.9812 19.3006 -0.837244 -1.45941 0.453415
24.8755 21.2085 20.4718 0.857881 0.22289 -0.290921
20.3081 18.4191 20.3381 0.570223 -0.0375372 -0.434609
16.0983 19.6539 20.9628 0.32957 -0.265026 -1.90373
17.9414 17.3968 21.507 -2.61934 0.368759 -3.5024
19.9165 18.0032 23.1919 2.26032 0.771248 -0.720875
17.7212 19.4754 23.2257 -1.07556 -0.102828 -1.44157
20.4732 16.0152 21.5974 0.0578838 -0.530657 -0.373268
22.1282 19.0721 24.3769 -0.444503 2.21628 0.182137
23.8179 20.0323 22.5704 -0.492441 0.706752 1.59957
22.4597 17.9328 21.8117 0.471819 -0.314843 0.184731
19.8333 20.3345 24.8691 1.53277 1.28521 0.583775
18.433 20.3378 20.8422 -2.24098 0.289621 -1.03347
18.6194 21.8684 23.178 1.57179 0.0992028 0.180214
18.602 24.2156 21.4348 -1.22175 0.080567 0.173573
16.6952 22.2942 21.0447 -0.695846 0.360472 -1.0576
20.3715 22.3825 20.4951 0.24193 -2.3871 -0.105444
20.8572 20.5009 22.4001 1.66811 -0.225317 0.360281
22.9649 22.479 21.8936 0.261992 0.586042 -0.794384
22.1746 21.6118 24.4159 2.24468 -0.917597 -0.284164
21.3624 24.7688 20.8275 0.270999 0.292653 0.747424
20.7014 23.3538 22.9713 0.301687 0.0444148 -1.40776
ITEM: TIMESTEP
11000
ITEM: NUMBER OF ATOMS
38
ITEM: BOX BOUNDS ss ss ss
1.6038236497525070e+01 2.4947194892235220e+01
1.6037505603266709e+01 2.4659682471884203e+01
1.5904337922432084e+01 2.4774604088305843e+01
ITEM: ATOMS x y z vx vy vz
17.7306 18.3182 19.0272 0.318123 0.104088 1.87519
20.5008 20.0061 15.898 -0.876437 -2.99006 -0.870085
19.8515 17.8238 17.4513 -0.644818 1.09395 1.56761
19.1865 16.1412 19.4486 -0.596723 -0.0548663 -0.334573
18.0085 19.7552 16.673 0.11366 0.350392 -1.00175
24.0462 18.5479 19.7977 1.08063 2.00949 0.246361
22.3211 19.0906 17.5047 0.483784 -0.871719 0.533638
21.9532 16.6778 19.1288 1.34155 -0.758453 -0.677826
16.8432 20.9753 18.7453 -0.260414 0.991034 -0.98406
18.1192 23.2127 19.0763 0.573002 0.545691 -0.469367
19.871 20.5692 18.5689 -0.328542 -0.679553 -1.20029
19.093 22.2215 16.6987 1.36883 -0.920313 0.35356
22.2179 20.577 19.8507 -0.428804 -0.300785 -0.540929
20.639 23.8694 18.4297 -0.405449 1.06896 -0.172534
24.1173 20.9557 17.9449 -1.1691 1.63581 1.25748
21.8501 21.975 17.1908 0.738053 -0.275756 1.30899
23.124 23.1079 19.4072 0.695183 0.0495909 -0.175416
24.9 21.002 20.407 -0.527225 -1.38262 -1.19484
20.35 18.4235 20.321 -0.0151517 0.0935814 0.728101
15.9989 19.6221 21.025 0.385773 -0.84788 0.158777
17.735 17.4808 21.438 -0.979311 0.583952 0.0688031
19.6415 18.1894 23.1705 -0.568241 0.880044 -2.02566
17.3606 19.6283 23.3547 0.392107 -1.25173 -0.823474
20.2975 16.0513 21.7734 0.920327 0.87648 -0.243106
22.3189 18.8735 24.1917 1.66217 0.926429 -0.00438543
23.8937 19.9759 22.5278 -0.714943 -0.988439 0.412731
22.5934 17.7114 21.7686 -2.63372 0.0264893 -0.371034
19.7307 20.6971 24.4056 0.810159 -0.55409 -1.5376
18.4882 20.3148 21.2393 1.55431 0.703443 0.780109
18.2822 22.2799 23.0043 1.04083 -1.93858 -0.369865
18.6182 24.4428 21.3113 0.770634 0.443438 0.591955
16.5899 22.3986 20.9789 0.342076 1.04001 0.483009
20.1425 22.3211 20.6247 -1.19103 0.260736 2.63993
21.0876 20.2594 22.2883 -0.256563 1.64886 0.610229
22.9656 22.4454 21.9136 -0.871127 -0.810279 -1.15007
22.5812 21.4333 24.2858 0.37116 -0.0388695 0.933328
21.2547 24.6136 20.8058 -1.06821 -0.468975 -0.0650551
20.7064 23.021 23.3327 -1.42655 -0.199506 -0.337873
ITEM: TIMESTEP
12000
ITEM: NUMBER OF ATOMS
38
ITEM: BOX BOUNDS ss ss ss
1.6038236497525070e+01 2.4947194892235220e+01
1.6037505603266709e+01 2.4659682471884203e+01
1.5904337922432084e+01 2.4774604088305843e+01
ITEM: ATOMS x y z vx vy vz
17.5869 18.555 18.8698 -0.234205 -1.72434 0.101364
20.3502 20.11 15.8505 -0.92362 0.833109 0.890427
19.7517 17.9552 17.5159 0.605314 -0.3921 2.13123
19.075 16.1763 19.3251 -0.837045 0.0312491 1.10593
17.9667 19.7672 16.553 0.10026 0.271624 -0.845517
24.0412 18.5101 19.6789 -0.163678 1.44523 -0.355908
22.3205 18.993 17.5043 1.19512 0.501462 0.089529
22.077 16.8499 19.4113 1.33062 1.27865 -1.75572
16.6942 21.0248 18.6695 -0.939787 1.69472 0.398712
18.0878 23.1383 19.1559 1.46416 -1.18183 -1.99132
19.7799 20.5863 18.4328 2.12518 0.767782 -0.28414
19.0323 22.2939 16.7621 -0.433441 -0.826853 -1.27099
22.2109 20.2926 19.8997 0.416091 -0.447424 0.263848
20.6246 23.855 18.287 0.664359 -0.923393 2.30069
24.2157 20.7355 18.1087 -1.0924 -0.0399636 0.221505
21.8696 21.844 17.0716 -0.318873 0.452985 -0.477801
23.0565 22.8421 19.3537 -0.738097 -1.10645 0.250374
24.9027 20.946 20.5923 -0.0828782 -0.199135 -1.27828
20.1983 18.442 20.2287 0.966946 -1.38843 0.341484
16.2274 19.4351 20.8819 -1.59983 -1.54684 0.701233
17.8171 17.3885 21.4893 -1.23745 0.20612 -0.607615
20.0443 17.8578 23.3647 0.0325645 -0.663418 -0.396015
17.8776 19.5048 23.1792 -0.573807 0.133981 -0.0638285
20.4648 16.1774 21.4316 0.8128 1.01583 -0.479253
21.9869 18.9699 24.488 -1.85574 0.173159 0.525327
23.6495 19.8309 22.6126 1.00675 0.823147 -1.01805
22.5713 17.7527 21.8861 -2.42093 -0.991357 -1.53841
19.8049 20.5185 24.7796 -0.78166 0.14876 1.60763
18.4356 20.5546 20.8576 1.48118 -0.714812 1.10511
18.6689 22.2393 23.1206 1.26946 0.356527 -0.7986
18.5276 24.2168 21.4878 -0.742212 -0.403828 -0.254249
16.5101 22.3501 21.2567 0.0916364 0.57357 1.17036
20.3734 22.3971 20.5632 -0.539006 -1.1976 -1.37271
20.9314 20.2352 22.3675 -0.315327 -0.496237 -0.693389
23.0517 22.3632 21.9507 0.457739 0.995414 -0.12488
22.1474 21.7286 24.2803 -0.766153 1.15772 2.30849
21.2361 24.7819 20.7385 1.64658 0.884466 0.361375
20.8423 23.7907 23.0034 0.929392 0.498508 -0.267937
ITEM: TIMESTEP
13000
ITEM: NUMBER OF ATOMS
38
ITEM: BOX BOUNDS ss ss ss
1.5915068257021902e+01 2.4812768563099088e+01
1.5892863849488746e+01 2.4886416955623300e+01
1.5796444059431638e+01 2.4812443306731513e+01
ITEM: ATOMS x y z vx vy vz
17.5154 18.5857 18.9064 0.859435 -1.80972 -0.408976
19.7736 17.9524 17.4366 -0.639014 0.68536 -0.638893
19.1577 16.1467 19.0593 -0.894237 0.129286 0.831377
17.6445 20.7526 17.0612 -0.0267003 0.453854 0.0638519
20.4053 18.3901 20.1268 0.390083 -0.0370108 1.99033
20.4736 20.3089 15.9096 0.666174 0.127939 -1.30725
23.7707 18.3499 19.9448 -2.19089 0.0350507 -0.379053
22.1976 18.864 17.7613 -0.268023 -0.299982 -1.46743
21.8503 16.4952 19.2974 0.427806 -0.0520585 -0.0997754
16.2016 20.9222 19.045 -0.790823 -0.326911 -0.252073
18.1504 22.7247 18.8201 1.70424 -1.31687 0.384601
19.9032 20.6974 18.3781 0.0796096 -0.150184 1.34592
19.3661 22.531 16.3054 -0.103373 0.150238 0.39369
22.3155 20.5633 19.9733 0.128129 -0.455767 -2.21116
20.4736 23.7341 18.4213 1.04183 -0.474601 0.887182
24.296 20.4332 18.1061 0.974906 -0.039601 1.21739
22.2509 21.7281 17.0988 -0.591907 1.0925 -3.10485
23.1524 23.0538 19.2583 -0.185889 1.00515 -2.12977
16.1788 19.2432 21.1565 -0.5538 -0.354836 1.76213
18.1888 17.4284 21.3877 -0.307449 0.735051 0.0258357
19.9545 17.5799 23.5834 0.266437 0.995608 0.355503
17.9415 19.4817 23.2536 -1.47768 -0.859302 -0.371895
19.8366 20.2239 24.9824 -0.704122 0.0665621 0.713823
20.3182 15.9225 21.3405 -0.442414 0.471455 -1.55058
22.1751 19.1109 24.5244 1.05107 -0.35114 1.52536
23.5214 20.1773 22.431 0.745033 2.41058 -0.0952615
22.3487 17.6573 22.1973 -0.899172 0.0750422 0.125776