ITEM: TIMESTEP
0
ITEM: NUMBER OF ATOMS
38
ITEM: BOX BOUNDS ss ss ss
1.6322585768195349e+01 2.4568732207458723e+01
1.6192002840454617e+01 2.4381615286026996e+01
1.6736766724875107e+01 2.4545332506951379e+01
ITEM: ATOMS x y z vx vy vz
18.4243 18.1682 17.0654 2.26658 -0.202951 0.273025
19.8844 16.4062 20.0483 -3.26093 -2.04923 -0.682482
17.3788 17.1304 19.5366 -2.17312 0.477996 -0.659472
19.1355 19.2277 19.3226 -1.36042 0.38875 0.330323
16.3267 19.2801 18.4333 -0.205647 0.40485 1.47931
23.1397 19.3839 16.8441 0.540504 0.514795 -1.21025
21.2971 17.7796 18.1663 0.394953 -0.0163689 -0.617155
20.4784 20.0798 16.7971 0.131152 0.415938 1.21497
22.5136 16.1961 20.1465 1.0266 -0.781091 -1.49833
23.894 18.3475 19.2958 0.730068 -1.21652 1.80089
18.0074 20.9696 17.2858 2.11699 -0.662662 -0.525186
19.8182 22.8708 16.7408 -0.00875193 1.90926 -1.68798
17.1151 21.5912 19.7836 -1.42962 1.37297 0.84262
18.8457 24.3775 18.9733 -1.38193 -0.356165 0.598051
19.8976 22.0258 19.3341 -1.84564 -1.32492 1.26259
23.0413 22.7838 19.8979 1.06966 0.0382768 0.0613702
22.4402 22.0711 17.1393 1.70592 0.536946 0.600683
24.5647 20.9346 18.5288 0.0243806 -0.724897 0.599299
21.4408 24.3325 18.2334 -0.666727 2.25575 -2.49912
21.9649 20.3003 19.1565 -0.504558 -1.45408 -0.107772
20.1626 19.3587 23.8226 0.993914 0.211992 0.904777
18.6911 17.7102 22.0687 0.964587 1.0093 0.0665746
17.3994 19.4519 23.774 0.787824 -0.966548 0.957615
16.4905 19.1863 21.1469 1.7364 -0.722332 -0.296553
23.7034 17.6852 21.9823 -2.04763 1.13617 0.318255
21.2685 18.7012 21.222 -0.175552 0.455347 0.0293373
21.2006 16.4456 22.5145 0.564654 -0.260605 0.345949
22.7986 19.6744 23.4964 -1.31904 0.721581 -1.11051
20.4096 23.905 23.4492 0.0917233 -0.485108 1.36015
18.7969 21.8217 24.0569 1.03342 -0.429452 0.789238
18.8468 20.4986 21.6785 1.02148 0.460518 1.07846
18.503 23.2732 21.5405 -1.55532 -0.807518 -2.38353
16.4904 21.6348 22.4819 -2.46538 -0.484601 -0.566439
23.8959 20.4112 21.1619 0.837547 -0.549165 -0.122174
21.3379 21.5338 21.8224 0.920453 0.31695 -1.02963
22.9324 23.413 22.6607 -0.67814 -0.33056 -0.0627303
20.9562 24.2847 20.8598 1.35418 -0.611831 0.474171
21.5179 21.764 24.5413 0.765433 1.80922 -0.32834
ITEM: TIMESTEP
1000
ITEM: NUMBER OF ATOMS
38
ITEM: BOX BOUNDS ss ss ss
1.6210443025271481e+01 2.4568902335318665e+01
1.6456909581257634e+01 2.4359033485063563e+01
1.6505336329911163e+01 2.4781848793332539e+01
ITEM: ATOMS x y z vx vy vz
18.6236 17.8242 17.2889 -1.44324 -0.354662 0.917203
19.8545 16.5273 19.9811 1.81893 -0.326417 -0.936667
17.4609 17.2391 19.537 1.30076 -1.233 -0.36239
19.1038 19.2864 19.2142 -0.240976 -1.15166 -0.95632
16.4767 19.3113 18.6491 0.300827 -1.48314 -0.624597
23.0936 19.5744 16.707 -1.74062 0.844763 -0.469832
21.3301 17.8248 17.9968 0.35759 -0.328588 0.542329
20.537 20.0692 16.6711 1.88257 0.246911 -0.0304101
22.4747 16.373 20.2074 -0.850643 0.973447 0.207565
23.8765 18.419 19.2639 -1.05139 -1.28909 -1.42582
18.1383 20.9347 17.283 -0.765811 -0.0966706 -1.05614
19.7961 22.7032 16.5876 -0.299086 1.61343 1.03944
17.1393 21.8422 19.8141 0.6183 -1.29749 0.315837
18.3075 23.8206 18.5923 -0.0360738 -0.320589 -0.206815
20.0188 22.1001 19.2893 0.565674 1.86929 -0.0861018
22.943 22.8163 20.0764 0.722977 -1.00759 -0.138174
22.2643 22.1488 17.3193 -1.03717 0.0489215 -0.575536
24.5356 20.9271 18.4263 0.980755 -0.77203 1.83733
21.0075 24.3514 18.2762 1.05638 0.509815 -0.157911
22.0546 20.2988 19.1308 0.713206 -0.349024 -0.498036
20.0696 19.2847 23.7553 -0.863394 0.225814 1.29485
18.6585 17.7616 22.1383 -0.928501 1.19056 1.28652
17.313 19.6244 23.6178 0.748861 -0.187439 0.029291
16.528 19.1593 21.2855 -1.39211 -0.294134 0.342594
23.8648 17.9221 21.8402 0.739502 -0.700985 -0.588026
21.3113 18.716 21.0733 0.0273301 -2.21385 -0.218192
21.4577 16.7956 22.7533 0.692939 -0.172596 -0.010621
22.6518 19.5109 23.6412 0.995061 -0.987551 0.76735
20.8455 23.7083 23.4117 -0.564234 0.468987 0.28859
18.879 22.0188 23.7852 -0.115802 2.56435 0.57194
18.7338 20.5272 21.5337 0.198551 0.899318 -0.866012
18.5403 23.3917 21.5673 -1.42107 1.15968 0.603335
16.5291 21.9119 22.4813 -0.978843 0.657792 0.457396
23.8014 20.4886 21.2554 0.130253 0.385997 -0.547559
21.1437 21.6029 21.8451 2.01801 1.86133 1.49519
23.1976 22.2677 23.1758 -0.696065 0.619813 -0.496447
21.0796 24.3248 20.8244 0.138592 0.375552 0.158621
21.3691 21.6016 24.7134 -1.58204 -1.94927 -1.90377
ITEM: TIMESTEP
2000
ITEM: NUMBER OF ATOMS
38
ITEM: BOX BOUNDS ss ss ss
1.6210443025271481e+01 2.4568902335318665e+01
1.6456909581257634e+01 2.4359033485063563e+01
1.6505336329911163e+01 2.4781848793332539e+01
ITEM: ATOMS x y z vx vy vz
18.6178 18.1325 17.245 0.144478 0.857957 -1.58551
19.7969 16.4457 19.7485 -0.710912 -0.622694 0.197393
17.2412 17.1149 19.474 -1.34192 -0.238943 1.05847
19.125 19.3055 19.3104 1.19785 -0.589566 0.0181339
16.5623 19.3413 18.5578 -0.414729 -0.530241 0.752588
23.2999 19.2016 16.9776 0.174991 0.39899 -0.191177
21.2894 17.8285 18.0632 1.12572 -1.47176 -1.78628
20.3471 20.1271 16.8818 1.33038 0.633842 -0.716403
22.3991 16.349 20.3746 1.58302 -0.766873 0.313405
23.8486 18.288 19.4484 1.46606 -1.70336 0.102653
18.0462 21.2802 17.4606 -1.741 1.06268 0.558445
20.0215 22.8633 16.5547 0.451394 -0.576378 -0.836705
17.0602 21.7092 19.9938 -0.458114 -0.409217 0.153772
18.612 23.8583 18.7335 -0.108578 0.804172 0.0648306
20.0543 22.0349 19.2979 -1.45077 -1.30881 0.946108
22.988 22.8609 19.7586 1.01392 -0.285565 1.58408
22.5253 21.9788 17.1305 -0.927082 1.94387 -0.33036
24.4783 20.8918 18.6653 0.849694 -1.46209 -0.162419
21.2711 24.3563 18.3545 -1.14179 1.19278 -0.123163
21.969 20.2945 19.0527 -0.786326 0.176826 -0.913191
20.3855 19.2414 23.7175 1.36693 -0.137221 -0.927461
18.5584 17.6601 21.8925 1.78973 0.135113 1.14858
17.6509 19.2063 23.8229 -0.142262 0.562549 1.49217
16.2736 19.3324 21.0656 0.106064 -1.0983 -1.74594
23.6098 17.9826 22.0706 -0.956388 -0.482075 -0.511118
21.1076 18.7123 21.0851 -1.6501 0.0808889 0.609413
20.9683 16.7656 22.6178 -0.00753361 -1.33345 -1.55947
22.8099 19.9031 23.586 0.631684 -0.634182 1.90862
20.5894 23.8278 23.4116 -0.45477 0.347659 -0.624779
18.989 21.7057 24.0339 -0.883215 1.35185 0.131393
18.812 20.2896 21.6274 0.0553123 1.22736 1.39806
18.6608 23.1606 21.5347 0.865835 -0.0112905 -0.246518
16.6967 21.524 22.6252 1.08196 1.93036 -1.45367
23.738 20.7237 21.1904 -0.319773 -1.84522 0.337988
21.2171 21.4877 21.7764 0.769772 -1.22436 -0.437533
22.909 23.1192 22.4765 -0.289548 1.51064 -0.335716
20.9041 24.29 20.8694 -1.53716 1.05891 1.01832
21.5769 21.8159 24.523 -0.682811 1.45515 0.692971
ITEM: TIMESTEP
3000
ITEM: NUMBER OF ATOMS
38
ITEM: BOX BOUNDS ss ss ss
1.6210443025271481e+01 2.4568902335318665e+01
1.6456909581257634e+01 2.4359033485063563e+01
1.6505336329911163e+01 2.4781848793332539e+01
ITEM: ATOMS x y z vx vy vz
18.7554 17.7992 17.4388 0.63221 -1.45261 1.27997
19.7994 16.5457 19.9815 2.17575 1.42566 1.03065
17.2491 17.209 19.5591 0.0135947 0.626374 -0.245193
19.0134 19.2609 19.3961 0.325692 1.75436 -0.947057
16.4405 19.3487 18.4554 0.890216 0.181285 0.488959
23.069 19.536 16.8826 -1.20295 -0.657768 0.832152
21.4526 17.8266 18.0934 0.305856 1.23596 0.414827
20.4013 19.9252 16.8971 1.19168 0.336947 -0.832176
22.3459 16.5106 20.4153 -0.99135 -0.32356 -0.626535
23.9583 18.3661 19.2519 -1.94516 -0.714816 0.169856
18.0998 21.2513 17.491 -1.01969 0.498572 -0.395556
19.9073 22.6219 16.6539 -0.482517 0.620224 0.96732
17.1158 21.7511 19.8548 -1.64247 0.0501559 0.95059
18.4877 23.9435 18.9834 0.0213747 -1.23682 -0.0758998
20.0578 21.8885 19.3326 0.693841 0.067626 -1.66683
22.9305 22.8088 19.7297 1.49455 -1.05646 -1.15618
22.3488 22.1723 17.0962 1.45481 1.34419 0.578874
24.6922 21.0396 18.5974 0.203945 1.37094 0.00458483
21.1405 24.259 18.2452 0.816208 -1.94561 0.165939
22.1775 20.37 19.15 0.536932 -2.2634 -1.16991
20.049 19.1461 23.667 -1.01119 0.760112 1.51919
18.5355 17.7262 21.9663 -0.680876 -0.0461668 -0.972198
17.3214 19.5482 23.6766 0.120915 -0.142949 -0.785887
16.3184 19.257 21.1063 -1.1782 0.612214 -0.401403
23.721 17.959 21.9095 0.418215 -1.4232 -0.346881
21.1111 18.8003 21.0491 0.438218 0.310555 -0.87271
21.4795 16.9279 22.9187 1.17795 1.07057 1.30872
22.7318 19.8142 23.239 0.186528 -0.231292 -0.413755
20.8087 23.7094 23.3707 0.874352 0.352187 0.656869
18.8268 21.6721 23.9446 -0.00567025 -0.168999 0.400678
18.7778 20.412 21.5979 1.46894 0.772468 0.372857
18.7323 23.4178 21.6537 -0.887223 -0.00684707 2.91917
16.5895 21.8599 22.3878 1.17732 -0.771349 -0.395943
24.0108 20.4965 21.0665 0.0572031 0.156302 -1.43139
21.1788 21.4939 21.7764 -1.92107 -1.77159 -1.49078
23.0867 22.6665 22.6976 -1.87502 0.403007 0.912199
21.0239 24.2571 20.8873 -1.50297 -0.176544 -0.95955
21.2642 21.412 24.5896 -0.329952 0.440252 0.212414
ITEM: TIMESTEP
4000
ITEM: NUMBER OF ATOMS
38
ITEM: BOX BOUNDS ss ss ss
1.6210443025271481e+01 2.4568902335318665e+01
1.6456909581257634e+01 2.4359033485063563e+01
1.6505336329911163e+01 2.4781848793332539e+01
ITEM: ATOMS x y z vx vy vz
18.7612 17.7124 17.2577 0.25427 1.12361 -0.303182
19.7599 16.4484 19.8485 -0.0932471 -0.449663 1.25342
17.4035 17.0534 19.4023 0.470525 0.132634 0.885029
19.071 19.3107 19.1477 1.10927 1.8374 -0.844429
16.5294 19.2928 18.2665 -0.91178 -1.08275 -1.24357
23.0289 19.448 17.0104 0.788769 0.0667934 -0.10187
21.3486 17.6602 18.356 0.369821 1.80867 1.47161
20.3365 20.2737 16.9208 0.685915 -0.479183 -0.691993
22.4199 16.1773 20.4389 0.231012 0.791251 -0.292129
23.7605 18.2407 19.4568 -0.393306 0.648148 0.35533
17.8766 21.1137 17.4237 0.182393 0.497846 0.66694
19.6404 22.9498 16.5581 -1.40112 -0.19024 0.795645
17.3131 21.8311 19.9618 -0.270961 -1.00072 -0.232061
18.616 24.0185 18.8402 -0.982425 -0.265306 0.579624
19.9719 21.9895 19.259 -0.123963 -1.34204 1.72921
22.949 23.0144 19.8153 -0.405828 -1.36575 -1.5928
22.2863 22.1628 17.1733 -0.094787 -0.925578 0.0969953
24.3938 21.0312 18.5037 1.89363 0.0830656 0.102459
21.0266 24.2738 18.0603 -0.833643 -0.393468 0.175866
22.0948 20.3306 19.208 1.34463 0.225755 0.4399
20.1402 19.2715 23.6665 -0.883729 0.581581 0.217382
18.51 17.6251 21.9633 -0.373742 -0.730906 -0.829433
17.4835 19.4596 23.6389 1.16953 -0.281947 -0.76697
16.5064 19.2126 20.865 -0.444559 0.97275 1.50788
23.7572 17.8173 22.135 -0.573391 1.08635 -0.415467
21.1787 18.6529 21.0604 -0.961624 -0.611494 -0.434186
21.1633 16.8454 22.7582 -1.7413 2.66891 -2.49439
22.698 19.8361 23.3948 -0.564312 -0.948836 -0.0552075
20.9329 23.8837 23.4147 -0.611822 -0.048373 -0.300398
18.9795 21.9021 24.0328 1.75726 -0.828797 -0.83461
18.8661 20.4041 21.6766 -1.74198 0.431207 2.18546
18.8147 23.2231 21.7769 0.194174 -0.0459442 0.00267125
16.6502 21.5984 22.5083 1.73162 0.0489612 -1.47418
23.9352 20.6423 21.2082 0.114335 -0.645417 1.70452
21.2437 21.6476 21.6887 0.633621 0.620731 -1.94968
23.2329 22.6622 22.9298 0.397006 -0.999349 -0.855221
20.8656 24.4064 20.6799 -0.1472 -1.43218 0.172706
21.4639 21.5866 24.7028 0.226924 0.442283 1.36911
ITEM: TIMESTEP
5000
ITEM: NUMBER OF ATOMS
38
ITEM: BOX BOUNDS ss ss ss
1.6210443025271481e+01 2.4568902335318665e+01
1.6456909581257634e+01 2.4359033485063563e+01
1.6505336329911163e+01 2.4781848793332539e+01
ITEM: ATOMS x y z vx vy vz
18.5582 17.9852 17.3296 0.368947 -1.83601 -1.04735
19.8057 16.4579 19.8116 1.41887 0.424137 -0.583979
17.4012 17.239 19.6854 -0.943385 0.42371 -1.04379
19.2856 19.3016 19.2948 0.999114 0.122529 0.847711
16.5743 19.5484 18.4901 -0.752587 0.161893 -0.671656
23.0839 19.3336 16.7401 -0.249424 -1.16561 -1.0596
21.4295 17.6369 18.0289 0.370776 -0.136426 -0.872878
20.6084 20.1023 16.6852 -0.0214035 2.04652 0.760042
22.3477 16.2125 20.576 0.74678 1.47517 1.58422
23.7625 18.3329 19.2848 -1.67487 1.22007 1.37128
18.1146 21.2387 17.4111 -0.511112 -0.243625 0.980922
19.998 22.6948 16.6477 -0.72768 -0.473609 -0.417851
16.9611 21.8795 19.9078 0.320063 -0.66111 0.697084
18.3258 23.9506 18.5379 -0.414543 0.106841 0.912596
19.9806 22.1159 19.2921 0.617877 -0.493013 0.127178
23.1192 22.9933 19.5983 2.15446 -0.0861808 -0.0671679
22.513 22.1456 17.0802 -0.707627 0.410633 -0.759162
24.5358 20.9399 18.5476 0.845555 1.21456 -0.624887
21.1812 24.3158 18.34 0.315185 -0.4462 1.54486
21.9465 20.3288 19.0763 -1.59016 -0.442001 0.315247
20.002 19.2215 23.9265 0.353152 0.51662 -1.67067
18.6827 17.7307 21.969 -1.78096 0.260364 0.0947763
17.3698 19.2755 23.7082 -0.83083 -0.430141 0.301149
16.4143 19.3159 21.3087 0.697216 0.7467 -1.79526
23.6922 18.0311 21.8317 -0.986997 0.22142 -0.296798
21.2258 18.5857 21.0772 -0.449225 0.745252 0.639963
21.5402 16.9623 22.9128 0.28489 -0.129267 2.35478
22.7701 19.6573 23.503 -0.659965 0.17599 0.806058
20.5581 23.7337 23.3005 -0.166145 -1.21285 -0.348875
18.8101 21.6772 23.9522 1.71283 -0.389893 0.62064
18.7536 20.4536 21.626 0.49893 -1.08275 -0.139737
18.6166 23.3508 21.4987 -0.668527 -1.07767 0.753888
16.6032 21.547 22.6602 -0.476274 0.831085 -0.654881
23.7375 20.569 21.2192 0.627402 -0.845367 -0.541785
21.1266 21.5436 21.7181 -0.553887 -0.744478 -0.0167178
22.9735 22.7936 22.7528 -0.27604 -0.506044 -0.649926
21.2576 24.3142 20.9883 0.893229 -0.134541 -0.111029
21.3431 21.4939 24.6913 1.21636 1.43329 -1.33838
ITEM: TIMESTEP
6000
ITEM: NUMBER OF ATOMS
38
ITEM: BOX BOUNDS ss ss ss
1.6210443025271481e+01 2.4568902335318665e+01
1.6456909581257634e+01 2.4359033485063563e+01
1.6505336329911163e+01 2.4781848793332539e+01
ITEM: ATOMS x y z vx vy vz
18.4728 17.6971 17.446 -0.57662 2.13738 3.03863
19.8856 16.4816 19.8795 1.07117 1.70555 0.661542
17.2136 17.1268 19.6467 -0.611576 1.01583 -0.512567
19.1991 19.322 19.2422 -0.65045 0.766631 -0.146672
16.4437 19.3845 18.5495 -1.08881 -0.614167 0.398225
23.1028 19.5209 16.8792 -0.787505 0.427157 1.44596
21.4173 17.7164 18.1889 0.212747 1.51918 0.2293
20.4011 19.9904 16.6775 -1.04616 -0.170124 -0.0335294
22.4164 16.2295 20.3448 0.170446 0.839625 -0.619132
23.847 18.4351 19.3311 2.72553 -0.0505466 0.0233026
18.206 21.1665 17.5362 -0.290145 -0.273036 -1.45778
19.9302 22.8523 16.4288 -1.84986 0.369325 -0.740424
17.1495 21.7125 19.8847 0.476867 -0.569995 0.556269
18.6273 23.9691 18.5522 0.726919 -0.50635 -0.0856572
20.0143 22.1563 19.367 -0.0743977 1.70419 0.142849
22.8366 22.8995 20.0318 -0.191306 0.688154 -0.158886
22.3559 22.2532 17.0836 1.68661 -0.483221 -1.54601
24.4053 21.1104 18.6074 1.15656 -0.0126911 -0.0263537
21.2033 24.413 18.1546 0.188191 -0.920869 0.371235
21.9474 20.362 19.117 2.37046 -1.69103 -1.92937
20.0868 19.2094 23.855 -0.953617 0.34474 -0.251724
18.6774 17.6913 22.0297 2.16914 -1.02019 1.30025
17.3705 19.4953 23.6713 0.836049 -0.282158 0.112668
16.3551 19.3766 21.1277 -2.09472 0.525422 -1.11527
23.9146 17.7912 21.9646 0.528754 -1.54027 1.1771
21.2323 18.6962 21.146 1.10332 -0.587469 -0.833472
21.5429 16.7216 22.6948 0.0337751 -1.01227 -0.684841
22.6521 19.7157 23.3991 -2.23165 -0.807534 1.01619
20.6701 23.6869 23.2131 -0.713421 -1.51317 -0.661676
18.9517 21.7477 24.0257 -0.957852 -0.620028 -0.0477808
18.8609 20.4515 21.6322 -1.3676 -0.336136 -0.272801
18.5121 23.3395 21.498 0.137812 -0.118772 -0.154541
16.6364 21.8404 22.4893 -0.848207 0.700549 1.2757
23.9562 20.4818 21.172 0.415586 -0.185835 0.740284
21.2076 21.6215 21.7829 -0.905742 -0.788523 -0.63896
23.317 22.2393 23.0818 -0.504408 0.277705 -0.209754
20.6871 24.5721 20.5908 -0.265467 0.615363 -0.994556
21.304 21.5331 24.6874 1.9996 0.467583 0.632256
ITEM: TIMESTEP
7000
ITEM: NUMBER OF ATOMS
38
ITEM: BOX BOUNDS ss ss ss
1.6210443025271481e+01 2.4568902335318665e+01
1.6456909581257634e+01 2.4359033485063563e+01
1.6505336329911163e+01 2.4781848793332539e+01
ITEM: ATOMS x y z vx vy vz
18.496 17.856 17.2779 0.0635025 -0.551626 -0.976037
19.7637 16.3886 19.7032 0.498437 -0.981628 1.35614
17.2286 17.0452 19.3482 -0.762621 0.854232 0.300073
18.9537 19.2574 19.2253 -0.429479 0.793461 -0.956943
16.3354 19.3643 18.3048 -0.840147 -0.458064 -2.27968
22.861 19.2844 16.888 0.275976 -0.39617 -0.534367
21.3332 17.6637 18.0781 0.163774 -0.116829 -0.6216
20.2781 19.9941 16.8261 -0.41824 0.434687 -0.978674
22.0895 16.2189 20.4841 0.108047 0.0505068 0.089743
23.6447 18.2911 19.3642 0.227832 1.88304 -0.310933
18.1667 21.1571 17.1529 -1.43781 0.823564 0.359754
20.0122 22.8024 16.7876 -0.342288 -0.832111 -0.994775
17.3256 21.6474 19.781 -0.416393 0.333147 1.67454
18.3614 23.8631 18.5777 -1.63551 -0.0697579 -0.727124
19.9691 22.0561 19.4389 -0.535418 -1.55511 -0.393755
22.9447 22.7513 19.8834 1.02132 1.02546 0.267864
22.3802 22.1411 17.2103 -0.240449 -1.47835 -0.380848
24.3638 20.8677 18.5514 0.439786 -0.225285 -0.702034
21.0631 24.2804 18.5254 2.08044 -0.274044 -0.708129
21.8786 20.379 19.0438 -0.998532 0.7913 0.491472
20.2532 19.463 23.8583 1.50204 0.66251 1.36818
18.7931 17.5928 21.7547 -0.033553 -0.717846 -1.33096
17.6343 19.2778 23.5718 -0.94403 -1.06368 -0.821885
16.5537 19.1623 20.8563 0.78999 0.687299 -0.566832
23.7678 17.9539 21.8818 -0.403927 -1.4115 1.30186
21.3756 18.851 21.1263 0.0720981 1.23505 0.393723
21.4226 17.0537 22.9172 0.91502 -0.674898 2.00138
22.8479 19.6672 23.65 1.70363 0.0159886 -0.653458
20.6527 23.8274 23.5116 -0.474509 -0.594869 -0.955086
18.8127 21.77 24.0006 -0.0504009 1.59963 0.594515
18.9703 20.5391 21.7396 1.27165 1.0076 -0.0580155
18.8238 23.3243 21.6087 -0.710771 0.323136 0.972642
16.6143 21.5401 22.3626 -1.75325 0.100265 0.509233
23.7909 20.5648 21.1537 0.861621 -0.390358 0.559124
21.3954 21.6269 21.9743 0.400205 0.250544 -0.442186
23.113 23.3078 22.8593 0.441026 -0.127588 1.17158
21.3845 24.3888 21.0236 -0.0130136 -0.0189722 2.16533
21.3551 21.7894 24.7072 -0.396046 -0.932732 -0.183835
ITEM: TIMESTEP
8000
ITEM: NUMBER OF ATOMS
38
ITEM: BOX BOUNDS ss ss ss
1.6210443025271481e+01 2.4568902335318665e+01
1.6456909581257634e+01 2.4359033485063563e+01
1.6505336329911163e+01 2.4781848793332539e+01
ITEM: ATOMS x y z vx vy vz
18.5165 17.971 17.2707 -0.291424 1.72921 -1.7758
19.9589 16.5473 20.2847 0.470488 0.617091 0.00457546
17.4491 17.0934 19.7735 -0.304455 -2.74245 -0.5042
19.2706 19.146 19.3539 -1.68625 -1.73129 -0.0951774
16.3196 19.2446 18.5385 0.564763 0.0163935 -0.0967881
23.1287 19.3618 16.8106 -0.28228 -1.64873 -0.163912
21.3135 17.7526 17.9312 0.265661 -0.672697 -0.687851
20.5983 20.021 16.7718 2.03491 0.332257 0.0336138
22.39 16.3691 19.9656 -0.853358 0.776365 0.297944
24.0402 18.6783 19.226 -0.0575387 2.29629 -0.071835
18.1263 20.7934 17.2532 -0.972206 1.89628 -1.82262
19.7369 22.7244 16.6899 -0.753865 -0.344875 0.653093
17.3038 21.7982 19.5966 -0.293197 -2.0107 -0.948318
18.6947 24.23 18.8705 -0.112019 0.34292 -0.588216
19.9747 21.9139 19.2205 -0.268367 -0.374355 0.54864
23.0215 22.7989 19.9932 -0.165351 -0.27623 -0.691902
22.327 22.0289 17.2081 -1.15678 -0.753833 0.281231
24.4588 21.1042 18.5406 0.312569 -0.454107 -0.164493
21.2717 24.3035 18.4943 0.835971 -1.96047 0.407805
21.9562 20.2842 19.1116 0.362901 1.25225 -0.731714
20.0466 19.2011 23.9685 1.36094 0.997795 1.68118
18.52 17.7473 22.2433 -0.238859 -0.304807 0.956936
17.3364 19.6083 23.6457 -0.669954 -0.0998063 -1.02596
16.5566 19.3134 21.1434 0.148454 0.823286 0.100446
23.6789 17.6677 21.7507 -1.48437 0.0959127 -0.0588776
21.2186 18.8104 21.1705 0.0555864 0.753275 0.484563
21.2245 16.8729 22.6919 1.20821 -1.4432 -2.2325
22.7437 19.515 23.4352 1.07742 1.08805 2.10173
20.4201 23.71 23.4102 -0.58435 1.38258 1.00028
18.7961 21.8764 23.969 0.989875 -0.768153 0.159057
18.8896 20.4315 21.6133 -0.785086 -0.789214 1.26796
18.6928 23.3148 21.4603 0.180471 0.293385 -0.0538564
16.5481 21.7781 22.3544 1.47359 1.45765 -0.19473
23.8258 20.4833 21.3177 -2.3192 -0.393028 0.954472
21.1223 21.6317 21.7854 2.14937 1.36651 1.11502
23.0979 22.8966 22.732 -0.992373 -0.325888 -1.10154
21.0129 24.4879 20.9793 0.372931 -0.171757 0.326681
21.422 21.4988 24.4343 0.407186 -0.251914 0.635064
ITEM: TIMESTEP
9000
ITEM: NUMBER OF ATOMS
38
ITEM: BOX BOUNDS ss ss ss
1.6210443025271481e+01 2.4568902335318665e+01
1.6456909581257634e+01 2.4359033485063563e+01
1.6505336329911163e+01 2.4781848793332539e+01
ITEM: ATOMS x y z vx vy vz
18.8094 18.0969 17.2056 -0.857478 0.246245 1.1699
19.6746 16.4759 19.857 -0.760668 1.37641 -0.346715
17.3063 17.2364 19.8289 1.78209 0.124554 1.99734
19.2477 19.2885 19.4462 -0.236551 0.667627 -1.40837
16.6666 19.3731 18.4886 -0.432637 -1.72134 -0.515752
23.0982 19.4623 17.0756 -0.814326 -1.0419 -1.14799
21.2833 17.7505 18.2523 0.00261088 0.156144 -0.194289
20.4851 20.3239 16.7878 -0.244063 0.825929 -0.723319
22.2891 16.2089 20.3653 0.630389 -0.612023 -1.70471
23.7094 18.4017 19.412 0.560181 0.14951 -0.571319
18.0453 21.1773 17.3547 -0.211657 -1.49534 0.788873
19.8649 22.8714 16.4591 -0.213339 -0.21001 0.0327702
17.1196 21.5382 19.7065 0.793882 1.27459 -1.47747
18.6311 24.0213 18.5296 0.429784 -0.509285 0.614988
19.9934 22.1078 19.2994 -0.116202 0.629285 -1.24612
22.7942 22.8368 19.9529 -0.175788 0.60926 1.60991
22.6338 22.2612 17.1193 -1.02206 0.518503 -1.73055
24.455 21.2033 18.5713 1.56991 -0.70675 0.672102
21.2563 24.2643 18.0415 -0.171657 -0.510647 -0.0987704
21.8739 20.3492 19.1218 -0.578424 -1.41753 0.325589
20.4131 19.376 23.648 1.20506 -1.52614 2.36717
18.7573 17.7661 22.0624 -0.577837 1.27198 -0.736921
17.5133 19.5816 23.8986 0.321652 1.04307 0.157485
16.4494 19.218 21.154 -0.291726 -1.09896 -0.780315
23.744 17.7611 22.0293 0.283396 1.42889 0.302188
21.4076 18.6275 21.2115 -0.136735 -1.31035 -1.23845
21.1469 16.4519 22.6107 0.977911 0.309098 -1.81488
22.8817 19.7763 23.3515 -1.866 -1.02463 1.41736
20.6522 23.6386 23.3044 1.0021 0.988187 -1.42611
18.8012 21.8861 23.973 -0.499573 0.750329 0.280395
18.7203 20.4581 21.7722 -1.0483 0.368107 1.79854
18.456 23.2542 21.5101 1.3135 -0.578207 -1.05365
16.4545 21.5054 22.4983 -0.806706 1.48374 -0.481356
24.0869 20.5518 21.1291 0.92758 1.53446 1.6941
21.1666 21.494 21.812 -1.55795 0.0623564 0.0969699
23.1116 22.4854 22.8037 2.3092 0.615437 1.57911
20.6626 24.3827 20.6442 -1.07716 -1.48088 0.838659
21.3477 21.5463 24.7216 -0.41241 -1.18971 0.953594
ITEM: TIMESTEP
10000
ITEM: NUMBER OF ATOMS
38
ITEM: BOX BOUNDS ss ss ss
1.6210443025271481e+01 2.4568902335318665e+01
1.6456909581257634e+01 2.4359033485063563e+01
1.6505336329911163e+01 2.4781848793332539e+01
ITEM: ATOMS x y z vx vy vz
18.6557 17.9967 17.2314 0.888667 0.324356 0.0176285
19.7618 16.6205 19.8759 -0.928348 -0.432738 1.67816
17.226 17.1976 19.8515 0.436399 0.473174 -1.09384
19.1209 19.2816 19.2271 1.33343 0.588578 -1.06525
16.558 19.2418 18.1122 -0.546828 1.78188 -1.16852
23.0463 19.3252 16.661 -1.29375 1.16596 0.0261369
21.2571 17.6907 18.0686 -0.570485 -0.636882 -0.598043
20.4802 20.0464 16.5269 -1.15347 -0.508682 0.965635
22.327 16.2446 20.6914 0.0704967 0.303473 0.643451
23.7329 18.3297 19.2172 -1.87018 -0.563486 0.353092
18.2632 20.8536 17.0978 0.975798 0.310615 0.981405
19.7015 22.9609 16.9633 0.421425 -0.121373 1.8338
17.0973 21.5761 19.4902 -0.615831 0.838587 -0.296421
18.6494 24.2842 19.0359 -0.524593 -0.0768055 -0.902239
19.8568 22.0646 19.2504 -0.130735 0.0798007 -0.923954
23.0026 22.7682 19.8408 0.403224 1.65852 -0.0455982
22.2312 22.0323 17.1382 1.18174 0.734845 -0.492791
24.3356 20.9497 18.3738 -0.377091 0.382355 0.401395
21.442 24.3083 18.4304 0.635272 -0.990185 -0.476249
21.9111 20.3118 19.0943 -0.703678 -1.14834 -0.769887
20.2115 19.2838 23.8264 1.90565 -0.423647 0.716516
18.8489 17.679 21.9911 2.80816 -1.50185 -0.599849
17.4263 19.602 23.5342 -0.137316 -0.328602 0.477055
16.4744 19.3002 20.941 -0.208506 -1.37145 0.125088
23.8308 18.0094 21.9148 0.513806 -1.56944 0.64028
21.3266 18.6263 21.1428 0.425205 -1.97451 0.247493
21.6052 17.1455 23.2045 0.524874 0.0786631 0.853861
22.9298 19.9967 23.544 0.203548 0.787049 -1.96564
20.6802 23.6127 23.4264 0.00802202 0.40882 -1.93536
18.8369 21.8636 24.0765 0.00359444 0.313698 -1.07514
18.8482 20.5993 21.5874 -0.77775 -0.618421 -1.20301
18.5623 23.3236 21.6944 0.100632 2.04031 0.700134
16.5626 21.6404 22.2866 0.0846061 0.543026 1.53832
23.7098 20.4824 21.102 -0.622569 -0.627649 1.45662
21.2845 21.5536 21.7531 0.436867 -1.60154 -0.255018
23.1241 22.6398 23.1154 -1.58781 1.73711 -0.381505
20.7241 24.1521 20.8307 0.00741339 0.114953 1.5823
21.3672 21.4151 24.8603 -1.31989 -0.17018 0.00995541
ITEM: TIMESTEP
11000
ITEM: NUMBER OF ATOMS
38
ITEM: BOX BOUNDS ss ss ss
1.6210443025271481e+01 2.4568902335318665e+01
1.6456909581257634e+01 2.4359033485063563e+01
1.6505336329911163e+01 2.4781848793332539e+01
ITEM: ATOMS x y z vx vy vz
18.5362 17.8543 17.276 -1.4981 -0.396131 -0.406805
19.5995 16.7898 19.834 0.0254759 -0.992761 1.23675
17.1428 17.347 19.8534 -0.0552503 -1.35821 -0.257359
19.0211 19.3674 19.3041 0.249183 -0.515904 0.817962
16.4049 19.1418 18.2063 0.151227 0.680601 0.0630235
23.424 19.4754 16.8806 -0.215997 -0.950592 -0.424928
21.4246 17.7978 18.2575 1.81665 0.268221 1.70248
20.7171 20.1678 16.6006 -0.351903 0.192984 -0.323738
22.36 16.3229 20.1449 1.09765 0.600267 -0.25041
23.8862 18.4473 19.3048 0.659989 -1.55707 0.380821
17.9246 20.8769 17.2716 -0.196671 -0.55162 -0.414776
19.8328 22.598 16.7397 -0.0877458 -0.582971 -2.52634
17.2093 21.4841 19.7172 -0.00817328 0.642968 -2.18706
18.505 23.8588 18.584 1.18985 2.48292 -0.694333
20.0046 22.035 19.4041 0.123721 1.13212 0.856486
22.9123 22.9006 19.9412 -0.995056 0.287321 -0.122605
22.4716 22.2017 17.2479 0.0578303 0.119873 0.0650507
24.5399 21.0692 18.6997 -2.60244 -0.345783 1.43003
21.1864 24.2507 18.1857 -1.45948 0.410275 1.9463
22.0559 20.4259 19.1194 0.703146 1.35216 -1.10378
20.2229 19.2266 23.8021 -0.39865 1.08053 -0.496028
18.5991 17.7351 22.0622 1.22112 -0.138308 1.26718
17.4306 19.5761 23.8115 -0.0610731 0.598704 1.82102
16.302 19.4064 21.1233 -0.533865 -0.444303 -0.642926
23.8491 17.6662 21.8308 1.57059 -0.798063 -0.463495
21.2729 18.7388 21.0916 1.4231 -0.354903 0.0622352
21.3455 16.906 22.6734 -0.542397 -1.12197 0.153139
22.5518 19.3834 23.414 -0.705178 0.169111 -0.249695
20.4859 23.7639 23.3917 0.266088 -0.487345 1.05613
18.8785 21.6968 24.2375 -1.57851 -1.42856 0.103061
18.9069 20.4128 21.6293 0.0808676 2.34259 0.483317
18.7354 23.1958 21.5686 -0.50474 0.314622 -0.187495
16.6945 21.8027 22.4772 -0.165566 0.747509 -0.808207
23.9207 20.4471 21.3048 -0.279491 -0.376709 -2.3183
21.2422 21.5735 21.8864 -0.00817369 -0.215968 -0.185031
23.1097 23.0911 22.7103 -0.0815644 -0.704664 1.14695
20.913 24.2244 20.8431 0.455843 0.54512 0.853635
21.3904 21.7508 24.5796 1.23769 -0.646059 -1.38226
ITEM: TIMESTEP
12000
ITEM: NUMBER OF ATOMS
38
ITEM: BOX BOUNDS ss ss ss
1.6210443025271481e+01 2.4568902335318665e+01
1.6456909581257634e+01 2.4359033485063563e+01
1.6505336329911163e+01 2.4781848793332539e+01
ITEM: ATOMS x y z vx vy vz
18.6819 18.1284 17.2033 -1.19264 -1.07655 -0.359973
19.9568 16.4943 20.2294 -1.16735 -0.0334507 -1.20952
17.5222 17.2425 19.3208 -0.0622426 -0.107133 0.207492
19.0501 19.4347 19.2574 -0.773134 -0.610926 -0.840019
16.482 19.5125 18.2388 -1.43793 -0.043804 1.37234
23.0811 19.3319 16.7826 0.0162759 -0.024424 1.43306
21.2356 17.7937 18.0055 -0.23844 0.76882 -1.912
20.4844 20.1251 16.8153 -0.422455 -0.0477251 -1.67095
22.4359 16.3548 20.6361 -0.0268666 -0.280674 -0.266664
23.8075 18.3198 19.2538 0.664646 -0.645403 0.287614
17.9338 21.347 17.3319 3.04336 -0.311698 -2.4966
20.0282 22.7374 16.6108 1.52129 -0.645345 -2.27723
17.2735 21.746 19.657 0.457018 -0.666709 0.231045
18.5124 23.9085 18.4941 -0.392449 -0.486007 -1.0943
19.9547 22.0756 19.3432 -1.31114 1.12456 1.72063
22.8248 22.816 19.9063 0.830123 1.56028 0.935713
22.4571 22.0105 17.1501 -1.03895 -0.127704 -0.607735
24.3675 20.8505 18.4774 -0.426283 0.511472 0.190824
21.2938 24.2658 18.2576 0.907726 0.57565 -0.782223
21.9096 20.2232 19.0832 0.9426 1.50615 1.45404
20.1405 19.3547 23.9211 -0.0590545 -0.0596369 -0.188256
18.632 17.6031 22.0064 -0.610467 0.5497 0.909304
17.4239 19.2141 23.6918 0.730637 -0.102682 -0.178995
16.6043 19.1413 21.0268 1.13388 1.01881 1.93336
23.6927 17.9351 21.9501 -0.472764 0.424929 -0.61313
21.1685 18.8546 21.26 -1.27402 -1.27581 -1.3978
21.1977 16.8682 22.9177 -0.700619 -0.783572 -0.0152153
22.763 19.9975 23.4209 2.09589 -0.160698 2.01397
20.6127 23.7191 23.5505 0.402814 -0.758759 -0.829049
18.7906 21.6706 24.1212 -1.50694 0.535623 1.41871
18.7275 20.3818 21.7509 1.51627 0.821138 1.79766
18.5146 23.1249 21.6187 -1.95414 -0.913567 1.35067
16.6439 21.7089 22.625 1.17985 -1.12395 -1.31011
23.9286 20.6116 21.1697 -0.0347267 0.955375 -1.11013
21.2586 21.5449 21.7571 0.374498 -1.10807 2.00397
23.2694 22.7149 22.6977 0.275927 0.477434 -0.652333
20.8766 24.2253 20.9059 0.0158279 0.0247392 0.425958
21.472 21.6215 24.564 -1.00602 0.539614 0.125885
ITEM: TIMESTEP
13000
ITEM: NUMBER OF ATOMS
38
ITEM: BOX BOUNDS ss ss ss
1.6210443025271481e+01 2.4568902335318665e+01
1.6456909581257634e+01 2.4359033485063563e+01
1.6505336329911163e+01 2.4781848793332539e+01
ITEM: ATOMS x y z vx vy vz
18.7636 17.786 17.2876 1.70654 0.304712 -0.378386
19.748 16.4081 20.0229 -1.90384 0.0404722 0.402004
17.5064 17.0396 19.5341 -0.436679 0.276992 1.29765
19.1718 19.1951 19.3897 -1.43469 1.57362 1.321
16.6172 19.0421 18.1812 0.260175 -0.309579 -0.704603
23.1 19.6101 16.8778 -1.01044 1.09845 2.51352
21.4583 17.7591 18.2549 -0.035724 -1.38504 0.402748
20.4403 19.9769 17.0203 -2.66252 1.76515 -1.01733
22.4654 16.3428 20.0862 -1.29485 1.1383 -0.440202
23.875 18.4547 19.3399 -1.15246 0.855173 -1.34078
18.0275 21.137 17.2913 0.987548 -1.2231 -0.811653
19.6987 22.8494 16.5806 1.80625 2.40819 -0.134904
17.1319 21.5543 19.7036 -0.498018 -0.440188 0.384471
18.2556 23.7713 18.6557 -0.0852726 0.79781 0.112566
19.9585 21.9447 19.2464 0.818374 -1.59252 -1.3545
23.1005 22.7539 19.9786 -0.743248 -1.22848 -1.66347
22.1194 22.2546 17.3582 0.0660311 -0.108527 1.2165
24.4471 21.0403 18.432 0.643552 -1.03203 -2.20755
20.9202 24.2675 18.6426 -0.0103301 0.0414901 -1.97158
21.9655 20.2976 19.239 0.353636 0.351782 0.676222
19.8966 19.2416 23.7325 0.358067 -0.0687131 0.34393
18.5843 17.6908 21.9361 -0.903722 -1.69922 1.02815
17.2287 19.7464 23.6689 0.92955 -1.4338 -1.40618
16.5638 19.2435 21.083 1.9895 -1.31542 -1.13669
23.5934 17.9184 21.9892 1.87096 -0.30466 -0.0386569
21.1382 18.6496 21.0973 1.22397 -0.613737 1.51862
21.1128 16.6539 22.6355 1.66933 1.24948 1.9671