ITEM: TIMESTEP
0
ITEM: NUMBER OF ATOMS
38
ITEM: BOX BOUNDS ss ss ss
1.6392573219040862e+01 2.4545077847026345e+01
1.5837936469612524e+01 2.5479663078844975e+01
1.6612318252175690e+01 2.4447149806005360e+01
ITEM: ATOMS x y z vx vy vz
17.7946 20.255 17.2855 1.21659 0.990782 0.197222
19.4419 20.4613 19.4658 -3.06765 -2.09057 -0.472056
19.2081 18.0072 18.0766 -2.30527 -0.534853 -0.547294
17.0821 19.0209 19.6448 -1.88441 -1.46727 1.08029
18.5842 16.7435 20.5004 -0.142935 0.0869671 1.58903
24.4131 18.8326 18.7966 -1.78711 1.4618 0.440894
20.5334 20.1592 16.8724 0.555956 0.469964 -1.24433
23.2931 20.0535 16.6164 -1.37853 1.30533 0.966354
20.9105 18.2519 20.3641 -1.53304 -0.480504 0.429237
20.7041 15.849 18.9689 0.946396 -0.0913699 0.492144
23.0985 16.6971 19.9911 1.0418 -0.831797 1.14773
22.0117 17.9185 17.7486 2.35906 -0.395852 0.481518
22.2264 20.3896 19.1683 -0.865153 2.22504 -2.68194
17.1038 21.8582 19.3906 -0.246233 1.60829 -1.8674
19.2605 22.5577 17.6635 -0.0405385 -0.652521 0.408702
18.7281 24.2646 19.7492 -1.41876 0.243528 0.426664
20.9598 22.7624 20.0395 1.05131 -0.278226 0.802929
22.0957 22.4462 17.3082 -0.680901 -0.0329926 -0.247272
23.2972 23.9133 19.3295 0.796141 2.14719 -0.325419
24.541 21.6274 18.4112 0.795069 -1.00654 1.90287
20.8691 24.7349 18.0567 1.76132 -0.802363 -0.0369351
16.5471 17.7139 21.9879 0.969558 0.0103183 -0.293065
19.8749 19.7858 24.4431 1.41527 0.390601 0.414575
17.3102 18.8339 24.2526 0.351139 -0.211091 -0.605431
16.3967 20.4767 21.8726 1.01373 0.352626 1.01141
19.0013 16.9382 23.2338 -0.53629 -1.5092 -0.229406
18.8402 19.318 21.9675 -2.07533 0.253721 -0.42706
23.4487 19.0445 21.3433 0.0630849 -0.252855 1.23471
21.4698 18.1173 23.0551 -1.19062 0.981847 -1.14244
20.9779 15.842 21.6488 0.994859 0.432043 -1.14566
17.7487 21.4256 24.0555 1.0251 0.285866 0.899927
19.6763 24.5547 22.3004 -0.229967 0.496764 0.109292
18.658 22.1481 21.617 -1.69882 -0.871988 -2.4881
20.258 22.4406 23.8953 1.05809 -0.597453 0.258663
21.312 20.7438 22.026 1.9175 -0.916058 -0.439709
23.7305 21.7847 21.0025 0.808554 -0.287502 -0.140489
22.2017 23.5626 22.3276 -0.114337 0.248979 1.30219
21.4009 25.4756 20.533 1.05538 -0.680649 -1.26234
ITEM: TIMESTEP
1000
ITEM: NUMBER OF ATOMS
38
ITEM: BOX BOUNDS ss ss ss
1.6392573219040862e+01 2.4545077847026345e+01
1.5837936469612524e+01 2.5479663078844975e+01
1.6612318252175690e+01 2.4447149806005360e+01
ITEM: ATOMS x y z vx vy vz
17.6318 20.3248 17.4455 -0.228075 -0.55651 0.634513
19.4326 20.4522 19.4789 -2.06294 0.480521 -0.248114
19.2598 17.9304 18.0321 0.501632 0.179198 -1.43753
16.9934 19.0071 19.4823 -0.88855 -0.850838 1.58977
18.5461 16.7856 20.2966 -0.50338 0.456082 0.514512
24.4172 18.8944 18.6979 -0.23845 -0.511647 0.238021
20.5695 20.0414 17.0082 -1.43454 -0.409744 -0.32131
23.2589 20.0774 16.725 -0.0560011 0.524777 0.155543
20.8794 18.2787 20.4464 0.301374 -1.79598 0.0699694
20.7211 15.8919 19.1412 0.780242 -1.8286 -0.674401
23.1147 16.8659 20.2079 1.00872 0.104947 -0.389141
22.0331 17.9135 17.8653 -0.754983 0.412744 -1.0055
22.4481 20.4033 19.2593 1.24446 1.2656 -1.29475
17.0802 21.984 19.262 0.922773 0.437579 -0.595415
19.0691 22.4672 17.5906 0.975236 -1.00534 -0.813217
18.7503 24.307 19.7084 -0.781778 0.0430707 -0.25563
20.841 22.6864 20.1804 1.33167 0.968463 -0.247776
21.9358 22.4198 17.3874 -0.0647828 -0.808759 -0.274296
23.2049 23.7271 19.4024 -0.811144 -0.17295 0.873019
24.5901 21.6007 18.5318 -1.14267 -1.13849 -0.713296
20.7204 24.6867 18.1257 1.66759 -0.0567976 1.04196
16.6617 17.8503 21.7993 0.907529 0.11459 0.193377
19.8188 19.5418 24.4083 -0.492767 -0.961798 -0.25762
17.3816 18.8769 24.038 0.398415 0.723245 0.351276
16.2536 20.607 21.9822 -0.775373 0.439967 -0.807518
19.2045 17.19 23.2123 -0.532818 -0.331287 1.49441
18.7217 19.5808 21.9274 -1.3324 0.303066 -0.741647
23.6746 19.0736 21.2754 0.245948 0.734213 0.88141
21.7539 18.022 23.0031 0.258509 0.348722 1.30714
20.8628 15.8526 21.6028 -0.109005 0.1954 -1.39089
17.9157 21.5041 23.9505 -0.214152 -0.8388 -0.354041
19.8719 24.3158 22.338 0.326037 0.733184 -1.06865
18.3427 22.3243 21.5397 -0.482211 0.66709 -0.757396
20.2815 22.1742 23.7988 1.57513 -0.685627 1.21258
21.3878 20.7042 22.061 -0.104221 0.431084 0.530924
23.8518 21.6876 21.0924 0.58752 1.70675 0.563115
22.3373 23.4955 22.251 0.521987 0.884201 0.919434
21.1906 25.4638 20.4544 -0.544539 -0.20132 1.07716
ITEM: TIMESTEP
2000
ITEM: NUMBER OF ATOMS
38
ITEM: BOX BOUNDS ss ss ss
1.6392573219040862e+01 2.4545077847026345e+01
1.5837936469612524e+01 2.5479663078844975e+01
1.6612318252175690e+01 2.4447149806005360e+01
ITEM: ATOMS x y z vx vy vz
17.6836 20.1702 17.3747 -1.66951 -0.310656 -1.26539
19.3844 20.5644 19.5369 -0.373641 -1.46979 -0.8517
19.1466 18.0755 18.0808 -1.15214 -0.870842 0.10553
17.0725 18.9367 19.685 0.598404 0.346089 -0.412938
18.7206 16.75 20.3293 0.166192 0.273818 -0.548605
24.3588 18.8918 18.8354 0.904849 -0.535664 1.08906
20.4628 20.1749 17.009 -0.00557314 -0.0192517 0.0231556
23.2299 20.0094 16.7991 -0.784479 0.552868 -2.12046
20.9332 18.3451 20.2439 -1.31907 -0.252965 0.0163734
20.7968 15.8441 18.9742 -0.018639 -1.32636 -1.11269
23.2504 16.8728 19.9256 0.489599 0.811565 -0.042005
21.9665 17.885 17.8248 -0.273783 0.572088 -0.343974
22.3052 20.4008 19.2126 1.16111 -0.622372 0.514279
17.0887 21.8578 19.3815 -2.30455 -0.680826 0.366811
19.1861 22.568 17.658 0.655296 -0.590608 0.2395
18.7821 24.2901 19.7382 0.189701 1.19937 1.1608
20.9714 22.7727 20.1511 0.071038 -0.913364 1.64456
22.134 22.312 17.2617 1.01015 1.21684 -0.993791
23.2204 23.7791 19.435 -0.225934 -1.4798 -0.364786
24.537 21.5347 18.5205 0.184948 1.55672 -1.0139
20.735 24.6648 18.1065 0.740257 -0.130397 -0.970831
16.5345 17.7519 21.9353 -1.18464 0.690706 -1.37756
19.7385 19.6967 24.4789 -0.906294 0.349035 -0.557189
17.2939 18.8606 24.0882 0.424751 -0.554225 -0.888529
16.4104 20.5487 21.9728 -0.0873086 0.570466 1.16572
19.0192 17.0282 23.0716 -0.0246205 -1.06807 2.32327
18.8457 19.3662 21.9624 1.4138 0.767709 -0.977736
23.4562 18.9251 21.4701 0.772285 1.79454 1.63197
21.4005 18.2628 22.9216 1.43739 -0.31637 0.226094
21.0601 16.0135 21.4684 1.19595 -1.00554 0.966019
17.8205 21.4276 24.1126 0.872387 1.18973 0.208934
19.8289 24.4855 22.2804 -0.43632 1.07029 1.44469
18.5416 22.2438 21.6558 -1.47812 1.94523 -0.873615
20.311 22.3333 23.7981 -1.14948 -0.897202 0.46441
21.3469 20.7572 22.129 -1.08876 -1.53914 1.12048
23.7891 21.5472 21.0688 0.623621 -1.32232 0.153632
22.3627 23.6017 22.161 1.33487 1.32866 0.465037
21.2844 25.46 20.3512 0.236268 -0.329961 -0.614642
ITEM: TIMESTEP
3000
ITEM: NUMBER OF ATOMS
38
ITEM: BOX BOUNDS ss ss ss
1.6392573219040862e+01 2.4545077847026345e+01
1.5837936469612524e+01 2.5479663078844975e+01
1.6612318252175690e+01 2.4447149806005360e+01
ITEM: ATOMS x y z vx vy vz
17.7615 20.2332 17.2504 -0.351791 0.267583 1.18971
19.5166 20.5622 19.5708 1.01271 -0.236098 -1.60055
19.1761 18.1259 18.1671 0.00842356 -0.918496 0.112451
17.0473 19.0977 19.6159 0.474284 0.00162591 0.531847
18.5931 17.007 20.5247 -1.38751 0.580227 -0.298053
24.4244 18.8626 18.8049 1.01873 -1.79811 -1.01884
20.5772 20.0839 16.8389 0.262573 0.11392 -0.312023
23.2997 20.1504 16.7669 0.897442 -0.532814 -0.481787
20.817 18.4121 20.4753 0.633393 0.814435 0.052732
20.8122 15.9365 18.9818 0.499308 0.317712 -1.78953
23.0916 16.8946 20.0884 0.0641121 0.478425 -0.880111
21.8821 18.0152 17.7904 -1.21713 1.25307 -1.37178
22.2667 20.461 19.3176 0.663266 -0.370932 1.05288
16.8754 21.86 19.2345 -1.40142 0.111812 0.541082
19.2238 22.4676 17.722 0.306668 -2.31425 0.0017732
18.6127 24.2725 19.6498 0.260342 -0.0906683 0.280145
20.694 22.7567 20.2389 0.988383 -0.425773 -1.03037
22.0401 22.3425 17.3811 -0.060068 -0.158652 -0.908413
23.1776 23.6746 19.5692 -0.756155 -1.41515 -1.08407
24.5238 21.5481 18.4351 0.963832 1.58244 0.626839
20.835 24.5876 18.1975 1.23611 -0.0954708 -0.644625
16.6336 17.8895 22.0578 -0.131836 -2.11006 0.35497
20.0397 19.5962 24.4536 -0.307252 0.0837041 -0.775775
17.4428 18.8592 24.2845 -1.66024 -0.250204 1.18633
16.3754 20.4042 21.8289 0.274018 -0.800806 -0.685798
18.9137 17.0314 23.1483 -0.798783 0.16107 -0.304389
18.8915 19.546 22.0256 0.0115001 -0.537274 0.807727
23.6728 18.9311 21.2828 -0.783043 -0.769611 0.902619
21.6074 18.0266 22.908 1.68386 1.16618 1.02848
20.9347 15.8641 21.4761 -0.652931 0.538722 -0.46503
17.7709 21.2876 24.1033 0.841854 0.20497 0.533238
19.5494 24.5002 22.0695 -1.34982 1.43044 1.47351
18.2148 22.2746 21.4978 0.397839 1.27641 0.16977
20.1983 22.2802 23.4399 0.0887312 1.12765 0.956801
21.542 20.7057 22.0664 0.253194 -0.692864 1.21467
24.0194 21.6116 21.0233 -1.93847 -0.27282 1.19808
22.288 23.4129 22.1889 -0.105036 1.10358 -0.636173
21.668 25.437 20.5339 0.0609272 1.17609 0.0716616
ITEM: TIMESTEP
4000
ITEM: NUMBER OF ATOMS
38
ITEM: BOX BOUNDS ss ss ss
1.6392573219040862e+01 2.4545077847026345e+01
1.5837936469612524e+01 2.5479663078844975e+01
1.6612318252175690e+01 2.4447149806005360e+01
ITEM: ATOMS x y z vx vy vz
17.8474 20.0813 17.1051 0.617597 -0.196756 -1.26793
19.4483 20.4266 19.3854 -2.28593 0.347739 -0.84618
19.3165 17.9292 18.026 0.933495 0.088417 -0.828321
17.1708 19.1138 19.5859 0.702527 -0.999447 -0.0864752
18.5435 16.8509 20.5819 0.612852 0.393938 0.0137591
24.3754 19.0139 18.9453 0.908702 2.27663 0.996853
20.4292 20.0872 16.8251 -0.438264 -0.119693 -1.81566
23.0968 20.0789 16.6748 -0.0781794 -1.02089 -0.289455
20.7737 18.3634 20.4081 0.374663 -0.220759 1.36425
20.7427 15.9213 18.9653 -0.648656 0.996314 0.159391
23.024 16.818 20.275 -0.0740215 -0.332369 1.69405
22.1202 17.9356 17.8992 -2.00585 1.00514 0.186693
22.2222 20.4657 19.2109 -0.00901349 0.804275 -0.0157348
17.1477 21.9037 19.374 0.736318 0.725745 2.42292
19.1159 22.4047 17.7755 -0.906078 -2.04657 1.12775
18.8872 24.3869 19.7255 0.54157 1.10965 0.590303
20.8922 22.7264 20.1196 0.702891 0.447375 -0.326473
21.9355 22.3918 17.3859 0.693541 -2.0242 -0.681295
23.3509 23.8909 19.3038 1.31424 -0.491898 -0.053113
24.4426 21.7317 18.1087 0.411605 1.3221 -0.0848798
20.9517 24.8291 18.1301 -0.332953 -0.443353 0.503214
16.5588 17.7587 22.0271 1.3041 1.20068 0.0798458
19.8754 19.7025 24.3526 0.483862 -0.279765 0.143357
17.213 18.871 24.16 -1.2075 1.88886 -0.11995
16.5321 20.3026 21.7767 -1.73758 -0.439863 0.362688
18.8822 17.0162 23.3929 1.5917 -0.218535 0.611615
18.8977 19.3446 21.9598 0.674291 -0.50955 -0.13723
23.5329 18.9825 21.4256 -0.439447 -0.663651 -0.0506188
21.4244 17.9774 22.9391 0.00210472 0.701945 -0.303231
20.7699 15.8202 21.531 0.152802 -0.853553 -2.53953
17.9191 21.3402 23.9852 -0.913634 -0.516978 -0.17148
19.6682 24.5083 22.3943 0.652742 -0.609693 -0.666008
18.7225 22.1335 21.5487 -2.38191 1.05047 0.30833
20.3406 22.3523 23.8425 -0.926084 -1.07351 0.871479
21.4772 20.7528 22.0523 0.355241 -0.449127 -0.340221
23.7702 21.8104 20.8647 -0.332378 -0.142814 0.238533
22.2182 23.518 22.271 0.688782 -0.00413026 -0.240145
21.3732 25.4677 20.6751 0.261859 -0.702175 -0.811103
ITEM: TIMESTEP
5000
ITEM: NUMBER OF ATOMS
38
ITEM: BOX BOUNDS ss ss ss
1.6392573219040862e+01 2.4545077847026345e+01
1.5837936469612524e+01 2.5479663078844975e+01
1.6612318252175690e+01 2.4447149806005360e+01
ITEM: ATOMS x y z vx vy vz
17.7725 20.281 17.1689 2.28964 -0.286708 2.9273
19.3907 20.4834 19.3742 -1.3311 0.634958 0.945528
19.1818 17.9711 17.9818 -0.333423 -0.019431 -1.14251
17.2434 18.9997 19.5227 -0.778471 -0.427392 0.998267
18.6548 16.8556 20.5336 0.842927 -0.409152 -1.11685
24.1789 18.6791 18.7498 -0.797819 -0.73131 -0.253464
20.3459 20.1943 16.891 0.699476 -0.82699 -0.639234
23.2957 20.1361 16.8041 -0.199449 0.643314 -1.32987
20.9789 18.3066 20.3557 -1.57203 -0.709137 0.303227
20.5838 15.9794 19.0131 -0.941254 -0.970747 -1.2912
23.0397 16.6566 19.9808 1.20854 0.013584 0.597453
21.8493 17.8826 17.7684 0.301614 -0.197907 0.114256
22.2563 20.456 19.2954 -0.448612 0.0264145 -1.1929
16.9594 21.8797 19.2392 0.454254 -1.07129 -1.13603
19.2997 22.4524 17.8253 -0.968457 -0.251904 0.503012
18.691 24.3647 19.6689 1.98099 -1.63106 0.00368357
20.8902 22.5997 20.193 -0.698066 1.37739 -0.329198
21.9443 22.4063 17.2928 0.147072 0.123562 -0.251834
23.1345 23.7143 19.4997 -0.4661 1.22369 -0.115185
24.4512 21.6628 18.498 1.82195 -0.284448 1.16862
20.8786 24.7418 18.3103 -0.443467 -0.0580483 0.368063
16.8165 17.8125 22.0679 1.06025 0.064579 0.645636
20.0051 19.6987 24.4098 -0.0190437 1.8583 0.24575
17.2751 18.98 24.1924 0.531254 0.461121 1.6971
16.4076 20.3712 21.9439 0.421655 -1.10818 -1.07508
19.2929 17.1885 23.3462 -1.3487 0.990112 -0.0738566
18.9971 19.463 21.9177 -0.316393 -0.46649 -0.699052
23.6433 18.8808 21.2942 -0.190101 -0.0376289 -0.6645
21.7262 18.1161 23.0279 0.516395 -1.63276 -0.105528
20.8492 15.9316 21.6262 -0.209276 0.698458 -0.336626
17.8778 21.3923 23.8697 -0.118364 0.590156 -1.11717
19.7564 24.6122 22.0862 -0.273252 -0.3281 0.271731
18.4053 22.2541 21.3377 0.202118 1.10455 -0.559248
20.0921 22.2636 23.5238 0.477106 -0.382946 1.2117
21.4805 20.5685 22.1698 -1.0824 0.576074 1.03796
23.7493 21.7865 21.2048 -1.22397 0.805291 -0.623514
22.1796 23.5 22.3791 -0.278912 -0.720216 -0.0412598
21.4351 25.4869 20.6459 1.08342 1.36029 1.05483
ITEM: TIMESTEP
6000
ITEM: NUMBER OF ATOMS
38
ITEM: BOX BOUNDS ss ss ss
1.6392573219040862e+01 2.4545077847026345e+01
1.5837936469612524e+01 2.5479663078844975e+01
1.6612318252175690e+01 2.4447149806005360e+01
ITEM: ATOMS x y z vx vy vz
17.7319 20.335 17.3554 -0.274387 -1.35723 3.10828
19.3861 20.3128 19.4372 0.749601 0.440381 0.737817
19.1578 18.0357 18.1373 -0.109745 0.434922 0.239527
16.9412 19.1756 19.6104 2.30458 -1.2966 -0.917807
18.6447 16.8832 20.3121 0.434451 -0.485603 -1.75493
24.3959 18.9853 19.0183 -0.153524 0.988289 -0.905423
20.4514 20.1487 16.8524 0.925077 1.28733 -0.294861
23.3 20.065 16.7548 -0.309329 1.36447 -1.47769
21.0364 18.3027 20.5026 0.633232 0.236091 -1.35427
20.8238 15.983 18.927 -0.42559 -2.22921 -0.790153
23.0825 16.758 20.1252 0.262042 0.566493 1.9117
22.0687 18.0043 17.9884 0.545937 0.411276 -0.771203
22.1549 20.4967 19.244 -1.03581 0.752658 -0.694421
17.2105 22.003 19.3995 0.714546 -2.21144 -1.43356
19.248 22.42 17.6684 0.467574 0.764903 0.822149
18.7553 24.4068 19.6529 0.772028 -0.810374 1.8921
20.7142 22.7261 20.0751 -0.586475 0.165592 0.77175
22.0672 22.4618 17.2023 0.330937 -0.805603 0.180251
22.9888 23.7149 19.3498 -0.393249 -0.917766 1.11991
24.5153 21.5897 18.3057 -0.351448 -1.26753 0.922427
20.8814 24.6469 17.992 -0.696815 -1.72339 1.00241
16.5691 17.7878 21.8351 0.339726 2.6312 -0.0482918
19.7611 19.5634 24.4118 0.091782 1.47427 -0.272891
17.251 18.9583 24.1121 0.751838 0.0573958 -0.155746
16.4889 20.4466 21.8885 -1.38932 0.555458 0.860266
19.0752 17.1154 23.2381 -1.01727 0.0102923 0.444445
18.9097 19.3036 21.9503 1.09724 -0.930946 0.403116
23.4916 19.0238 21.4832 -1.03311 -0.238567 -0.24956
21.6017 17.8756 23.0074 0.190217 -0.526793 -0.27431
20.8213 15.823 21.5927 -0.369629 1.19344 0.713604
18.0693 21.4739 24.08 -0.409111 1.37439 0.442796
19.6926 24.3665 22.3588 -0.832546 -0.109292 0.149948
18.6838 22.0864 21.6808 -1.24328 1.18856 -2.05327
20.445 22.2666 24.0076 -0.241637 1.01683 0.818503
21.3744 20.7988 22.056 -1.01679 -1.01335 -1.83635
23.8591 21.7385 20.8421 -0.564807 -0.190861 -0.577762
22.0984 23.4925 22.2107 1.74048 -1.28541 -0.967638
21.2618 25.4341 20.3438 0.102585 0.485745 0.289145
ITEM: TIMESTEP
7000
ITEM: NUMBER OF ATOMS
38
ITEM: BOX BOUNDS ss ss ss
1.6392573219040862e+01 2.4545077847026345e+01
1.5837936469612524e+01 2.5479663078844975e+01
1.6612318252175690e+01 2.4447149806005360e+01
ITEM: ATOMS x y z vx vy vz
17.8372 20.211 17.3993 0.398691 -0.0377882 0.732826
19.2577 20.5222 19.5026 0.83892 0.054196 0.0871186
19.2145 18.0487 18.2002 0.661379 0.255764 0.654802
16.903 19.057 19.571 0.504751 0.437089 -0.501506
18.6405 16.827 20.5331 -0.582343 0.0932922 -2.28612
24.2668 18.876 18.7634 -1.09666 -0.351576 -1.42165
20.4415 20.0903 16.8749 -0.419974 0.582804 -0.687316
23.335 20.24 16.5573 1.71786 -0.611369 -0.199405
20.8292 18.3578 20.4454 1.73122 1.60229 -0.00872425
20.8709 15.9398 19.1588 -0.458265 -0.96197 0.421338
23.1523 16.8713 20.1733 -0.110976 0.0258899 1.42541
21.917 18.0313 17.8175 0.592103 -0.351559 1.60901
21.9523 20.3792 19.1298 -0.513399 0.595245 -0.979204
17.101 21.8067 19.396 0.968362 -2.30832 0.340753
19.1901 22.5464 17.5714 -1.25603 0.361655 0.222963
18.8313 24.2606 19.7648 1.40326 0.221621 -1.72998
20.8574 22.7713 20.2041 -1.56602 -0.770991 0.851035
22.1085 22.4152 17.3025 -0.6728 -1.41837 1.623
23.295 23.6096 19.4629 0.720366 -0.240975 -0.118786
24.4555 21.3343 18.5063 0.28178 -1.27782 -0.24268
20.9876 24.6537 18.1016 0.0332886 0.763291 0.035861
16.5002 17.8475 21.8617 0.000239135 1.90284 0.978669
19.9772 19.6651 24.2338 0.446242 0.105014 -0.17002
17.3508 18.7052 24.1295 0.156597 -0.091384 0.621838
16.1501 20.5817 21.96 -0.50894 -1.23558 -0.0239388
19.2644 17.1242 23.0708 0.13425 1.8344 0.0744909
18.6285 19.5324 21.8744 0.507966 -1.31054 -1.78913
23.5648 19.1402 21.3783 -0.36937 1.39678 -0.179731
21.8102 18.0992 23.0394 -1.37266 0.0917448 -1.09018
21.3361 15.9101 21.6755 0.0319958 -0.227169 -0.170853
17.814 21.139 23.9461 0.566199 -0.129443 -0.745819
19.6955 24.5817 22.1805 -0.0113517 0.139815 2.39931
18.3485 22.3367 21.6775 -0.507232 1.8155 1.5869
20.3135 22.3948 23.6229 -0.467061 -1.42128 0.039161
21.2695 20.6745 21.9994 -0.593213 0.42869 -0.488682
23.6669 21.5626 21.0755 -0.781298 1.10946 -0.414043
22.2238 23.5006 22.3668 1.30242 -1.17819 -0.394942
21.6514 25.3651 20.4817 -1.71029 0.106956 -0.0617747
ITEM: TIMESTEP
8000
ITEM: NUMBER OF ATOMS
38
ITEM: BOX BOUNDS ss ss ss
1.6392573219040862e+01 2.4545077847026345e+01
1.5837936469612524e+01 2.5479663078844975e+01
1.6612318252175690e+01 2.4447149806005360e+01
ITEM: ATOMS x y z vx vy vz
17.692 20.0443 17.351 1.61823 0.176726 1.70413
19.3101 20.4679 19.4605 0.398984 -0.896616 0.148721
19.3303 18.1131 18.0255 -0.54662 -0.287352 0.554928
16.9646 18.932 19.6776 -0.543951 0.460528 -0.633675
18.5627 16.8838 20.4419 0.677191 -0.394701 1.08347
24.4494 19.1082 18.998 -1.38584 -0.323853 0.382556
20.4366 20.0642 16.8568 2.02442 0.768732 -0.422033
23.2903 20.0874 16.5571 0.251248 -0.175495 1.17402
20.9458 18.3579 20.3918 -1.11765 1.51668 -0.456327
20.844 15.8805 19.0627 -0.0282911 0.162656 -0.291924
23.1262 16.7977 20.0402 -0.661364 -0.58428 -0.0818644
22.0504 18.0812 17.8624 -0.328436 -0.142752 0.0537024
22.1714 20.4926 19.2138 -0.96599 -0.672818 1.863
17.0322 21.6463 19.3897 0.342614 1.00238 1.37591
19.3511 22.4993 17.6154 -1.113 -1.27997 1.87617
18.7229 24.157 19.864 0.571932 0.25483 1.00501
20.8751 22.7675 20.0728 0.360476 0.00205935 -0.256862
22.0659 22.3121 17.2652 0.546447 0.41806 -1.14659
23.294 23.8414 19.5805 0.538584 -0.331705 -0.409719
24.4416 21.6236 18.4977 0.668399 -0.681261 -2.08347
20.9606 24.7077 18.0325 -0.303884 0.682279 -0.441809
16.3632 17.8428 22.0712 0.773246 0.0133868 -0.458988
20.1422 19.6904 24.169 0.634954 0.315967 1.46971
17.2936 18.9302 24.1528 -1.24107 -0.529522 -0.796573
16.1941 20.45 22.1615 -0.489049 -0.747306 0.279004
18.8794 17.0278 23.0497 -0.136483 0.282248 -0.563068
18.584 19.3918 21.8951 1.30977 0.423561 -1.23572
23.3528 19.0244 21.4254 -0.228749 -0.276501 -1.09906
21.5996 17.9483 23.0621 0.533674 -0.993313 1.07127
20.9384 15.8441 21.5494 0.981433 2.4966 -0.668948
18.1567 21.2884 23.8344 -1.09874 -0.451827 0.0318447
19.8172 24.3275 22.3392 0.484216 -0.780373 0.209977
18.4276 22.1699 21.498 -0.0412201 -0.943425 -0.491797
20.5525 22.5734 23.8656 -1.38902 -0.237222 0.318102
21.2131 20.8294 22.0013 -0.346179 0.310745 -1.40475
23.8729 21.6265 21.038 -0.538853 0.375884 0.603631
22.3388 23.6838 22.2432 -0.900307 0.126209 -1.62297
21.3666 25.4956 20.3969 0.68888 0.94076 -0.639005
ITEM: TIMESTEP
9000
ITEM: NUMBER OF ATOMS
38
ITEM: BOX BOUNDS ss ss ss
1.6392573219040862e+01 2.4545077847026345e+01
1.5837936469612524e+01 2.5479663078844975e+01
1.6612318252175690e+01 2.4447149806005360e+01
ITEM: ATOMS x y z vx vy vz
17.8626 20.1247 17.2105 1.07468 0.062397 -0.802931
19.378 20.3975 19.3853 -1.19107 0.0477116 0.405682
19.1159 17.8578 18.1437 0.331694 1.30996 0.0375801
16.8885 19.0408 19.5675 0.115861 0.190417 -0.407782
18.5969 16.789 20.6346 0.961507 0.273051 1.34298
24.2894 19.0148 18.7826 0.162543 -0.29863 1.15342
20.5404 20.1634 16.7471 0.492216 0.16136 -0.880305
23.3725 20.085 16.7186 -0.213925 -0.385833 1.89387
20.8815 18.1368 20.4161 -0.426834 -1.23086 0.676747
20.6664 15.8293 18.9771 -0.972752 1.0118 -0.116523
23.0041 16.8022 19.8341 -1.25228 -0.514466 -0.776262
21.8424 18.1101 17.7009 -0.92108 0.974656 0.769011
22.1002 20.3778 19.2723 0.314272 -0.688143 1.39136
16.9206 21.5721 19.1534 0.112911 -0.251956 -0.579442
19.3854 22.3737 17.6596 -1.01066 -1.34549 0.323467
18.8485 24.2638 19.91 0.0715865 0.113176 0.631983
20.8796 22.661 20.1304 -0.349923 0.390535 -0.617853
22.0941 22.4479 17.3228 0.847855 0.0136954 0.933681
23.2116 23.9683 19.5284 0.154235 -0.19867 -0.913824
24.4215 21.8479 18.3382 -0.455013 1.51112 0.00257698
20.993 24.6681 18.2238 -1.46977 0.70477 1.37848
16.4286 17.8642 21.9491 -0.636451 -1.91692 -0.849755
19.826 19.8523 24.3803 1.33089 1.28792 1.50038
17.1953 18.9277 24.1412 0.398287 0.460083 0.386397
16.4079 20.5665 21.8738 1.04957 -1.18152 1.01179
19.3289 17.1019 23.3758 -0.470421 0.754491 -0.315458
18.7921 19.2923 21.9133 -0.892786 0.453341 -2.69837
23.6235 19.0144 21.3036 0.353235 -0.301352 -0.369123
21.7784 18.2073 23.0139 0.270181 -0.563147 0.0873203
21.1195 15.8779 21.8272 -0.401037 -1.0122 -1.08685
17.8939 21.5995 23.9359 0.376908 0.63524 0.278385
19.8013 24.4986 22.3884 0.586914 -0.839232 0.586588
18.5127 22.0854 21.4319 1.28389 -1.09002 -0.716777
20.4905 22.4533 23.9395 -0.561529 0.504473 -1.05858
21.2209 20.695 22.0028 0.223979 0.767604 0.337609
23.6754 21.6867 20.8742 0.985572 0.992153 -0.011535
22.2173 23.3454 22.3833 -1.61408 -0.950631 -1.41577
21.4047 25.4094 20.6186 1.34083 0.149124 -1.51216
ITEM: TIMESTEP
10000
ITEM: NUMBER OF ATOMS
38
ITEM: BOX BOUNDS ss ss ss
1.6392573219040862e+01 2.4545077847026345e+01
1.5837936469612524e+01 2.5479663078844975e+01
1.6612318252175690e+01 2.4447149806005360e+01
ITEM: ATOMS x y z vx vy vz
17.7928 20.1984 17.3097 -1.11238 0.492696 -0.665052
19.2706 20.4112 19.4636 0.429849 -0.254997 -1.01875
19.1452 17.9397 17.8514 1.00772 1.04416 0.0624309
16.9286 19.1244 19.6417 2.99416 -1.83613 -0.169169
18.5752 17.0464 20.3995 -1.40325 -0.438608 -0.865387
24.2304 19.0285 19.0683 1.00145 0.267792 0.0310213
20.5355 20.0404 16.8765 1.29127 -0.717903 -1.50045
23.2661 20.1092 16.7431 -0.18748 -0.021765 -0.148277
21.0826 18.3065 20.4399 2.83557 -0.000636065 0.380165
20.4968 15.9672 19.0227 -0.530755 -0.384169 -0.0990547
23.0527 16.7886 19.8722 -1.31676 -0.206741 -2.0649
21.9527 18.021 17.8148 -0.736028 0.923971 0.564861
22.231 20.6271 19.2223 -1.10592 0.661108 0.936619
17.0446 21.9362 19.336 -0.276535 0.721355 -0.0938951
19.4638 22.4302 17.6414 0.800242 -0.0259035 0.132379
18.7461 24.2745 19.6017 -1.05562 -1.59871 0.94246
20.8168 22.74 20.1394 1.77529 -0.404307 0.763785
22.119 22.4185 17.1406 -1.51069 -1.29577 0.865855
23.1233 23.6455 19.2898 -0.2854 -0.703107 -0.00642425
24.628 21.571 18.1797 -0.865814 0.0133168 -0.1699
20.9011 24.6673 18.1078 0.179766 1.82143 1.27693
16.483 17.7643 22.0944 -0.244088 -0.32521 0.497775
20.0799 19.7213 24.4199 -1.29401 -0.0325923 1.29226
17.4276 18.7353 24.3573 0.795013 0.731417 0.342679
16.3731 20.3586 21.9513 -0.397687 0.282292 0.766141
19.0435 17.0974 23.2089 0.693879 1.5808 0.439789
18.8822 19.3182 21.9897 -2.78536 1.25446 0.0348092
23.4785 19.0485 21.5271 -0.0986987 -1.23124 -0.489673
21.6195 17.8705 23.1805 0.261282 0.735326 0.294414
21.0208 15.9219 21.5615 -0.447487 0.144042 0.969249
17.9406 21.3056 23.9906 -0.643071 -0.212127 -0.928872
19.6227 24.5126 22.209 -0.382367 0.470528 -0.44761
18.6589 22.1506 21.5433 2.47829 -0.18013 -1.4286
20.25 22.3353 23.8141 0.223395 -0.291862 1.5738
21.3467 20.7684 22.1921 0.140597 -1.32182 -1.69491
23.8553 21.7554 20.9581 0.83367 0.427965 0.791064
22.1242 23.6113 22.3067 0.50683 0.0299273 0.269025
21.4002 25.4428 20.543 -1.56888 -0.118864 -1.43658
ITEM: TIMESTEP
11000
ITEM: NUMBER OF ATOMS
38
ITEM: BOX BOUNDS ss ss ss
1.6392573219040862e+01 2.4545077847026345e+01
1.5837936469612524e+01 2.5479663078844975e+01
1.6612318252175690e+01 2.4447149806005360e+01
ITEM: ATOMS x y z vx vy vz
17.7572 20.349 17.1214 -1.01828 -0.122281 -0.333046
19.3166 20.3023 19.3727 0.17207 0.211459 -0.918548
19.1606 18.1255 18.077 1.72104 0.580757 -0.213162
17.1186 19.0743 19.57 0.37618 1.69509 0.723939
18.614 16.7564 20.6496 1.02407 1.07 -0.209884
24.2357 19.0027 18.9799 -0.378943 0.229642 1.05087
20.551 20.1053 16.7682 2.31711 -0.178733 0.417885
23.2886 20.0822 16.5662 2.32291 0.594315 -0.897012
20.9335 18.3695 20.5054 -0.931493 0.858534 -0.0524806
20.6106 16.0519 19.0499 -0.712406 -0.18686 0.0567593
23.0594 16.7977 20.2184 -1.27468 1.45249 -0.0481325
22.0412 17.9479 17.8537 -0.0925118 1.46478 -0.0752694
22.029 20.632 18.985 -1.13195 -0.421407 0.662362
17.1711 21.9945 19.3406 -0.705219 -0.104314 -1.18917
19.3663 22.4589 17.6288 -0.558255 -0.382058 -1.19637
18.9228 24.2989 19.6017 0.42264 -1.05769 0.754507
20.8227 22.7067 20.2548 0.0275272 -1.02112 -1.63863
22.0565 22.351 16.9647 -0.803808 -0.0538515 0.530522
23.1926 23.7946 19.2385 1.13242 1.92823 0.627122
24.4893 21.5946 18.2159 0.0394895 -1.60292 -1.51766
20.9612 24.6954 18.1547 1.05221 0.31137 -0.219741
16.5862 17.7377 21.9421 0.224589 -0.536446 -0.740063
19.879 19.6578 24.4277 -0.244433 1.11309 -0.721716
17.3787 18.5885 24.3158 1.04987 -0.00486556 1.14484
16.5167 20.3263 21.9854 -0.274492 -0.482451 1.21628
19.017 17.0831 23.3746 1.68878 -0.535114 -0.464577
18.8565 19.3333 22.0155 -2.1351 0.365256 0.793455
23.4676 19.1427 21.43 -0.35479 -0.166223 0.500939
21.5797 18.1356 23.035 0.732343 -1.68613 -0.131834
20.9338 15.8653 21.4693 -0.145367 -0.650116 0.581008
17.8117 21.1396 24.2277 0.218526 0.129858 2.22934
19.7953 24.608 22.1208 1.08015 -0.170498 -0.122056
18.4895 22.1135 21.5788 -1.98541 0.971742 0.438493
20.1457 22.4297 23.8537 -1.05181 -0.948573 -0.0801165
21.3591 20.695 22.1624 0.0932581 -0.0472044 1.2096
23.6656 21.692 20.9525 -1.14433 -0.838128 -0.747419
22.2205 23.5225 22.4114 0.162377 -1.45692 -0.00314142
21.6086 25.4481 20.5901 -0.914287 -0.322722 -1.41789
ITEM: TIMESTEP
12000
ITEM: NUMBER OF ATOMS
38
ITEM: BOX BOUNDS ss ss ss
1.6392573219040862e+01 2.4545077847026345e+01
1.5837936469612524e+01 2.5479663078844975e+01
1.6612318252175690e+01 2.4447149806005360e+01
ITEM: ATOMS x y z vx vy vz
17.7799 20.2547 17.1223 -0.873417 0.14372 0.565368
19.555 20.4966 19.3062 0.238833 -0.630909 -0.0316737
19.1733 18.0869 18.1868 2.264 1.5594 0.583065
17.149 19.0726 19.541 -0.0414562 -2.40037 0.202731
18.5064 16.8999 20.601 -1.97744 0.341454 -0.389241
24.091 18.7168 18.7733 -1.14243 -1.08259 1.1563
20.4754 20.0535 16.7273 1.48492 0.42471 -0.805334
23.0507 20.1959 16.6421 -1.63351 -0.1756 -1.04786
20.9422 18.255 20.3812 1.07394 -0.561584 -0.700896
20.797 15.6706 19.0887 0.521091 -1.81892 1.23537
22.9826 16.7289 20.1858 1.00381 -0.514216 -2.14177
21.7987 17.8732 17.728 0.379269 0.179102 1.3063
22.206 20.5245 19.2048 0.665371 -0.322943 -0.0126652
17.102 21.9153 19.26 0.291825 0.312393 1.40422
19.3383 22.3987 17.5653 0.0807933 0.744329 0.0549864
18.7765 24.3447 19.6879 -0.564436 -0.376642 0.326169
20.7424 22.7171 20.4845 -1.00564 0.786408 0.0514798
22.0518 22.5382 17.2247 0.372542 0.0843737 -0.377693
23.0335 23.6722 19.5765 0.345429 0.536035 -0.384853
24.4744 21.401 18.6258 -0.684736 -2.46936 0.0815414
20.8376 24.5484 18.1673 0.135758 -0.947059 0.431414
16.6862 17.8194 22.0909 0.418241 1.40309 0.228168
20.185 19.6514 24.2519 1.10546 0.566962 -0.537144
17.3935 18.9005 24.1978 -0.348835 -0.204634 0.538071
16.4385 20.4634 21.7097 0.451695 -0.320385 -0.264013
19.0675 17.1226 23.367 1.22032 -1.07224 -0.822336
19.0014 19.4664 21.9024 -0.55127 0.915336 -1.84915
23.7235 19.1885 21.2208 -0.420332 0.395223 -0.702743
21.8545 17.829 22.8425 -1.20576 -0.156945 1.02038
20.7115 15.7003 21.5495 0.440287 0.933629 -1.3928
18.0161 21.2685 23.904 -0.34954 -0.200976 -0.122424
19.54 24.8007 22.3448 0.557357 -1.53774 -0.537105
18.2898 22.2592 21.5619 -0.360137 0.312529 0.207889
20.2592 22.4643 23.4575 -0.612007 1.08704 0.903503
21.6319 20.6908 22.2468 -1.36108 2.44093 0.233111
23.7891 21.8217 21.2307 -1.22274 0.437249 1.40319
22.3375 23.7985 22.4179 0.381942 -0.0953725 -0.330172
21.2212 25.4004 20.6335 0.921876 1.28456 0.516616
ITEM: TIMESTEP
13000
ITEM: NUMBER OF ATOMS
38
ITEM: BOX BOUNDS ss ss ss
1.6392573219040862e+01 2.4545077847026345e+01
1.5837936469612524e+01 2.5479663078844975e+01
1.6612318252175690e+01 2.4447149806005360e+01
ITEM: ATOMS x y z vx vy vz
17.8408 20.1824 17.136 0.462336 0.711938 -0.415297
19.396 20.3683 19.3834 -0.845106 -1.3296 0.704456
19.0902 17.9863 18.0917 1.44449 -0.568975 0.161126
17.0404 19.0481 19.6286 -1.18554 0.400694 -0.119965
18.6307 16.8626 20.5623 0.530502 -0.883979 -1.42164
24.3266 18.9728 18.9548 -1.54689 -0.81435 -0.893402
20.5247 20.1057 16.7685 1.65785 -0.769259 0.945909
23.2221 20.0867 16.5959 1.21759 0.337222 -1.59704
20.9779 18.432 20.4865 0.618168 -3.16139 -2.14232
20.8319 15.8691 19.1295 -0.459601 0.348345 0.362704
23.1184 16.7699 20.0545 -0.0581325 -0.953469 2.31511
22.0359 18.0556 17.8585 0.5524 -0.480409 1.04657
22.1415 20.5995 19.0492 -0.303691 -0.645669 -1.31186
17.1056 21.7024 19.297 -0.93991 0.402537 1.46003
19.3515 22.5645 17.6996 0.869376 -0.0684365 0.691483
18.7333 24.2253 19.6961 -0.0738441 0.652631 1.14092
20.9573 22.6927 20.2347 -0.77446 0.719986 -0.900476
21.9499 22.4863 17.0016 -0.737231 0.289146 -0.853638
23.2249 23.8151 19.4207 -0.266397 0.274456 -1.49666
24.3298 21.7136 18.0934 -0.28536 0.712127 0.794597
21.0273 24.6457 18.2932 -2.51379 -0.226251 1.75609
16.6263 17.6794 21.8928 -0.316505 -0.0415062 -0.796152
19.8276 19.8065 24.5248 0.0944199 0.91465 1.32922
17.1337 19.0911 24.1053 -0.339479 1.26215 0.63123
16.3433 20.5984 21.7745 1.27178 1.62617 -1.24853
18.8935 17.0056 23.417 0.571094 0.905047 -0.299384
18.8917 19.2596 22.1201 0.349985 0.385209 -0.796673