ITEM: TIMESTEP
0
ITEM: NUMBER OF ATOMS
38
ITEM: BOX BOUNDS ss ss ss
1.6134211679039268e+01 2.4655911517524586e+01
1.6504650646306246e+01 2.4285434356240017e+01
1.6258276033470739e+01 2.4531636150159340e+01
ITEM: ATOMS x y z vx vy vz
17.4111 18.4504 20.1452 -1.75158 1.18034 0.0188961
19.0001 16.5087 18.9796 -1.163 1.25034 0.479387
20.3078 18.9925 16.2624 -2.83735 -1.74677 -0.588351
17.8507 18.4735 17.414 -1.68222 -1.33648 0.901384
20.0146 19.0379 18.9711 2.01205 -0.750955 -0.23767
24.6518 20.1931 19.4503 -0.00115488 -0.265567 0.630232
21.457 17.028 17.8282 0.396613 0.54131 0.993463
22.5962 19.5465 17.7151 -0.351206 -1.07066 -0.124251
23.6269 17.6277 19.4208 0.0205462 0.461024 1.62273
19.5737 23.8651 20.2076 0.567959 -0.158022 0.813159
18.5456 21.1363 20.1825 0.0143488 -0.440539 1.15881
18.791 21.0716 17.2776 0.540691 0.0664189 -0.536629
17.446 23.081 18.6225 -1.30132 0.947179 -1.08081
19.8983 23.5993 17.4732 0.854309 0.669787 -0.873171
16.4213 20.5157 18.5928 -0.646547 -0.232767 -0.51562
21.0656 21.669 19.0016 -1.63939 -0.326542 0.595913
21.3307 21.5531 16.292 1.24912 0.142985 0.934687
23.5046 22.154 17.8875 0.870265 2.56658 -0.126127
22.0725 24.2002 19.0685 0.575213 -0.904458 2.24793
17.2853 18.636 22.9025 1.17386 -0.0648008 0.660454
19.4593 19.2363 24.4981 -0.37127 1.26825 -1.98153
18.7176 16.5899 21.7216 -1.44508 -1.07941 -2.94239
19.7244 19.1213 21.7885 -2.07867 0.135964 -0.532704
21.2161 16.9256 20.5823 1.21298 0.164461 -0.439108
21.999 19.7182 23.5121 1.8992 -1.10902 -0.45672
20.8915 17.1905 23.3169 1.23377 0.813693 0.00841395
23.3439 17.709 22.1675 0.0272345 0.597586 -0.00192125
24.3688 20.2744 22.1972 0.875511 -0.792833 1.32626
22.2445 19.654 20.6075 1.27245 -0.455547 0.275851
19.3329 23.7618 22.9617 1.16298 0.138199 0.696823
18.1937 21.2433 23.0752 2.06982 -0.876879 0.433437
16.1383 20.597 21.3397 -2.54061 -0.938164 -0.703885
17.1631 23.1623 21.3693 0.952705 -1.04452 -1.28069
22.9392 22.3165 23.3759 0.166244 0.355399 -0.963341
20.4822 21.7969 24.5276 0.559188 -0.741838 -0.118292
21.79 24.2814 21.8102 -1.27631 2.1859 -2.36006
20.7754 21.7524 21.8188 0.904599 0.370772 1.28813
23.3792 22.3396 20.6449 -1.52595 0.479587 0.777326
ITEM: TIMESTEP
1000
ITEM: NUMBER OF ATOMS
38
ITEM: BOX BOUNDS ss ss ss
1.6134211679039268e+01 2.4655911517524586e+01
1.6504650646306246e+01 2.4285434356240017e+01
1.6258276033470739e+01 2.4531636150159340e+01
ITEM: ATOMS x y z vx vy vz
17.4154 18.3039 20.1501 -0.114355 -1.80968 -0.347134
19.0662 16.5589 18.8886 -1.09716 -0.47106 -0.646691
20.1717 18.9042 16.402 0.038278 1.55117 1.51656
17.7584 18.5957 17.5505 -0.903861 0.0132805 -0.150987
19.9026 19.0087 18.9752 -0.414406 -1.17897 -1.02252
24.6578 20.3518 19.4591 0.144801 -1.81244 0.245368
21.544 16.9881 17.8936 0.210673 0.392043 -0.135287
22.4618 19.634 17.7382 0.726277 -0.412386 2.3125
23.5572 17.7695 19.5084 -0.317891 0.772276 1.12288
19.5371 23.9635 20.172 -0.36481 -1.08388 -1.05526
18.6635 21.2656 20.129 -0.411842 -0.405468 0.198534
18.7084 21.0794 17.2657 0.61588 -0.183083 -1.99141
17.6099 23.0734 18.5007 -1.36423 0.245999 -0.656327
20.1185 23.4001 17.4733 0.295605 0.305883 -0.546887
16.3535 20.6498 18.717 0.990534 -0.163923 0.55866
21.1292 21.611 18.9723 0.566915 0.119207 -0.443146
21.3597 21.5835 16.2421 0.430503 1.27806 1.1302
23.3897 22.2934 17.9031 -0.0342632 2.36154 -0.439266
22.2294 24.2003 19.1766 -0.0751621 0.235342 -1.49727
17.4356 18.4949 23.0039 0.0960272 -0.317966 0.843562
19.6152 19.3587 24.5514 0.119304 0.70932 0.264739
18.8389 16.4954 21.514 0.0955395 0.197762 1.17024
19.6305 19.1629 21.8036 -1.19508 -1.28363 0.304174
21.144 16.8343 20.5555 -1.0741 -0.429526 -0.521022
22.0473 19.7344 23.4805 -0.388595 0.516424 1.1283
20.5685 17.2674 23.339 0.13971 -1.65319 -0.0282456
23.0444 17.5312 22.315 -0.226225 -0.915605 -1.41731
24.234 20.31 22.0599 -0.578596 0.14269 -0.714577
22.2526 19.633 20.6149 1.6914 -0.138722 -0.157006
19.1166 23.5994 22.8674 0.718101 -0.130338 1.74218
18.1756 21.167 23.1575 0.43449 -0.263307 0.652939
16.2763 20.4218 21.3621 -0.813995 0.590185 -0.397347
17.1089 23.0154 21.2261 1.08235 -0.0319426 -1.10729
23.0334 22.2384 23.3887 1.16169 0.0944619 -0.561518
20.4894 21.896 24.4272 0.0600276 1.24105 -0.132293
21.7302 24.2406 21.7728 -0.337248 0.0884105 0.73719
20.943 21.8673 21.7912 -0.254566 0.53179 0.59006
23.6914 22.5075 20.6619 0.348275 1.29822 -0.549277
ITEM: TIMESTEP
2000
ITEM: NUMBER OF ATOMS
38
ITEM: BOX BOUNDS ss ss ss
1.6134211679039268e+01 2.4655911517524586e+01
1.6504650646306246e+01 2.4285434356240017e+01
1.6258276033470739e+01 2.4531636150159340e+01
ITEM: ATOMS x y z vx vy vz
17.3456 18.4032 20.0765 -0.507981 -0.697663 -0.358306
18.9058 16.5348 18.969 -0.0138516 -0.092963 0.911947
20.1907 18.9418 16.4283 1.55028 -0.261635 -0.506225
17.6699 18.3571 17.4637 0.847477 1.32271 -0.90461
19.9684 19.0364 18.9988 -0.21474 0.395594 -0.410245
24.6615 20.0284 19.6192 -1.76287 -0.492998 0.414442
21.3341 17.0109 17.9007 1.21861 -2.00807 0.00848296
22.6395 19.5303 17.7535 -0.948244 0.382398 -1.39866
23.5492 17.7727 19.322 1.31778 -0.254007 -0.232548
19.6049 23.9232 20.3216 -1.00266 -0.406486 0.402516
18.5661 21.1555 20.1224 0.277992 0.79457 0.410644
18.7719 20.9744 17.2396 -0.917877 -0.401167 -1.86189
17.287 22.8344 18.6293 -0.106307 -0.869072 -0.347076
19.9095 23.5481 17.6627 -0.35066 1.24615 -2.28262
16.3744 20.344 18.4811 -0.583437 1.3946 -0.127529
21.1033 21.7602 19.0985 0.323032 -1.45991 -0.254545
21.3499 21.4238 16.4198 0.0427894 -0.269008 -0.806908
23.5282 22.0568 18.0213 0.316461 0.786107 -0.355275
22.0641 24.2294 19.0729 -0.0457245 0.574373 -0.914373
17.2264 18.873 22.7426 -0.611017 0.0842727 0.0224548
19.4273 19.0339 24.2541 1.21944 -0.136777 -0.324038
18.8464 16.8148 21.7155 -0.570081 1.76681 1.3922
19.7329 19.2111 21.7596 1.32056 0.135338 -0.730111
21.2729 16.8668 20.6146 0.303616 -2.45515 -1.00365
22.0676 19.7083 23.5277 0.540526 -1.01875 0.240634
21.088 17.3202 23.1832 -1.3839 -0.94214 1.05586
23.5475 17.7691 22.093 2.13913 0.199258 -0.192947
24.3352 20.4018 22.122 -0.728678 0.0840998 -0.314798
22.2798 19.6305 20.7479 -0.755081 -0.274494 0.981638
19.5136 23.7552 23.053 -0.414218 -0.339356 0.227022
18.148 21.317 22.8058 1.32562 0.70139 1.99338
16.1128 20.7496 21.1248 -1.11609 0.340936 0.810194
17.1129 23.2342 21.3006 0.54802 0.679619 1.18332
22.9487 22.302 23.4744 -0.489954 0.471071 1.32242
20.4694 21.6846 24.3988 -0.831854 -0.491225 1.02819
21.7978 24.2329 21.9784 -0.229853 0.695837 0.0722679
20.8937 21.7324 21.8517 -0.989183 0.570501 -0.256768
23.3654 22.5073 20.6615 1.28294 0.245228 1.10551
ITEM: TIMESTEP
3000
ITEM: NUMBER OF ATOMS
38
ITEM: BOX BOUNDS ss ss ss
1.6134211679039268e+01 2.4655911517524586e+01
1.6504650646306246e+01 2.4285434356240017e+01
1.6258276033470739e+01 2.4531636150159340e+01
ITEM: ATOMS x y z vx vy vz
17.4763 18.4817 20.0888 0.237678 -0.254005 0.430059
19.006 16.4546 18.9226 0.0713452 -0.0920875 0.0730314
20.4154 19.1286 16.2938 -0.138942 -0.776085 -1.05723
18.0521 18.4183 17.432 1.1107 -0.111898 0.33095
20.0903 19.0573 19.0194 0.302588 1.6301 0.0911281
24.6085 20.1781 19.6146 2.76499 -1.28113 1.39318
21.335 17.0806 17.7913 -0.279745 0.137478 -0.232969
22.567 19.5281 17.707 1.89078 -1.18526 -0.0582847
23.5257 17.7122 19.4305 -0.100207 -0.910985 -0.244496
19.6024 23.9759 20.1215 -0.306517 -0.982126 0.765319
18.6225 21.056 20.2172 -2.35024 0.790056 -0.0747578
18.7417 21.0948 17.363 0.586115 -1.18736 -0.662131
17.3961 22.9548 18.6947 -0.978214 1.26573 0.369694
19.8328 23.644 17.4886 0.86784 0.769548 -0.21333
16.5022 20.5152 18.5358 -0.876053 0.30112 0.47646
20.975 21.6471 19.0069 1.20564 -0.353296 -0.242759
21.3179 21.7545 16.3173 -0.0363175 -0.724586 -1.72269
23.4751 22.1439 17.9475 1.48657 0.641929 -1.48451
22.0512 24.1164 18.971 -2.60767 1.04291 1.21373
17.3554 18.6762 22.9504 -0.678582 -0.732584 0.479125
19.4951 19.2026 24.4891 1.58109 2.11879 -1.33727
18.6562 16.6808 21.663 -0.518844 0.286887 -1.2877
19.6285 19.1045 21.8317 0.175733 0.605606 1.56075
21.1525 16.9789 20.6065 0.840646 -1.03414 -1.03933
21.9814 19.736 23.5693 -0.292007 1.30752 0.687103
20.8788 17.1638 23.3743 0.651292 0.548147 -1.0417
23.3393 17.7465 22.2168 -0.754128 -1.88845 0.071059
24.215 20.2846 22.2773 0.193933 -0.714354 0.0451786
22.1704 19.5494 20.6174 0.0557425 -0.928004 0.055001
19.3924 23.7994 22.7396 -1.77624 0.00769345 0.912776
18.3293 21.3218 23.1628 1.07529 0.915695 -0.180376
16.2869 20.5101 21.3677 -0.321761 0.225358 -0.165219
17.2934 23.0819 21.3365 -1.60652 0.445264 0.439941
22.8054 22.3785 23.3918 -0.46606 -1.05491 -0.493274
20.449 21.7975 24.5948 1.36307 0.308674 1.56576
21.8324 24.1926 21.5427 -0.15968 0.28273 -0.525351
20.8472 21.6187 21.7632 0.86161 0.992307 1.05062
23.3086 22.2442 20.5516 -3.07492 -0.412286 0.0525299
ITEM: TIMESTEP
4000
ITEM: NUMBER OF ATOMS
38
ITEM: BOX BOUNDS ss ss ss
1.6134211679039268e+01 2.4655911517524586e+01
1.6504650646306246e+01 2.4285434356240017e+01
1.6258276033470739e+01 2.4531636150159340e+01
ITEM: ATOMS x y z vx vy vz
17.5822 18.4804 20.1736 1.82602 -0.474774 -0.414366
19.0976 16.5654 19.0355 0.404532 0.0653216 -0.363791
20.3233 18.9863 16.2175 0.601101 -0.116646 0.618006
17.7375 18.5157 17.5161 -1.1696 1.33797 0.43233
19.9832 19.0565 18.8864 0.366047 -1.12191 -0.931789
24.518 20.3138 19.4376 0.434002 -0.28508 -0.425032
21.5487 17.1413 17.8341 -0.863957 0.779328 0.182716
22.6845 19.5141 17.7021 0.498417 -1.0858 -1.34455
23.5765 17.6104 19.3395 -0.563758 1.26593 -0.317958
19.5025 23.9438 20.3243 -0.076864 1.23212 0.713792
18.5734 21.1229 20.3171 -0.325835 -0.42278 -1.05646
18.7725 20.9214 17.1793 1.65651 -1.50644 -0.710336
17.8127 22.9882 18.567 -0.17709 -1.30129 0.382512
20.1803 23.3638 17.3764 0.770288 -0.276491 0.0978843
16.4809 20.7295 18.59 1.14082 0.447062 1.03708
20.9818 21.445 18.9895 -0.330121 -0.300633 1.3757
21.283 21.3374 16.292 1.1069 0.699625 0.874432
23.1446 22.4111 17.8696 -0.387112 0.482374 -1.64683
21.884 24.0456 19.4721 -0.561085 1.49956 -0.47684
17.3956 18.7439 22.9455 -0.0580886 -0.856044 0.993108
19.4475 19.3859 24.5389 0.499356 0.350239 -0.0121461
18.8539 16.7471 21.7088 -1.00235 1.39977 -0.248977
19.7821 19.1152 21.8233 -1.66155 -1.72322 0.415016
21.1986 16.9022 20.5281 -1.56153 0.829683 -0.465617
21.9923 19.6507 23.6409 -1.08847 -0.437466 0.794412
20.8635 17.2912 23.3557 -1.15122 -0.356745 0.972314
23.1469 17.601 22.12 1.49743 -1.1923 0.730272
24.2767 20.2177 22.1492 0.66711 0.481692 0.315008
22.2677 19.6139 20.5663 0.713423 -1.02205 0.0391044
19.2003 23.6335 22.8514 0.00251233 -0.991559 0.14508
18.0103 21.3976 23.0674 -0.421175 -0.487883 0.397088
16.188 20.601 21.3516 1.00569 1.47879 -0.0988545
17.1253 23.1435 21.1744 -0.48952 0.451771 1.18041
22.9787 22.2245 23.1976 -0.572612 1.62682 -1.38868
20.6893 21.7793 24.3876 0.3332 -0.923165 -0.970153
21.6593 24.2705 22.0716 -0.236205 -0.368526 -1.57016
20.7994 21.7564 21.7568 0.2794 -0.0399051 0.112724
23.4672 22.4425 20.6553 -1.10463 0.862659 0.63356
ITEM: TIMESTEP
5000
ITEM: NUMBER OF ATOMS
38
ITEM: BOX BOUNDS ss ss ss
1.6134211679039268e+01 2.4655911517524586e+01
1.6504650646306246e+01 2.4285434356240017e+01
1.6258276033470739e+01 2.4531636150159340e+01
ITEM: ATOMS x y z vx vy vz
17.3702 18.5264 20.231 0.476329 -0.431277 -0.644866
19.1595 16.6108 18.8822 -0.617472 0.970704 -0.494498
20.4155 18.9413 16.4318 1.25009 0.353087 1.15756
17.9253 18.5262 17.4385 0.720529 0.0798427 -1.1378
20.0596 19.1447 19.0045 -0.671132 -0.56969 0.0764359
24.6602 19.8553 19.5943 0.770171 1.01746 0.436861
21.5458 17.1048 17.7855 -1.14356 -0.541728 0.0950152
22.716 19.537 17.6718 -1.78006 0.0443146 -0.580319
23.6122 17.5117 19.4106 -0.283228 -0.21775 0.550144
19.4908 23.781 20.1368 -0.428488 -0.899014 0.752359
18.4825 21.2339 20.188 0.362178 -0.0654327 0.413597
18.7424 21.0702 17.2913 -0.376555 -0.941877 -0.11186
17.2116 22.9801 18.6987 -1.0523 -0.971332 0.175584
19.6507 23.5909 17.3956 -0.510438 0.518414 -0.395887
16.4912 20.4318 18.5994 -0.344993 0.762502 -1.73208
21.0113 21.716 19.0454 -0.664952 -1.16418 1.45407
21.328 21.5617 16.4441 0.653346 -0.690846 2.00039
23.5665 21.9914 18.1034 -0.34163 -0.0701336 0.972434
21.9964 24.0432 19.1219 1.8499 0.378733 1.86358
17.4844 18.7423 22.898 1.20825 0.679106 -0.0876892
19.4702 19.4235 24.3922 0.153382 -0.897466 -0.663823
18.7533 16.7373 21.5602 -1.97058 1.49859 0.725384
19.841 19.1347 21.806 0.298714 0.114747 -0.33249
21.2209 16.826 20.4231 -0.814569 -1.88635 -0.45739
21.952 19.8297 23.4368 0.830193 0.677772 -1.25243
20.7587 17.334 23.2732 0.2999 -0.554847 0.175854
23.2978 17.8143 22.1693 2.03208 1.08962 -0.11238
24.2958 20.1161 22.1981 -0.321453 0.661218 -1.90543
22.1883 19.7222 20.6128 -0.258175 0.602662 0.0967237
19.5088 23.6504 22.8947 -0.86059 -0.276901 -1.68468
18.254 21.3381 23.0278 0.883648 2.09934 0.244755
16.234 20.6351 21.4021 0.539912 0.398959 0.365687
17.0728 23.1022 21.4284 0.554917 -0.142659 0.0937236
22.8372 22.3431 23.3047 0.787013 0.0548612 -0.820311
20.5316 21.8077 24.5082 -0.952719 0.086963 0.0513087
21.749 24.3043 21.7835 -1.25979 -1.47515 -1.02689
20.7599 21.7623 21.7256 0.255612 -1.61318 0.800578
23.3646 22.228 20.6904 0.726521 1.32091 0.938777
ITEM: TIMESTEP
6000
ITEM: NUMBER OF ATOMS
38
ITEM: BOX BOUNDS ss ss ss
1.6134211679039268e+01 2.4655911517524586e+01
1.6504650646306246e+01 2.4285434356240017e+01
1.6258276033470739e+01 2.4531636150159340e+01
ITEM: ATOMS x y z vx vy vz
17.3772 18.3352 20.1706 0.0845179 -0.173071 -0.0106412
18.9472 16.6107 19.0428 -1.09379 0.832348 -0.896292
20.3398 18.9855 16.4734 -1.19256 -1.26677 0.58095
17.8824 18.54 17.3997 0.0531213 -0.644143 -0.0130994
19.9613 19.0546 18.9867 -0.287314 1.25932 -0.466896
24.4572 20.3893 19.3129 2.0485 1.19851 0.564895
21.4201 17.0617 18.0722 0.7083 -0.0474675 0.460173
22.7028 19.4692 17.6907 0.994046 -0.451389 1.42747
23.6532 17.6369 19.4845 -1.88973 0.824297 1.25106
19.6063 24.0122 20.1518 1.18693 -1.19863 0.188836
18.6481 21.1408 20.0648 0.361838 -0.417713 0.831376
18.8289 20.9418 17.2682 1.07119 -0.812845 0.543002
17.5749 23.0387 18.5818 -0.38838 0.805209 0.400203
20.0143 23.5939 17.508 -1.45122 -0.225774 0.578688
16.5553 20.3612 18.7847 0.249281 1.59811 0.773162
21.2005 21.6078 18.9577 0.248951 0.701883 -0.497306
21.3346 21.5662 16.3031 0.556789 -1.32144 -0.300267
23.5567 22.2786 17.7118 0.461753 0.406778 -0.0926704
22.0931 24.2327 19.1757 0.413724 -0.776257 0.83474
17.3472 18.6742 22.9326 0.359942 0.0389313 0.21766
19.5683 19.0803 24.3818 1.56428 0.796877 -0.304073
18.6122 16.693 21.8847 0.183029 -1.20974 -0.553678
19.7307 19.1409 21.798 -0.510599 1.13461 0.642257
21.0208 17.0107 20.6229 0.0573496 -0.156456 -0.191643
21.921 19.6309 23.4275 -1.52065 -0.348104 -0.130333
20.8188 17.0868 23.3228 0.437978 -0.100741 -1.09452
23.3266 17.715 22.1122 -0.921522 -0.594383 0.446839
24.2859 20.2543 22.1159 -0.904481 0.285909 -0.49905
22.1589 19.5483 20.4813 -0.0237258 1.63974 -0.504608
19.3185 23.8372 22.8147 0.0431291 -0.153986 0.160154
18.2635 21.1365 23.1058 1.08827 -0.312036 -1.67225
16.0969 20.6204 21.3624 -1.50995 0.068349 -0.12037
17.3282 23.011 21.2741 -0.879165 -0.362612 0.0180887
22.7371 22.157 23.5087 0.463323 -0.109114 -2.13226
20.4284 21.7965 24.557 0.639917 -1.13057 -0.475552
21.8247 24.3853 21.8181 -0.248204 0.421623 -1.19528
20.7281 21.8907 21.7404 0.886643 -1.25932 0.118788
23.3403 22.4838 20.6083 -1.34153 1.06006 1.11245
ITEM: TIMESTEP
7000
ITEM: NUMBER OF ATOMS
38
ITEM: BOX BOUNDS ss ss ss
1.6134211679039268e+01 2.4655911517524586e+01
1.6504650646306246e+01 2.4285434356240017e+01
1.6258276033470739e+01 2.4531636150159340e+01
ITEM: ATOMS x y z vx vy vz
17.2641 18.3634 20.1095 1.14058 -0.595002 0.0679663
18.9583 16.5561 18.9173 0.255205 0.954524 2.79822
20.1461 18.8871 16.3709 1.66223 1.40456 -0.0216602
17.7521 18.594 17.395 -1.60508 -0.464715 0.971065
19.9999 18.9191 18.9147 1.01508 1.2973 0.624269
24.688 20.3369 19.4769 -1.57556 -0.323681 -0.312106
21.6395 17.0244 17.9999 -0.813831 -0.186437 -0.441052
22.6043 19.4503 17.7375 0.578268 -0.387284 0.0471776
23.7836 17.7063 19.3981 -0.212796 0.767002 -1.49109
19.4946 23.8721 20.2163 -0.853163 1.02937 0.719616
18.5998 21.252 20.1778 -0.0768709 -0.414907 -1.36034
18.8795 21.0096 17.217 0.108416 -1.10725 0.254129
17.377 22.9895 18.6826 -0.785541 0.263477 -1.91236
20.0017 23.5295 17.4568 1.63498 -0.675291 -1.03081
16.3924 20.5268 18.6559 1.75663 -0.066379 1.61975
21.1186 21.5112 19.1466 -0.835521 -0.363117 -0.115409
21.4014 21.4366 16.3745 0.502291 -0.36859 0.554948
23.4152 22.1495 17.9243 -0.846203 0.434834 0.0917076
21.9595 24.1599 19.1956 -0.0246929 0.459084 -0.665394
17.3353 18.5507 22.8665 -0.664695 1.19158 -1.95872
19.592 19.5022 24.2812 0.252822 0.849983 0.303916
18.7621 16.6435 21.567 0.139554 -0.238372 0.211447
19.5073 19.1413 21.6607 -0.109844 1.68086 -0.601459
21.1172 16.797 20.4903 -1.19806 0.715224 -0.687576
22.0246 19.7574 23.4647 0.0908072 -1.71062 0.527648
20.6991 17.3486 23.2163 -1.9188 0.141273 0.672654
23.2547 17.6946 22.2122 0.0782144 0.856176 -0.258084
24.3675 20.187 22.2562 0.156771 0.0777447 1.24551
22.2817 19.6163 20.628 0.667756 -0.503232 -0.642179
19.2416 23.748 22.8896 0.240774 -1.9877 0.684992
18.0983 21.1855 23.1541 2.14554 -1.70183 0.588446
16.2239 20.6211 21.3757 -1.08232 -0.578344 -1.57599
17.1954 23.1343 21.3331 0.33327 -0.188864 1.04892
23.1296 22.3381 23.3272 0.74014 -0.132036 -0.264817
20.6631 22.008 24.4455 0.0503152 0.0772247 0.708839
21.6867 24.2734 21.9247 -1.30198 0.459276 0.253425
20.8491 21.7833 21.8637 1.13322 -0.473269 0.198115
23.505 22.4055 20.6861 -0.777911 -0.192573 -0.853717
ITEM: TIMESTEP
8000
ITEM: NUMBER OF ATOMS
38
ITEM: BOX BOUNDS ss ss ss
1.6134211679039268e+01 2.4655911517524586e+01
1.6504650646306246e+01 2.4285434356240017e+01
1.6258276033470739e+01 2.4531636150159340e+01
ITEM: ATOMS x y z vx vy vz
17.2659 18.5365 20.0805 1.1004 0.121775 -0.215983
19.0618 16.4795 19.1344 -0.134134 1.28225 -0.0288293
20.2208 19.1584 16.1441 -1.333 0.162436 -0.404793
18.098 18.2235 17.4251 -0.0586964 1.4884 -1.508
20.0594 19.0601 18.9495 0.266998 1.32963 0.508457
24.6848 20.0471 19.6276 0.252529 -1.03228 0.597795
21.2817 17.106 17.8124 1.17659 -1.90312 0.00917067
22.622 19.4866 17.7082 0.884347 -1.18444 1.15523
23.4476 17.5791 19.3892 0.406544 0.275366 -0.704407
19.5916 23.7377 20.2574 -0.498506 0.385619 0.765673
18.5549 21.195 20.1406 -1.86023 -0.302433 1.40657
18.759 21.029 17.2191 0.864406 -1.70524 -1.58182
17.29 23.0616 18.7255 -0.977182 0.371869 0.324002
19.7826 23.5579 17.539 -1.47756 -0.188898 1.08567
16.4925 20.4336 18.3637 -0.587001 -0.425646 -1.10157
21.0593 21.6783 19.0461 1.2087 0.103031 -1.59275
21.3599 21.4454 16.3632 -0.421291 1.00335 -0.749717
23.5769 22.1073 18.051 -1.11433 -1.04269 1.25917
22.0752 24.21 18.9689 -0.915721 -0.458083 0.106972
17.2106 18.7494 22.8298 2.11339 1.0165 -0.543493
19.4193 19.2348 24.3174 1.54071 -0.216507 -0.331653
18.7159 16.7029 21.8113 -0.688672 1.14724 0.321328
19.7887 19.0627 21.8132 1.02148 0.102308 -1.04657
21.1868 16.8249 20.6181 -0.213026 -1.80456 -0.0330724
21.995 19.7044 23.3966 -0.206078 1.35698 0.376532
20.9068 17.2653 23.4493 -1.9592 -0.51267 -0.15258
23.5625 17.7612 21.9839 0.57337 0.777354 0.242167
24.2242 20.4702 22.2353 -1.08018 1.28766 -0.871021
22.2956 19.6743 20.6737 0.969313 0.606688 0.179267
19.5807 23.6226 23.0516 0.438647 0.0256131 -0.0559651
18.1892 21.3304 23.1844 0.615917 -0.321945 0.627425
16.293 20.6663 21.4057 -0.52314 0.949508 0.818292
17.1631 23.2856 21.3523 1.44876 -0.158439 -1.18836
22.7924 22.5454 23.3428 -0.283925 -0.305975 0.641322
20.3853 21.6477 24.529 -0.779734 -0.321609 0.721189
21.812 24.2489 21.669 -0.503551 -0.989911 -0.926995
20.8059 21.624 21.8015 1.009 -0.192547 1.64286
23.3991 22.4564 20.5995 -0.275929 -0.726587 0.248478
ITEM: TIMESTEP
9000
ITEM: NUMBER OF ATOMS
38
ITEM: BOX BOUNDS ss ss ss
1.6134211679039268e+01 2.4655911517524586e+01
1.6504650646306246e+01 2.4285434356240017e+01
1.6258276033470739e+01 2.4531636150159340e+01
ITEM: ATOMS x y z vx vy vz
17.3682 18.53 20.2432 0.425339 1.09562 -0.130811
18.9471 16.6538 19.013 -0.777833 1.07572 0.310321
20.4317 19.0015 16.3271 -1.78926 0.608128 -0.0185618
17.9711 18.5424 17.5738 0.0366195 0.81315 -1.02942
20.1366 18.9532 18.9396 0.38942 2.26868 -0.75269
24.5214 20.1426 19.2977 1.99932 0.653053 0.0114326
21.3716 16.8953 17.9826 0.993259 -0.442369 0.0948678
22.6635 19.5937 17.485 1.0899 -1.57052 0.287554
23.5165 17.703 19.5421 0.546309 -0.388547 -0.645606
19.5858 23.9489 20.2272 1.02648 -0.720172 1.15837
18.5183 21.0806 20.0469 -1.09827 -0.884805 -0.572609
18.9734 21.0188 17.0989 1.00535 -1.17974 -1.62207
17.5217 23.0767 18.5444 -0.450042 0.400365 -0.184559
19.893 23.5624 17.5411 1.28492 0.0623489 -0.291081
16.5128 20.6564 18.5173 1.25955 0.77301 -0.434221
20.9907 21.7143 18.9357 -0.264068 0.854624 -0.413366
21.2351 21.6003 16.1862 -0.43804 -0.37934 -0.373125
23.3581 22.1536 17.8438 -1.96127 -0.225842 0.809512
22.0458 24.2911 19.0884 -0.952974 0.446379 -0.150436
17.415 18.6276 23.1295 -0.992601 -0.580311 2.2808
19.5905 18.9714 24.5363 0.212342 0.0714926 0.638164
18.7579 16.6313 21.8611 -0.203735 -0.547187 2.00072
19.5935 19.0935 21.8174 0.307127 -0.313896 0.635454
21.1889 17.0345 20.7027 -0.652282 -1.78174 0.200352
21.9741 19.6185 23.7112 0.257618 0.803889 -0.549687
20.9705 17.1654 23.3935 1.08971 -0.37751 0.550661
23.3809 17.7913 22.2004 -0.845473 -0.500162 -0.529082
24.2161 20.2282 22.0468 -0.211932 -1.1169 -0.463305
22.2265 19.6615 20.6347 -0.00641347 1.10447 -1.13506
19.2355 23.7495 22.8521 -1.68284 0.320236 0.406747
18.1788 21.3513 23.0326 0.166433 -1.14169 0.933658
16.1758 20.6469 21.3454 0.652305 0.281815 -0.47418
17.2514 23.2256 21.1514 0.107803 -0.293629 -1.94004
22.9394 22.1258 23.4862 0.111308 -0.933706 -0.351723
20.4818 21.6397 24.3447 -0.0847456 0.781357 0.117072
21.7548 24.1955 21.7627 -0.501297 -0.606736 0.906322
20.7684 21.6821 21.8689 0.41816 0.224962 0.855634
23.3479 22.4518 20.6985 -0.466206 1.3455 -0.13601
ITEM: TIMESTEP
10000
ITEM: NUMBER OF ATOMS
38
ITEM: BOX BOUNDS ss ss ss
1.6134211679039268e+01 2.4655911517524586e+01
1.6504650646306246e+01 2.4285434356240017e+01
1.6258276033470739e+01 2.4531636150159340e+01
ITEM: ATOMS x y z vx vy vz
17.4649 18.4439 20.1059 -0.553175 -0.259525 0.220261
19.026 16.6334 18.5933 -0.568829 0.48787 0.801764
20.283 18.772 16.3711 0.960872 -0.156449 -1.78644
17.7472 18.5155 17.3552 -0.932933 0.601639 0.640345
20.0401 18.9845 19.0597 -0.625928 0.856094 -0.0762398
24.5682 20.353 19.3994 0.475558 0.314494 0.0843307
21.5673 16.8574 17.8542 0.670029 0.873988 0.609429
22.6189 19.4983 17.688 0.648888 -0.107612 -1.73771
23.5476 17.7894 19.4658 0.819367 0.277171 -0.997225
19.5523 23.9093 20.2004 -1.12056 1.87721 0.994821
18.645 21.2622 19.9998 -1.05462 0.602358 0.191799
18.7767 20.9636 17.1737 0.134449 -1.96175 -0.259497
17.4057 23.0764 18.6575 0.0714038 0.644238 1.35355
19.9358 23.3819 17.4798 0.476442 -0.826076 -0.213552
16.2855 20.6498 18.7676 0.763855 -0.129268 -0.00862657
21.0685 21.6745 18.9912 -1.3433 -0.733605 -1.68194
21.3024 21.2895 16.2882 1.19756 -1.13731 -0.0877615
23.3527 22.1293 17.7963 0.910141 -1.27258 1.31183
22.0784 24.1003 19.1228 0.17675 1.53675 -0.774153
17.4796 18.7235 23.0603 -0.184749 -0.809785 -0.458419
19.6411 19.5475 24.5427 -0.112018 -0.614595 -0.0590334
18.8846 16.6423 21.3919 -1.31041 -0.166585 -0.01912
19.7596 19.3204 21.8597 0.34733 -0.751286 -1.36159
21.3174 16.8373 20.5112 -0.0892594 -0.0245287 -1.02288
22.1477 19.7045 23.7522 0.694971 0.599399 -1.59988
20.6634 17.3689 23.2026 -1.60767 -1.56179 1.75949
23.1681 17.5478 22.2835 0.389215 -0.84584 1.74839
24.2927 20.0864 22.1161 0.52847 -0.245678 2.05427
22.2378 19.6402 20.65 -1.88574 0.689352 0.217846
19.2038 23.8858 23.0921 -0.0722267 -1.28851 0.359298
18.225 21.5006 23.1763 0.557102 0.00540978 2.00648
16.3491 20.4292 21.2541 0.925026 0.084481 0.156194
17.2042 23.0336 21.3738 -0.65216 0.511082 0.867487
22.8746 22.1939 23.4875 -0.0764303 0.841067 0.536596
20.6043 21.954 24.3946 0.494745 -0.49882 -0.63594
21.6335 24.2153 21.9667 -0.459625 2.21379 -0.849284
20.7533 21.7532 21.7566 0.171201 -0.90259 -1.3508
23.304 22.3411 20.7681 1.23626 1.2778 -0.934082
ITEM: TIMESTEP
11000
ITEM: NUMBER OF ATOMS
38
ITEM: BOX BOUNDS ss ss ss
1.6134211679039268e+01 2.4655911517524586e+01
1.6504650646306246e+01 2.4285434356240017e+01
1.6258276033470739e+01 2.4531636150159340e+01
ITEM: ATOMS x y z vx vy vz
17.4786 18.62 20.1849 -2.36702 -0.36042 -0.462989
18.9482 16.4867 19.307 0.761521 -0.208852 -0.935678
20.3629 19.0898 16.2686 1.064 -0.394223 0.300491
17.9676 18.3398 17.5656 0.809691 -0.16494 0.560872
20.1924 18.956 19.0545 0.844337 0.0439764 0.326138
24.5862 20.0859 19.4139 2.26047 -0.794299 0.372674
21.2538 17.1171 17.5939 -3.61469 0.398784 0.777093
22.5535 19.5882 17.5894 1.80939 0.127854 0.49533
23.5243 17.7187 19.3716 -0.792219 -1.49389 0.270558
19.4722 23.7461 20.1697 -1.10591 2.34322 -0.233282
18.5987 21.0798 20.1408 -1.61563 1.68655 -2.18358
18.8749 21.0615 17.3247 -0.375831 -1.73852 -0.742252
17.5442 23.0183 18.5844 0.098212 -1.15006 1.07171
19.765 23.5054 17.4367 1.30401 -1.11526 0.832529
16.4733 20.4545 18.4793 -0.469019 -1.21277 -0.276145
21.1072 21.6779 18.9985 1.84163 0.737856 -0.357502
21.442 21.665 16.3952 -1.37529 -0.507015 -0.134022
23.6758 22.0464 17.9411 0.919358 -0.115001 1.45025
22.0801 24.0087 18.9866 -1.13568 0.541993 0.842508
17.1898 18.7458 22.8346 -1.00721 0.128951 0.730141
19.3215 19.184 24.4527 0.293851 -1.09272 -1.057
18.7396 16.6443 21.9035 -0.942518 0.801234 0.476492
19.8305 19.1447 21.8161 0.0113898 0.54714 1.22504
21.2541 16.8305 20.605 0.271849 -0.54589 -1.33375
21.9577 19.8772 23.5279 -0.547725 -0.253141 -1.38912
21.048 17.2206 23.2591 0.682906 -0.606868 -1.27143
23.4175 17.6467 22.0019 0.219203 0.309937 0.135778
24.364 20.2246 22.0496 -0.130801 1.95101 -1.03217
22.1788 19.7154 20.7918 -0.408663 1.54273 -0.959548
19.3184 23.7405 23.1162 -0.676724 -0.174638 -0.0638099
18.1891 21.2051 23.0872 1.47126 0.53128 0.0767787
16.1666 20.8173 21.1756 -0.408564 -0.418926 -0.575951
17.1711 23.1736 21.5117 -0.450957 0.515681 0.698066
22.932 22.3909 23.3524 1.82921 0.271738 0.13537
20.3801 21.8157 24.5055 0.293301 0.289312 0.798791
21.6367 24.2366 21.7341 -0.786528 1.06237 0.594662
20.7579 21.756 21.8124 1.10119 -0.444469 1.09167
23.256 22.375 20.6666 0.324211 -1.0397 -0.254714
ITEM: TIMESTEP
12000
ITEM: NUMBER OF ATOMS
38
ITEM: BOX BOUNDS ss ss ss
1.6134211679039268e+01 2.4655911517524586e+01
1.6504650646306246e+01 2.4285434356240017e+01
1.6258276033470739e+01 2.4531636150159340e+01
ITEM: ATOMS x y z vx vy vz
17.3595 18.2732 19.9217 1.23113 -0.363391 -0.978867
18.9865 16.4895 19.1477 -1.01357 -0.38482 -0.559616
20.4154 19.1279 16.3199 0.98649 -1.06676 -0.000523288
18.0799 18.2443 17.4758 0.536872 1.22427 -0.34972
20.1396 19.0001 18.9521 -0.76205 0.144809 -1.26141
24.6252 20.3459 19.3883 1.17826 2.03256 -1.43976
21.0218 17.0279 17.6783 1.36179 -1.40052 0.619128
22.6528 19.4895 17.7311 -0.206487 0.206672 1.87324
23.4306 17.6101 19.3739 -1.72714 -0.632973 2.25241
19.6074 23.6671 20.2422 -0.225408 -1.47444 1.11149
18.4436 20.7805 20.387 -1.66764 0.215936 0.85647
18.8477 21.1143 17.5251 0.756983 -0.608264 -0.297655
17.5269 22.9979 18.7879 -1.14898 -0.139744 0.647745
19.9042 23.6706 17.4138 0.203666 -1.03593 -0.0118994
16.4495 20.3557 18.7227 -1.07142 2.16155 1.1879
21.1286 21.7365 18.976 1.39561 1.6387 0.634867
21.4058 21.6557 16.4089 -0.479652 0.957351 0.214818
23.5667 22.0847 17.7928 0.897007 0.124747 -0.722654
22.1142 24.1455 18.9557 0.00567114 0.815534 -1.47385
17.3471 18.8321 22.4218 -0.971207 -1.17019 1.18156
19.4602 19.3415 24.3207 0.402868 0.49184 -0.583377
18.7562 16.6339 21.9233 -0.314698 -1.05587 0.0307264
19.8498 18.9713 21.7406 -0.385178 -0.939468 0.405519
21.1589 16.8126 20.6795 0.237078 -1.72723 -0.0524318
22.0565 19.7155 23.5832 -0.129602 -0.850313 -1.02456
20.907 17.1399 23.3366 -1.13872 -0.510486 -0.227054
23.2514 17.8263 22.0748 -0.137958 -0.505505 0.0312565
24.231 20.443 22.3564 -0.149734 1.07826 0.557709
22.2936 19.7453 20.575 -0.915443 1.96506 -0.267553
19.5224 23.8615 22.9378 0.604931 0.540528 -0.135433
18.1064 21.4393 23.2376 1.18826 -0.094104 -0.744602
16.1312 20.7993 21.2997 -0.274326 -0.492188 0.622052
17.3389 23.1243 21.4021 -0.124564 0.711893 -0.672005
22.7583 22.4447 23.3461 -0.626757 -0.128895 -0.743266
20.5044 21.6927 24.5523 1.8865 0.178161 -0.895439
21.6646 24.3003 21.5766 0.457309 -0.182645 -0.17385
20.6225 21.6562 21.8223 0.173564 -0.351757 -1.22908
23.3437 22.4135 20.6229 -0.0334729 0.627628 1.61773
ITEM: TIMESTEP
13000
ITEM: NUMBER OF ATOMS
38
ITEM: BOX BOUNDS ss ss ss
1.6134211679039268e+01 2.4655911517524586e+01
1.6504650646306246e+01 2.4285434356240017e+01
1.6258276033470739e+01 2.4531636150159340e+01
ITEM: ATOMS x y z vx vy vz
17.2998 18.3751 20.0676 -0.721699 0.991822 0.63779
18.9812 16.5695 18.8717 0.277836 -0.814193 1.2496
20.2872 18.8616 16.4825 1.20105 -1.2787 1.02032
17.7873 18.5312 17.4065 -0.646256 0.0381108 1.05372
20.0749 18.9063 19.0105 1.18693 -1.02721 0.884108
24.704 20.3421 19.3389 0.0216756 -0.393292 -1.53156
21.5915 16.9966 17.962 0.0897703 0.738448 -1.31525
22.7425 19.4785 17.7187 -1.10436 -0.680047 -0.105866
23.6852 17.769 19.5451 0.810546 -0.528278 -0.436853
19.5341 23.9793 20.2651 0.483082 0.906096 1.21001
18.4613 21.0182 20.2284 -0.632606 -0.0150774 -1.16368
18.7036 21.005 17.3661 -0.296576 -1.27577 -0.302571
17.7105 22.947 18.5962 -1.17208 -0.145811 -1.28163
20.1163 23.6304 17.3932 1.54635 0.101723 0.0570291
16.3484 20.4948 18.7088 0.712408 1.80789 0.612823
21.0165 21.6974 19.2461 0.951514 -0.734451 2.07355
21.1017 21.3866 16.5393 0.684989 0.645374 0.775343
23.248 22.0488 17.9547 0.0724802 1.07901 -0.32995
21.9197 24.2192 19.3428 -0.464328 1.62892 0.943713
17.3251 18.4639 22.9138 0.903152 0.222094 -0.557948
19.483 19.495 24.2598 -0.548871 0.275822 0.256699
18.7845 16.5234 21.5127 -0.779343 0.366494 -0.207161
19.5385 19.0841 21.6444 -0.822243 -1.07638 -0.350473
21.263 16.7994 20.5392 -1.6419 0.296253 -0.266946
21.9768 19.9341 23.4841 1.49463 1.06517 0.587001
20.7158 17.2445 23.1192 0.91087 -2.89377 0.108725
23.1537 17.8953 22.1606 -1.06202 1.30038 -0.526407