ITEM: TIMESTEP
0
ITEM: NUMBER OF ATOMS
389
ITEM: BOX BOUNDS ss ss ss
9.2121455247208051e+00 3.0976990615786438e+01
8.6018011051000478e+00 3.2159249058336776e+01
9.9221071228272830e+00 3.0867893162282176e+01
ITEM: ATOMS x y z vx vy vz
18.6298 12.1187 12.1212 -0.40781 2.89276 0.54757
17.4915 15.6119 13.802 -0.69783 2.28414 -0.664018
16.5236 14.0175 11.6044 0.18444 2.21102 -1.03508
14.8709 16.1635 12.7357 -1.17693 1.0067 1.75576
14.1742 13.3982 13.1553 -0.826101 0.600929 1.06599
22.1293 15.7506 11.799 0.938192 -0.7593 -1.09325
19.3265 14.8841 11.7017 -1.16026 1.06327 1.55761
21.4326 12.9853 12.2186 -0.932811 0.415181 -0.184249
24.2354 13.8518 12.3159 0.58396 1.71324 -0.257901
27.0383 14.7183 12.4132 0.0789746 -0.295706 -0.610358
13.2183 18.3094 13.867 1.6048 1.67772 -1.74287
17.917 19.5482 10.7653 -0.40537 -0.10236 2.82942
17.2203 16.7829 11.1848 -0.354596 0.299294 -0.659118
15.5677 18.9288 12.3162 0.132936 -0.872912 -0.431925
20.991 19.2437 13.4798 -0.988249 0.0847651 1.28108
18.1882 18.3772 13.3825 -1.11036 -0.537031 0.266012
20.2943 16.4784 13.8994 -2.17746 0.925949 0.431096
20.0232 17.6494 11.2822 0.166931 0.291221 0.597988
23.7939 20.1103 13.5771 -0.85233 -2.07615 -0.348676
25.9 18.2115 14.094 0.494887 0.318117 -0.831491
25.6289 19.3824 11.4768 0.390173 0.902411 0.622092
23.0972 17.3449 13.9967 1.85853 1.14106 1.59536
22.826 18.5159 11.3795 1.49132 -0.463756 -2.1224
24.9322 16.6171 11.8963 0.669806 -2.17309 1.4041
27.8146 20.1651 13.1851 1.00684 -1.8672 -1.3557
27.735 17.4836 11.9937 -0.323839 2.51285 0.898892
29.9207 18.2663 13.702 -0.469719 -1.30913 -0.0637205
17.2322 23.2885 14.0943 -1.07375 1.04686 -1.01456
14.6117 23.8401 13.0279 0.551788 0.212341 1.72959
16.2644 21.6941 11.8966 -0.0575351 -1.63341 -0.338839
13.915 21.0747 13.4475 1.41578 -0.280223 0.301784
19.5816 23.9079 12.5434 1.41328 0.574886 0.469844
21.6877 22.0091 13.0603 0.299778 -1.83942 0.154014
21.4166 23.18 10.4431 1.08159 1.68205 -1.88327
18.8849 21.1425 12.9629 -2.03175 -0.255824 -2.04881
18.6137 22.3135 10.3457 -0.544107 0.512118 -2.01553
20.7199 20.4147 10.8626 -0.253754 -1.10205 0.770939
23.6023 23.9627 12.1514 3.54641 -0.614995 0.411725
23.5227 21.2812 10.9599 1.01847 1.08434 -0.174185
25.7085 22.0639 12.6683 -0.461871 -2.41201 -2.52267
16.9611 24.4594 11.4771 1.03443 -0.110699 0.76399
16.3931 26.0329 13.8244 -1.02473 -0.0102994 0.963518
19.3104 25.0788 9.92619 -1.35334 1.2964 0.898994
18.7425 26.6522 12.2736 -1.4967 -0.591742 -2.18261
21.4962 25.8615 11.6345 -1.23032 0.441183 0.499596
20.9282 27.4349 13.9819 0.587161 -0.844511 1.00924
23.6819 26.6442 13.3429 0.640387 -0.584666 2.36808
25.788 24.7454 13.8597 1.29136 0.129254 1.82058
17.0659 11.6756 16.8388 -0.595417 -1.18972 -1.01846
14.4454 12.2272 15.7725 -1.21617 -0.0926868 -0.548538
21.9749 10.6434 17.453 -0.905502 0.242539 -1.95576
21.7037 11.8143 14.8358 0.054397 -1.78404 -1.10472
19.172 9.77683 17.3557 0.775557 -1.83927 0.0571026
18.9009 10.9478 14.7385 1.1809 0.494003 0.228757
24.7777 11.5099 17.5503 0.529991 1.15929 -1.06597
27.5806 12.3764 17.6476 -0.226603 0.419222 -2.26677
12.7927 14.3732 16.9038 0.928155 0.401381 -1.21848
12.5216 15.5441 14.2866 0.295341 0.50773 -0.979452
17.7626 14.4409 16.4192 -0.192751 -1.29544 -2.2419
16.7948 12.8466 14.2216 0.553056 -0.450361 1.21172
15.4132 13.8216 17.9701 0.63123 -0.0532444 0.760002
15.1421 14.9925 15.3529 0.738624 -0.772999 -1.15439
20.5654 15.3075 16.5166 1.13693 0.84844 -0.45615
19.8687 12.5422 16.9361 -0.434191 -2.2998 0.869122
19.5976 13.7131 14.3189 0.431507 1.24627 -3.32629
23.3683 16.174 16.6139 0.325207 -0.513043 -1.2897
25.4744 14.2752 17.1307 0.946051 0.0327978 1.84269
25.2033 15.4461 14.5135 1.42383 0.708012 -0.0739914
22.6716 13.4087 17.0334 1.85547 0.0536692 -0.00949779
22.4004 14.5796 14.4162 0.0938244 -2.61549 1.1982
24.5066 12.6808 14.9331 0.801123 0.533417 0.0405992
28.2773 15.1417 17.2281 -1.31789 2.63445 0.830222
28.0061 16.3127 14.6109 0.838303 0.382733 -1.89656
27.3094 13.5474 15.0304 -0.237495 -0.568524 0.373353
13.4894 17.1385 16.4842 -3.3292 -1.09726 0.25713
11.8367 19.2844 17.6156 0.801619 1.22118 1.16586
11.14 16.5191 18.0351 -0.450513 0.939669 -1.65669
10.8689 17.69 15.4179 -0.529879 -0.667263 1.76354
9.21622 19.836 16.5492 -0.211079 2.34662 -1.31694
16.8066 19.3522 17.131 -1.04413 -0.339068 0.755633
16.1099 16.5869 17.5506 -0.68035 -0.264006 0.514069
15.8388 17.7578 14.9334 -1.11042 0.732919 -1.0543
14.1861 19.9038 16.0647 -0.760992 -2.25721 -0.403483
22.23 19.6672 18.2947 1.6687 -0.644951 -0.0396056
19.4271 18.8006 18.1973 1.54168 0.0789804 -0.973157
19.156 19.9716 15.5801 0.0607716 -0.225685 -0.445935
21.2622 18.0728 16.097 1.35951 -1.20023 -2.24718
18.4593 17.2063 15.9997 0.508739 -0.665305 0.697926
24.065 18.9393 16.1943 -0.987066 0.23335 0.448505
26.2507 19.722 17.9027 3.03029 -0.685181 0.318199
26.1711 17.0405 16.7112 -0.0757413 -0.857464 1.40556
28.0857 18.9942 15.8023 -0.155966 2.12198 1.20154
30.2715 19.7768 17.5107 1.39945 -0.884465 -2.6085
30.1919 17.0954 16.3192 0.878449 -0.861519 2.7647
12.5334 22.0498 17.196 -0.0357271 -0.320462 1.97157
12.2623 23.2207 14.5788 0.808209 0.494251 0.828259
9.91293 22.6014 16.1297 -0.341621 0.510468 0.249121
11.5656 20.4554 14.9983 -0.505248 -1.04429 -0.222288
17.5033 22.1175 16.7115 0.388326 0.0259002 -0.427307
15.154 21.4982 18.2623 -1.26242 0.525116 0.44705
14.8828 22.6691 15.6451 -1.24619 -0.588053 -1.29988
16.5355 20.5232 14.5138 -0.346869 -1.52904 0.269748
14.3149 24.2425 17.9925 0.545069 0.605394 -1.61517
20.1239 21.566 17.7778 0.415132 0.521517 -1.10141
19.8527 22.7369 15.1606 1.04776 1.09017 0.308988
22.0384 23.5196 16.8689 -1.79955 -1.14855 1.17433
21.9589 20.8381 15.6775 2.41768 -1.06554 -0.596735
24.1446 21.6208 17.3858 0.623679 -0.458883 1.73077
23.8735 22.7917 14.7686 0.885575 0.169627 0.942076
26.0592 23.5744 16.4769 -1.50877 -0.0389236 -3.22047
25.9796 20.8929 15.2855 0.419594 0.982126 0.179375
28.1653 21.6756 16.9938 0.619669 0.00819209 1.81875
27.8942 22.8466 14.3766 -0.0801165 -0.313205 -0.637143
30.0799 23.6293 16.0849 0.719693 0.369587 -0.0942604
30.0003 20.9478 14.8935 -1.71751 0.755994 2.9014
11.6944 24.7941 16.9262 -2.37881 -2.11297 1.12716
13.4758 26.9869 17.7227 1.06388 1.50837 0.933441
16.6643 24.8619 16.4417 0.185293 1.23692 0.490629
14.0438 25.4135 15.3753 -0.993312 -1.31289 1.53026
15.8252 27.6063 16.1718 -0.831804 0.413668 0.0334981
19.2848 24.3103 17.508 -0.678292 0.0236528 -0.220351
19.0137 25.4813 14.8908 0.969793 0.570575 1.11511
21.7673 24.6905 14.2517 1.11442 -0.355726 0.312424
18.4457 27.0547 17.2382 0.176826 0.89236 1.29132
18.1746 28.2256 14.621 0.211483 -0.15768 0.86751
21.1994 26.264 16.5991 -0.314206 -0.406403 0.0277352
23.953 25.4732 15.9601 -1.21719 -0.386254 -1.46744
23.114 28.2176 15.6902 0.577512 2.05596 -1.83898
26.1388 26.2559 17.6684 0.474508 -1.06953 1.14032
25.8676 27.4269 15.0512 1.2287 -0.989543 -0.717182
28.0534 28.2096 16.7595 -0.764875 0.0293064 0.38568
28.2449 24.3571 18.1853 1.44974 -1.69282 1.46425
27.9738 25.5281 15.5681 1.84148 -0.095682 -0.468302
30.1595 26.3108 17.2764 -1.62528 0.513871 2.03175
17.6067 29.7991 16.9683 1.02864 0.394608 -1.0525
20.3603 29.0083 16.3293 -0.819014 -0.233557 0.85018
22.546 29.791 18.0376 -1.05574 0.479132 0.48228
25.2997 29.0003 17.3986 1.59164 0.403582 2.12061
13.335 12.0312 22.1382 0.195183 0.0221174 0.369539
17.6082 9.33372 22.0732 0.714467 1.04406 -0.162617
17.337 10.5047 19.456 -1.63707 0.414299 0.373308
14.9876 9.8853 21.0069 -1.7253 1.08806 1.2629
14.7165 11.0562 18.3897 1.90667 -0.510414 -1.31895
18.3049 12.099 21.6536 -0.993292 0.897628 1.59468
20.411 10.2002 22.1705 0.86707 0.160259 -0.284932
20.1399 11.3712 19.5533 -1.47315 -0.527062 0.691359
22.246 9.4724 20.0702 0.35223 -0.831725 -0.207434
19.4432 8.60588 19.9729 2.14663 1.04697 1.23337
26.0167 11.9333 22.3651 0.818422 -1.26566 -0.976564
23.2139 11.0668 22.2678 0.451126 -0.0974714 0.165158
22.9427 12.2377 19.6506 -0.462894 -2.28779 -0.998186
25.0489 10.3389 20.1675 -0.281184 -0.115309 -0.546231
27.8517 11.2054 20.2648 0.416322 -0.797979 -0.604988
13.0638 13.2022 19.521 1.892 -0.512044 -1.06663
11.4112 15.3481 20.6523 -2.18283 0.199187 1.86503
16.3811 15.4159 20.1678 -0.440873 -0.624158 1.6843
15.6844 12.6506 20.5873 -0.580462 0.621244 0.318756
14.0317 14.7966 21.7186 -0.771345 -0.30689 1.36801
13.7605 15.9675 19.1014 2.39148 1.6513 1.10795
21.8044 15.7309 21.3314 1.09297 -0.120309 -0.157144
19.0016 14.8644 21.2341 -0.13052 2.28202 0.0734256
18.7304 16.0353 18.6169 -1.09366 -1.24759 0.959397
21.1077 12.9656 21.751 1.39927 0.0810378 -1.34751
20.8366 14.1365 19.1338 -1.51747 0.240547 -1.33293
18.0337 13.27 19.0364 -0.606921 0.531182 1.8838
26.4423 15.8696 19.3284 -0.188902 -0.498551 1.12248
23.9106 13.8321 21.8483 -0.8966 -1.85289 0.105285
23.6394 15.003 19.2311 0.32195 0.0803334 -0.137173
25.7456 13.1042 19.7479 -1.20207 -1.85692 -1.37726
26.7134 14.6986 21.9456 -0.434355 -2.59331 1.17053
28.8196 12.7998 22.4625 -0.436071 -0.175841 -1.9651
28.5484 13.9708 19.8453 0.903588 0.796478 0.102054
30.7341 14.7535 21.5536 0.227369 0.61381 0.927381
30.463 15.9244 18.9364 1.02441 -1.7446 -0.488944
13.0757 19.7079 22.4304 -1.43881 -0.879861 -0.819335
10.4552 20.2594 21.3641 -1.39629 -1.39705 -0.641434
12.1079 18.1135 20.2328 -1.04214 -1.19413 -0.916135
9.7585 17.4941 21.7836 1.01093 -0.932166 -0.122197
9.48736 18.665 19.1664 -0.893288 -2.25911 0.0126047
15.4251 20.3272 20.8795 0.159259 0.740039 -1.17904
17.3489 17.0103 22.3654 -1.08202 -0.900011 1.35521
17.0778 18.1813 19.7482 -0.806539 -0.64131 0.169777
14.7284 17.5619 21.2991 -0.719009 1.29019 0.380686
14.4573 18.7328 18.6819 0.154929 1.60047 -0.621483
18.0456 19.7756 21.9459 0.71767 -0.0311054 0.508732
19.6983 17.6297 20.8145 -0.778551 -0.0820743 -1.91415
21.5333 16.9018 18.7142 -0.452848 0.19552 -0.158961
22.5011 18.4962 20.9119 0.705815 -0.93505 1.67778
24.6073 16.5974 21.4287 -0.997864 -0.474264 1.90486
24.3361 17.7684 18.8115 -0.735859 0.0364476 0.402878
26.5219 18.551 20.5199 -0.541156 0.68124 -1.53616
28.7076 19.3337 22.2282 1.41798 -0.617403 -0.992401
28.628 16.6522 21.0367 0.177349 1.3047 0.810903
28.3569 17.8232 18.4195 -1.12559 -1.03481 -0.507913
30.5426 18.6059 20.1279 -0.027216 0.863376 -0.0773195
12.8046 20.8788 19.8132 -0.0620087 0.706433 1.28004
10.1841 21.4304 18.7469 -1.77497 -1.17593 0.626333
12.2366 22.4522 22.1606 1.59706 -1.00953 0.635069
11.9655 23.6232 19.5434 -1.06434 -0.688427 -0.410216
9.61613 23.0038 21.0943 1.60679 -0.782828 2.21524
9.345 24.1748 18.4771 0.156287 0.0625755 -1.20875
17.7745 20.9466 19.3287 0.0430494 -0.198377 1.10539
17.2065 22.52 21.6761 -1.89609 1.95522 0.307333
16.9354 23.691 19.0589 0.5354 2.34452 -2.96457
14.586 23.0716 20.6097 -0.113842 -1.29973 -0.817217
20.395 20.395 20.395 -1.7401 1.346 0.35955
19.5559 23.1394 20.1252 -0.856463 2.10168 -2.46441
21.7417 23.9221 21.8335 -0.410846 -0.547831 -1.53432
22.5807 21.1777 22.1033 -2.27008 -0.393071 -0.393174
22.3096 22.3486 19.4861 -1.91934 0.400846 -0.275292
24.4953 23.1313 21.1945 -0.402357 -0.672083 -1.44852
24.2242 24.3023 18.5773 -0.437887 -0.00517453 0.864335
24.4157 20.4498 20.003 -0.28265 1.42705 1.05125
26.6015 21.2325 21.7113 -1.68187 0.0903621 -1.02868
26.3303 22.4035 19.0941 1.14348 2.45471 -0.651686
28.516 23.1862 20.8025 -1.64603 0.379515 -1.16606
28.4365 20.5047 19.611 1.95517 -1.52811 -1.74684
30.6222 21.2874 21.3193 -0.943665 -0.306986 0.832385
30.3511 22.4583 18.7021 1.09237 -0.885576 -1.33295
11.3976 25.1966 21.8908 -0.454261 0.545662 -0.0143378
11.1264 26.3675 19.2736 -2.30338 0.15462 -0.676164
16.3675 25.2644 21.4062 -0.00482132 -1.82381 -0.637046
16.0963 26.4353 18.789 -0.575619 0.496795 0.912634
13.747 25.816 20.3399 1.278 0.0565043 -0.146766
15.5284 28.0087 21.1364 2.66876 -0.909525 1.3377
18.988 24.7128 22.4726 -0.94758 -0.201123 1.74445
18.7169 25.8837 19.8554 0.184021 -0.606214 -0.198004
21.4705 25.093 19.2163 0.779439 1.48992 -0.074367
18.1489 27.4572 22.2028 1.45043 -1.6807 0.932232
20.9026 26.6664 21.5637 0.637277 2.06752 -0.562496
20.6314 27.8374 18.9465 -1.01637 0.606302 -1.33657
23.6562 25.8757 20.9246 -2.95361 0.648881 -1.67777
23.3851 27.0467 18.3074 1.01404 -0.421818 0.780083
26.4099 25.085 20.2856 -1.14454 0.35991 -0.539927
25.5708 27.8293 20.0158 4.40275 -0.982556 0.520427
28.5956 25.8677 21.9939 -1.36306 0.657571 -1.25811
28.3245 27.0386 19.3767 -1.02258 -1.39392 1.0614
30.4306 25.1398 19.8936 1.01736 1.2629 -0.134567
12.9079 28.5603 20.0701 -1.12516 -2.02064 -0.378758
17.8778 28.6281 19.5855 -0.339897 -0.727377 2.64871
15.2573 29.1797 18.5192 -1.40784 0.408235 -0.210022
17.3099 30.2015 21.9329 0.336275 0.406814 -2.55669
17.0387 31.3725 19.3157 0.0406869 0.167968 1.08802
14.6893 30.7531 20.8666 -0.486072 0.394503 -0.573188
20.0635 29.4108 21.2939 0.0288633 0.755674 -0.863255
19.7924 30.5818 18.6767 0.903861 1.60663 0.370698
19.2244 32.1552 21.0241 1.15977 0.299688 -0.890662
21.9781 31.3644 20.385 1.06497 0.0583683 -1.82563
22.8172 28.6201 20.6548 1.09291 0.516004 2.36446
25.0029 29.4028 22.3632 -1.39385 0.226038 0.381917
24.7318 30.5737 19.746 -0.425524 -0.210646 -0.198304
27.7566 28.612 21.7241 -0.652958 0.950493 0.858109
27.4854 29.783 19.1069 -0.792119 0.769484 0.706553
15.9555 11.4797 23.2045 1.16519 0.634033 0.0738488
19.5439 12.5225 26.4685 -0.385764 -0.429277 0.114652
21.3789 11.7946 24.3682 0.103998 0.32204 -0.844725
18.576 10.9281 24.2709 0.657216 -0.916617 -0.829884
12.6502 15.7716 25.4672 1.14609 -0.789983 -0.311245
11.6823 14.1772 23.2695 0.15455 0.526279 -2.84555
10.0296 16.3231 24.4008 -0.590677 -0.0554791 1.51356
17.6201 15.8394 24.9826 -0.201368 -0.969848 0.0556948
16.9233 13.074 25.4022 0.16175 0.418666 -0.187107
16.6522 14.245 22.785 0.973896 -1.27075 -0.26768
15.2707 15.22 26.5335 0.672292 -0.672681 0.850656
14.9995 16.3909 23.9163 -2.45391 1.24335 0.448223
14.3028 13.6256 24.3358 0.331002 -0.166976 1.12134
20.2406 15.2878 26.049 -0.367331 -0.895963 -0.363481
22.0756 14.5599 23.9486 0.691055 0.668358 1.04066
19.2727 13.6934 23.8513 1.04024 0.347772 0.767395
23.0434 16.1543 26.1463 1.06803 -0.589335 -1.21928
25.1495 14.2555 26.6631 0.324726 0.673727 0.34872
24.8784 15.4265 24.0459 1.46701 0.970804 0.352655
22.3467 13.389 26.5658 0.0132376 -0.831209 1.27438
24.1817 12.6611 24.4655 0.821668 1.87224 0.512749
27.0641 16.2091 25.7543 0.13396 0.494055 -1.01731
26.9846 13.5277 24.5628 -0.576297 -0.866617 -0.586555
28.8991 15.4813 23.6539 0.0211956 -0.519775 -0.948704
13.3469 18.5369 25.0476 -0.181814 -1.08292 -2.14322
10.9975 17.9175 26.5985 0.617141 -0.275274 0.822375
10.7263 19.0885 23.9813 0.0335204 -1.06704 0.547267
12.379 16.9425 22.85 0.496557 -1.6926 0.417726
15.9674 17.9853 26.114 0.895084 -1.57946 -1.8529
15.6962 19.1563 23.4968 -1.36795 -0.612946 -2.05027
20.9373 18.0531 25.6294 1.79008 -0.797953 -0.409975
20.6661 19.224 23.0122 -0.24255 1.62805 -1.62265
18.3168 18.6047 24.5631 0.765838 -0.284386 -0.215092
19.9694 16.4587 23.4318 -0.0672845 0.852097 -0.972816
22.8519 20.0067 24.7205 -2.89353 -1.84599 -0.360456
22.7723 17.3253 23.5291 0.77209 1.99314 -0.379021
24.958 18.1079 25.2374 -0.409457 -1.09924 0.759489
24.6869 19.2789 22.6202 -1.2764 -0.266962 2.0836
26.8726 20.0616 24.3285 -0.326584 -0.61592 0.324664
26.793 17.3801 23.1371 -0.472138 -2.33755 -0.931335
28.9787 18.1628 24.8454 -0.193543 0.743823 1.13558
30.8933 20.1164 23.9365 1.15518 -0.474178 1.30736
30.8137 17.4349 22.7451 -0.402071 -1.18636 -0.530527
12.5078 21.2813 24.7778 1.44161 2.0147 1.04819
10.1584 20.6619 26.3287 0.136164 -0.388674 1.38333
9.88727 21.8329 23.7115 1.39281 -0.114414 3.44224
11.6687 24.0256 24.508 -0.880501 -0.694111 2.14395
17.4777 21.3491 24.2933 -1.73743 0.023363 -1.10074
15.1283 20.7297 25.8441 -2.20934 1.34134 -0.322988
14.8572 21.9006 23.2269 0.765544 -0.219892 0.112716
16.9098 22.9225 26.6406 -0.902943 -0.535547 -0.66694
16.6386 24.0934 24.0234 -1.58957 -1.39045 0.148523
14.2892 23.4741 25.5743 -0.731291 -2.17867 -1.68921
20.0982 20.7975 25.3596 2.01273 -0.372854 0.46852
19.8271 21.9684 22.7424 0.814632 0.472396 -0.981312
19.2591 23.5418 25.0898 -0.0507478 -0.242245 -0.412731
22.0128 22.7511 24.4507 1.17197 0.507364 1.22387
25.0376 20.7894 26.4289 -0.655876 1.41746 -0.580574
24.7665 21.9604 23.8117 0.569346 0.195787 -1.32744
24.1985 23.5338 26.1591 -0.941305 -1.35198 -1.16258
26.9522 22.7431 25.52 -2.64508 0.528044 0.786688
26.681 23.914 22.9028 0.000190613 0.178893 -1.58518
29.0583 20.8443 26.0369 0.0202002 0.107425 0.721603
28.7872 22.0152 23.4197 1.6562 1.61729 0.102602
30.9729 22.7979 25.128 -0.0722992 -0.459782 0.438784
30.7018 23.9689 22.5108 -0.124302 -1.45704 -0.996072
13.4502 26.2184 25.3045 -1.19479 -1.42407 0.0707473
13.179 27.3894 22.6873 -0.452091 2.5227 -0.365238
14.0181 24.645 22.9571 -1.41384 0.989745 -1.28012
16.0707 25.6668 26.3708 -0.725448 0.386427 1.62144
15.7995 26.8378 23.7536 0.380991 0.518079 -1.26294
18.4201 26.2862 24.82 2.10206 -1.32365 2.25221
21.1737 25.4955 24.1809 0.682404 -1.26342 0.360926
20.6058 27.0689 26.5283 -1.50737 1.70488 -0.157121
23.9274 24.7047 23.5419 1.64324 -1.00933 0.690055
23.3594 26.2782 25.8892 2.49045 -0.452401 0.440896
23.0883 27.4491 23.272 0.834311 0.222978 -2.08669
26.1131 25.4874 25.2502 -1.89579 1.70373 0.509801
25.842 26.6584 22.633 0.659961 -0.460762 -0.907027
25.274 28.2318 24.9804 -1.0282 -0.153068 1.21555
28.8668 24.6967 24.6111 -1.87124 -0.534791 0.192997
28.0277 27.4411 24.3413 0.910729 0.914923 -0.82427
17.581 29.0306 24.5501 -0.0440537 0.840172 0.731915
15.2316 28.4112 26.101 0.686304 -1.65747 -0.909035
14.9605 29.5822 23.4838 1.56847 -0.2527 -0.705719
20.3347 28.2398 23.9111 -1.94853 0.305799 0.475127
19.7667 29.8133 26.2585 0.068369 0.516078 -0.160447
19.4956 30.9842 23.6413 0.757279 0.843696 -0.260222
22.2492 30.1935 23.0022 0.130758 2.30785 -1.91859
22.5204 29.0225 25.6194 0.83549 0.395923 -1.11959
17.8912 14.6684 27.5998 -0.413647 1.95813 0.00395449
21.4795 15.7112 30.8638 1.01376 0.366005 0.895067
18.859 16.2628 29.7975 -0.117463 0.498087 0.0767557
20.5117 14.1168 28.6662 -0.566779 0.221078 1.95944
23.3145 14.9833 28.7635 -0.245187 0.160526 1.55644
12.7789 20.1103 27.395 0.574945 0.754731 -0.730678
16.2385 16.8144 28.7312 -1.51474 -0.620506 -0.769927
17.7488 20.1781 26.9105 -0.252296 -0.663999 -0.73038
13.618 17.3659 27.6648 1.44535 2.04793 0.494519
15.3994 19.5587 28.4613 -1.26633 -0.226529 0.513677
21.2084 16.8821 28.2466 0.835816 0.142213 -0.134683
18.5879 17.4337 27.1803 -1.50298 -0.427585 0.405927
20.6405 18.4556 30.594 0.806583 -0.824781 1.04924
20.3693 19.6265 27.9768 -0.112509 -0.571514 0.421315
18.02 19.0071 29.5277 0.355756 0.477719 1.47866
23.3941 17.6648 29.9549 -0.0404022 0.235078 1.16302
23.123 18.8358 27.3377 -0.546153 -1.28767 -0.102635
25.3087 19.6185 29.0461 -1.67709 0.866402 1.39788
25.2291 16.937 27.8546 -0.00899502 -0.454836 -0.564165
27.1437 18.8906 26.9457 -0.521148 1.65409 -0.112737
11.9399 22.8547 27.1252 -1.81409 0.134573 -1.64726
17.1809 21.7515 29.2579 -0.68824 1.43759 -0.773246
14.5604 22.3031 28.1915 0.303361 -0.0449797 -0.00973593
19.8014 21.1999 30.3242 1.66452 -0.599633 -0.423803
19.5303 22.3709 27.707 0.116335 -1.4044 0.699076
18.9623 23.9443 30.0544 1.19836 1.88761 -0.490081
21.716 23.1536 29.4153 -0.0518424 1.63777 2.02178
22.5551 20.4092 29.6851 0.896444 -0.226359 0.145933
22.2839 21.5802 27.0679 0.169489 1.18335 0.674164
24.4697 22.3628 28.7763 -0.261289 -1.43033 1.34172
27.2233 21.5721 28.1372 0.440155 0.168949 0.22816
29.1379 23.5257 27.2283 1.09056 0.43159 0.863767
16.3418 24.4959 28.988 -0.636836 2.47707 0.580556
17.8521 27.8596 27.1673 -0.0580176 2.65742 -0.361986
13.7213 25.0475 27.9217 -0.186192 0.616401 -1.62856
15.5028 27.2403 28.7182 -0.105785 -2.30788 -0.430755
18.6912 25.1153 27.4372 -0.175369 -1.7624 -0.312435
21.4449 24.3245 26.7981 0.668322 -0.325653 0.338012
18.1233 26.6887 29.7845 -2.82001 -0.681665 0.380022
20.8769 25.8979 29.1455 2.08456 1.15945 0.177588
23.6306 25.1072 28.5064 1.20435 -0.243277 -0.233099
26.3842 24.3165 27.8674 -0.0322962 0.914396 -0.765654
22.7915 27.8516 28.2366 -0.477511 -0.276369 -0.931394
25.5452 27.0608 27.5976 1.72605 -1.28416 0.55963
28.2988 26.2701 26.9585 0.342179 -1.60718 -1.23034
20.0379 28.6423 28.8757 -0.347762 3.44926 -0.589242
ITEM: TIMESTEP
1000
ITEM: NUMBER OF ATOMS
389
ITEM: BOX BOUNDS ss ss ss
9.2121455247208051e+00 3.0976990615786438e+01
8.6018011051000478e+00 3.2159249058336776e+01
9.9221071228272830e+00 3.0867893162282176e+01
ITEM: ATOMS x y z vx vy vz
18.5052 12.4369 12.2772 -0.301723 -0.662369 0.535846
17.5155 15.9012 13.7378 1.03848 0.275809 0.388982
16.6176 14.1676 11.8091 0.225358 0.780792 -1.91005
15.0476 16.3036 12.5289 0.986435 1.2283 0.30605
14.2496 13.737 13.2943 -0.795239 0.622059 0.610778
21.8885 15.9759 11.6306 -0.309703 0.371777 -0.855288
19.2495 15.2171 11.7906 1.41831 1.93897 0.770302
21.2279 13.4023 12.3091 2.24546 0.1256 1.68933
24.2005 14.449 12.4835 -1.40974 -0.245952 0.154653
26.7174 15.1867 12.6274 -0.757333 0.782153 -1.09403
13.2124 18.3625 13.8791 -0.525092 -1.01361 0.531817
17.8151 19.681 10.7193 -0.622745 -1.03269 -0.841369
17.2543 17.093 11.2951 0.233202 -1.57129 -0.192059
15.6047 19.1675 12.2196 0.0448224 0.547746 -0.833832
20.7761 19.545 13.1643 0.0727199 0.508527 1.1541
17.9938 18.5578 13.2905 1.50627 -0.915215 2.22919
20.2457 16.7528 13.7695 -0.0047661 -0.70182 -0.0216183
19.8498 17.9428 11.1582 -1.08159 2.41073 -0.387891
23.7345 20.2602 13.5508 1.44576 -0.488332 -0.898263
25.715 18.4557 13.9614 -0.975416 0.0317293 3.78601
25.5717 19.7272 11.7331 -0.564036 -1.5874 -2.59488
22.9059 17.6419 13.8455 -1.52473 -2.20374 0.657014
22.5046 18.639 11.2448 0.302668 -0.375822 0.387655
24.7393 17.0957 11.7566 -0.311756 1.04318 0.54647
27.7312 20.34 13.3839 -2.27394 0.053943 -0.437215
27.6363 17.751 12.3048 0.407163 -0.34913 -1.92228
29.5571 18.4881 14.0488 -0.0938604 -0.323621 0.147057
17.2055 23.4724 13.888 0.450615 -0.456843 -1.11695
14.6775 23.7748 13.03 -0.826901 -0.820625 -2.2139
16.2365 21.7806 11.7906 1.58768 0.663636 0.121417
13.9577 21.1501 13.2559 0.47437 1.56335 1.56511
19.6324 23.9254 12.4773 1.01648 -0.552093 -0.369793
21.6995 22.1611 12.8147 0.34951 0.129901 0.394116
21.5887 23.2723 10.2829 -0.448605 0.537569 1.39416
18.8195 21.3399 12.5713 1.12533 -0.0543466 0.582348
18.686 22.5814 10.1694 0.21783 0.589298 2.28411
20.6776 20.7145 10.5495 0.0312956 0.129705 -1.22205
23.6129 24.0692 11.9966 -0.8616 -0.450299 -0.618115
23.4673 21.2279 11.1104 -0.994054 -1.69891 -0.593808
25.7689 22.4156 12.6395 -0.775334 1.11432 -0.210693
17.0723 24.4868 11.3525 0.432626 0.527562 -0.214137
16.4752 26.2359 13.3375 0.360921 -1.72316 -1.39454
19.3905 25.0206 9.91257 -1.07688 -0.336828 1.18052
18.8457 26.5072 12.0136 -1.40157 -1.51972 1.25931
21.451 25.9286 11.4716 -0.647643 0.791946 -0.558887
20.8168 27.6076 13.6145 -1.93124 1.98234 -0.9343
23.5939 26.6276 13.4566 -0.308699 0.186708 1.47571
25.7255 24.7362 13.7769 0.734888 -0.393376 -2.06808
17.0074 11.7627 16.8619 -0.165008 0.553804 0.196579
14.4149 12.5901 15.8656 0.960247 0.680277 0.471226
21.7469 11.056 17.4972 1.11302 0.539516 0.331489
21.3757 12.2286 14.8799 0.393089 -0.503739 -1.71986
19.2738 10.2048 17.2787 -0.495457 0.489764 -1.04917
18.7821 11.1815 14.8005 1.28249 -1.35091 1.34751
24.6529 11.7532 17.6654 -2.59492 -0.0044992 -0.372599
27.3189 12.7021 17.7963 -1.04349 -0.592662 1.30376
13.0534 14.4602 17.0593 -1.71813 0.123 1.51743
12.7887 15.853 14.37 -0.791472 2.44328 1.32825
17.784 14.5304 16.4282 0.223502 -0.479487 -0.424323
16.6663 12.867 14.2641 0.229909 0.400418 1.15868
15.5406 13.9453 18.0288 0.20507 1.2973 -0.218929
15.3948 15.1338 15.3274 2.95364 1.851 1.46666
20.3967 15.6551 16.4613 -2.17108 -0.408261 0.184876
19.7735 12.8687 16.9548 0.172308 -0.989279 -1.11536
19.4227 14.0725 14.367 0.542268 1.96926 2.98248
23.3068 16.2715 16.5345 -0.4009 1.68468 0.17642
25.2435 14.3997 17.2093 -0.842632 1.06727 -0.955811
25.1652 15.7806 14.7336 -1.71949 2.03654 2.41011
22.4985 13.6015 17.0555 1.1916 1.23609 0.476345
22.3848 14.7723 14.4557 0.0711341 2.42076 -0.621733
24.2864 13.1004 15.1437 -1.67245 0.440533 0.116578
28.1934 15.2412 17.3469 -0.141163 0.647563 0.405343
27.9427 16.4499 14.7728 -0.975172 0.24509 1.05758
27.1286 13.8582 15.1287 0.669935 0.686389 -0.474965
13.5901 17.1901 16.5559 2.65121 -0.153586 -1.04188
12.1104 19.4714 17.6654 1.81208 0.519882 0.208716
11.445 16.8026 18.354 1.01169 -1.5391 0.647062
11.0267 17.85 15.7348 0.795007 -2.86568 0.681595
9.82996 20.0485 16.613 1.25512 2.02087 -1.40628
16.7088 19.4735 16.883 0.289222 -0.981905 -0.313403
16.217 16.8047 17.5106 -0.8236 0.218316 -1.70132
15.663 17.8475 14.737 -0.138986 -0.632859 -0.506871
14.1786 20.0081 15.7752 -0.513899 -0.406505 1.44434
22.3766 19.6632 18.1132 -0.45896 1.06919 1.34474
19.4256 18.747 18.1193 -0.915249 0.660174 0.702269
19.1408 20.0602 15.2767 0.579079 -0.720595 2.47737
21.2457 18.2667 15.8226 0.185046 -0.00420289 0.481691
18.4909 17.4839 15.8653 1.85484 0.582725 -0.892767
24.0608 18.8931 16.1649 0.704301 0.225567 0.106049
26.033 19.7402 17.9985 0.678045 0.936359 -1.20925
26.109 17.189 16.8226 -0.962893 0.745929 -0.166983
27.8553 18.9803 16.0097 -2.46624 -0.0737797 -1.32131
30.0484 19.7131 17.6968 1.15092 -1.31678 0.744273
29.8483 17.3018 16.6448 -0.784174 0.855683 1.60746
12.7657 22.0482 17.2262 0.161313 -1.08021 1.44453
12.5889 23.3071 14.55 0.594082 0.522516 -1.79068
10.4523 22.5213 16.0967 0.866249 1.10324 -1.95065
11.7226 20.6495 14.9691 0.0986752 0.326017 1.59718
17.3166 22.2319 16.417 -1.02215 -0.578326 0.882135
15.2323 21.4971 18.1881 -1.5393 1.19011 -0.153603
14.867 22.7381 15.5093 1.59769 -1.9238 1.31066
16.4946 20.6869 14.3511 0.226492 0.108257 2.2621
14.478 24.2709 17.7793 0.211288 -0.185378 1.31744
20.1152 21.6446 17.573 1.01867 -0.947253 3.36434
19.7471 22.8763 14.8877 0.647926 -1.36833 2.24863
21.9753 23.7185 16.5933 0.454466 0.173422 1.78847
21.9377 20.9599 15.3955 -0.565005 -1.83525 2.21093
24.1016 21.7606 17.1019 -0.0186589 0.842124 1.61941
23.8695 22.9331 14.6231 -0.499926 -0.895615 -2.15216
25.9582 23.6074 16.3366 0.0466944 0.0404402 2.17513
25.8963 21.0373 15.1416 -2.69992 -0.151391 0.740135
28.0697 21.7039 16.9815 -1.4965 0.271422 1.74562
27.8512 22.9554 14.305 1.23317 -0.623302 -0.91682
29.7872 23.5717 16.2692 -0.660103 1.52796 -0.3252
29.7336 21.0881 15.0369 -0.24665 2.13712 -0.133211
11.9115 24.6855 16.8579 0.565654 -1.42533 0.930047
13.5812 26.9379 17.6101 -0.870256 1.15759 -1.37356
16.5866 25.0661 16.0968 0.918577 0.0640323 -1.0174
14.071 25.5945 15.2833 0.114656 1.03683 -0.527093
15.846 27.6355 15.8216 1.78617 -0.637171 1.02316
19.3205 24.3678 17.1956 -0.552456 -0.214904 3.34433
19.0542 25.5083 14.5758 -0.657477 -1.43091 0.950676
21.7738 24.7948 13.9394 -1.29006 -0.869688 0.242377
18.5117 27.0143 17.0146 -1.05813 0.971033 -0.148441
18.2721 28.1237 14.5139 -0.179435 -0.70584 0.475892
20.9776 26.4035 16.169 -0.745423 0.746899 1.1679
23.8659 25.4853 15.8393 0.0494509 1.56817 1.95391
22.9416 28.2533 15.5164 2.04183 -2.05891 -1.24834
25.8809 26.2078 17.578 -0.161352 -0.768205 0.107982
25.7669 27.2475 14.988 -1.44483 -0.0151669 -0.571266
27.7264 28.0425 16.845 -0.144912 0.132531 0.0480745
27.9753 24.3301 18.0546 -2.71493 -1.33857 -0.0237079
27.8055 25.5257 15.6309 -3.66868 -2.56093 0.662366
29.7357 26.1705 17.1599 0.406476 -1.95349 -0.143804
17.6671 29.54 16.6609 -0.473396 -0.389469 -0.539272
20.3437 29.05 16.1309 -0.412516 -1.02748 1.14539
22.5471 29.8578 17.9377 1.17107 0.492609 -2.53052
25.2439 28.8437 17.2358 0.0669936 -1.06316 -0.849158
13.7496 12.1879 22.3105 0.0625797 -0.225618 -0.136518
17.8485 9.50576 21.8132 -0.505173 1.12379 1.12779
17.3852 10.412 19.2751 0.816747 0.792984 -0.489521
15.2092 10.2029 21.1086 -3.08764 0.216722 0.949728
14.9414 11.2077 18.5249 0.896675 1.04527 1.72976
18.3355 12.1358 21.7931 0.18941 2.36863 -1.40588
20.4716 10.2919 22.2475 0.963233 2.34968 -0.71527
20.0365 11.5105 19.7105 -0.492706 2.61044 0.337532
22.2538 9.82514 20.1277 1.47689 -1.71374 -0.0744578
19.6338 8.8739 19.8571 0.35568 0.711745 -0.910229
25.8672 11.7392 22.7275 -0.963884 1.4014 0.523941
23.1801 11.005 22.3899 -1.10509 -0.980864 1.74559
22.7829 12.4433 19.626 -1.0157 2.96856 1.70243
24.8085 10.7409 20.3132 -0.706653 -1.4653 -0.0892242
27.4603 11.5629 20.4337 0.511135 0.157084 -0.674439
13.443 13.3361 19.6202 -3.23926 -0.360869 2.42744
11.805 15.4919 20.7582 -0.644952 0.450762 0.148853
16.57 15.3939 20.2105 -0.211724 -0.0628378 1.50344
15.854 12.744 20.7589 0.542119 2.02956 -0.974913
14.3034 14.8146 21.8391 2.87395 1.47511 -0.523082
13.9592 15.9632 19.1785 2.01696 2.09592 1.36005
21.8048 15.61 21.6462 -0.319852 0.931775 -0.0336349
19.1159 14.7002 21.438 -0.675352 -0.733355 0.832135
18.7763 15.946 18.6672 0.499448 2.19165 0.514921
21.0704 12.8491 21.8937 -1.33815 -0.099289 -0.537777
20.7687 14.2901 19.2713 -1.14909 -2.4189 0.328434
17.9586 13.1757 19.0562 0.301544 -0.350127 -0.0689124
26.4467 15.8151 19.3364 1.39233 -0.434529 1.26967
23.9784 13.6402 22.0338 2.144 0.345336 -1.07141
23.4911 15.155 19.3802 1.3132 -0.699594 1.63714
25.6323 13.3042 19.8526 -1.46809 2.97187 1.07559
26.52 14.6005 22.1992 -1.39809 2.51487 -2.22753
28.5154 12.8796 22.5925 -0.382953 1.76369 1.02689
28.3488 14.0409 19.9756 0.0223702 0.135269 -0.925059
30.2979 14.8546 21.7416 0.694996 1.84314 0.054606
30.2724 16.1003 19.0872 -0.715333 -0.0342921 2.17229
13.1088 19.7008 22.5561 0.854208 1.04293 0.413144
10.5861 20.1712 21.3788 -1.98222 -0.598296 0.716982
12.5546 18.2985 20.3278 1.60196 0.741411 0.230689
10.3578 17.4032 21.725 0.924658 -1.04692 -3.45024
10.0321 18.6437 19.3188 1.47178 -0.273127 0.0556523
15.4055 20.3396 21.0218 2.89871 0.565272 2.2038
17.4413 16.869 22.4797 0.689239 -0.483425 -1.69843
17.2946 18.1229 19.778 2.08377 1.32863 0.66847
15.1143 17.695 21.5217 -0.606594 0.237784 0.240615
14.9019 18.9789 18.702 0.0634043 0.355382 -0.435032
17.889 19.676 22.0804 0.176975 0.311418 -1.63575
19.7523 17.4874 20.9231 0.746421 0.418495 0.113583
21.5181 17.0378 18.7365 -0.659364 2.76291 1.30955
22.6397 18.3693 21.0881 -0.960481 0.590626 -1.61442
24.6302 16.4686 21.5589 -0.939986 -1.93638 0.279693
24.1805 17.7361 18.9007 -2.58933 1.23337 0.8098
26.3422 18.3233 20.732 -1.72543 -0.224179 0.160334