ITEM: TIMESTEP
0
ITEM: NUMBER OF ATOMS
38
ITEM: BOX BOUNDS ss ss ss
1.5383013276672674e+01 2.5136555549783800e+01
1.6448526140772675e+01 2.3943364518754880e+01
1.6886227457153790e+01 2.4405827267595679e+01
ITEM: ATOMS x y z vx vy vz
16.4557 20.5761 18.5144 0.988186 -0.198022 1.42395
19.944 23.9393 19.3664 0.325254 0.0674873 -0.0727522
18.5252 21.4309 20.2423 -0.432503 1.46959 -1.67624
15.9481 21.4057 21.144 -2.05134 0.69823 0.8372
19.0232 20.509 17.4947 0.15816 0.276833 -1.16767
17.2978 22.7837 23.0464 -1.67714 0.729122 1.29016
17.0217 18.84 20.5487 0.184109 0.0189224 0.421053
19.5625 21.7846 24.3346 1.08958 -0.569977 -0.153389
17.9451 20.2035 22.7486 1.11271 -0.543279 0.805811
19.7008 18.9126 19.7655 0.613956 -0.20657 -0.48053
19.7199 23.3007 22.0301 -1.52908 0.901944 -1.0999
17.3673 23.8818 20.5704 0.450988 -1.43504 1.52895
18.3162 16.4526 19.949 0.517164 -1.01159 0.600995
15.3871 22.9573 19.067 1.79542 -1.26671 1.03901
19.0629 17.7414 22.2026 -0.335033 2.04418 -2.77531
19.8548 19.1167 24.4017 -0.13515 -0.252045 -0.292599
17.7163 18.1659 17.9637 -1.60278 -1.25517 -2.33988
20.107 16.8045 17.9691 0.0825528 0.126823 1.74141
17.8163 22.9501 17.9644 1.23622 -1.25837 0.206138
20.6924 20.6085 22.0539 2.21198 -0.946741 -0.520775
22.2435 23.2931 20.916 0.776799 1.36582 0.134149
22.4881 23.732 18.2618 0.83752 0.83 0.287921
22.4462 19.1852 20.2472 -1.49086 -0.189108 0.229168
22.8013 16.9908 18.533 0.411189 0.0765133 0.927353
23.9437 21.6294 19.3691 0.852941 0.271006 0.454732
20.3711 22.7971 16.8903 0.220662 0.497964 -1.14038
23.7807 16.983 21.0763 1.72807 1.01984 0.781752
21.429 19.1291 17.4889 -0.0815667 0.441692 1.161
21.1391 21.4225 19.1842 -0.859519 -1.38805 -0.228412
24.3187 18.7568 23.0275 -2.71953 -1.59492 -0.898787
24.1227 19.2963 17.9994 -2.62682 0.073602 -0.91845
21.0366 16.5564 20.5444 -1.53662 0.4231 -0.513611
21.7599 18.0187 22.7496 -1.41651 -1.28216 1.07269
22.7559 21.4253 16.8987 0.741138 -0.16322 0.025674
21.9406 22.7584 23.5577 -1.46387 0.494959 0.331669
22.3027 20.2127 24.3258 1.68025 -0.490818 -1.60925
23.5333 21.1156 22.0321 0.950806 2.65376 -0.77726
25.1325 19.3429 20.5304 0.992662 -0.429574 1.36441
ITEM: TIMESTEP
1000
ITEM: NUMBER OF ATOMS
38
ITEM: BOX BOUNDS ss ss ss
1.5383013276672674e+01 2.5136555549783800e+01
1.6448526140772675e+01 2.3943364518754880e+01
1.6886227457153790e+01 2.4405827267595679e+01
ITEM: ATOMS x y z vx vy vz
16.4018 20.5753 18.4833 0.592205 -0.452129 0.350019
19.9445 24.1344 19.3816 -0.00288333 -0.397988 0.299272
18.2553 21.3406 20.2072 -2.0864 0.846823 0.181032
15.7896 21.4116 21.2227 0.072072 -0.861588 -0.768221
18.9247 20.487 17.4659 -0.438762 -0.108551 -0.526616
17.4303 22.7983 22.8862 -0.890152 1.30608 0.842751
16.9684 18.8623 20.5775 0.028119 1.01153 -1.47124
19.5943 21.7174 24.1388 0.849147 0.0970374 0.0198637
17.8271 20.1247 22.6231 -0.557658 0.772733 -0.689822
19.6339 18.8993 19.9367 -0.801373 -0.157063 -0.387691
19.7791 23.2558 21.8621 -0.587483 -0.822351 1.00144
17.4528 24.0089 20.5933 0.514216 -0.193012 0.173426
18.3363 16.4255 20.0118 -0.983337 -0.525622 0.463761
15.4866 22.9223 19.1488 2.15813 -1.66835 0.205341
18.9868 17.5185 22.2075 -1.06289 -2.1845 0.720126
19.7395 19.0773 24.2788 -1.68565 0.57523 2.07472
17.8073 18.3218 18.1549 -0.0561285 0.371616 0.196621
20.132 17.059 18.0936 -0.927165 -0.616184 0.138956
17.8902 22.9503 17.9658 0.111916 -0.0774093 -0.572584
20.611 20.6518 22.0039 0.900469 -0.169899 -0.0847304
22.442 23.1874 20.9432 0.417171 0.00806715 0.093667
22.4949 23.6014 18.2378 -0.926396 0.331293 0.237316
22.4079 19.272 20.1791 0.735223 -0.38507 1.07911
23.0576 17.0726 18.5585 1.69426 -0.240382 -2.1071
23.9902 21.5589 19.3696 1.76921 -0.0200831 1.86043
20.3391 22.7819 17.0582 -1.10598 0.753275 -0.595585
23.8056 17.1057 21.0115 0.222168 -0.166928 -0.697299
21.3291 19.2041 17.5267 0.467906 1.30855 0.74415
21.0748 21.4007 19.2638 0.10395 1.76063 -0.246501
24.3477 18.7887 23.148 1.66706 0.230716 -0.511813
24.1734 19.3003 18.0077 0.915182 -1.16762 0.31315
21.1576 16.5031 20.5572 -0.0384895 -0.191243 -0.329708
21.8912 18.036 22.6648 -0.382493 -1.44769 1.69921
22.713 21.2947 16.9575 -0.196829 -0.0208657 -0.894712
21.8739 22.7719 23.5129 0.462879 1.75706 -0.255831
22.2465 20.2883 24.2381 0.463946 0.0463077 -1.54478
23.5419 20.9927 22.0477 -0.419782 1.59943 -0.554438
25.1324 19.3076 20.4841 -0.995375 -0.901856 -0.455688
ITEM: TIMESTEP
2000
ITEM: NUMBER OF ATOMS
38
ITEM: BOX BOUNDS ss ss ss
1.5745463047478653e+01 2.5107401373349212e+01
1.6457569378824214e+01 2.4374751158561686e+01
1.6871450382994297e+01 2.4339650555512534e+01
ITEM: ATOMS x y z vx vy vz
16.9887 18.5597 20.5217 -0.961509 0.0980672 0.603714
17.747 20.0445 22.5529 -1.3106 0.857667 0.0466713
19.6823 19.0467 19.8483 0.101469 -0.516571 -0.212435
18.5196 16.4186 19.9697 1.32092 -0.0172247 -0.454469
19.1241 17.8792 22.1135 -0.492976 -1.8564 -0.443627
19.6802 19.125 24.3511 -0.333927 0.215009 1.58715
17.9221 18.2053 18.0505 0.738473 0.652737 0.0780061
20.1953 16.8195 18.064 -0.546655 -0.71247 0.448935
22.4799 19.2026 20.0671 1.13941 -0.380962 -0.0425993
22.9758 17.0215 18.5153 1.4788 0.394124 -0.428105
23.9061 16.9993 21.1197 -1.15571 0.419757 0.191544
21.3248 19.0917 17.6234 0.249895 1.75119 -0.932572
24.3289 18.6721 23.0831 -0.703039 -0.485412 -1.58034
24.1278 19.3222 18.0181 1.5195 -1.34705 0.307635
21.1077 16.7708 20.4474 0.379156 0.0989292 0.655971
21.8144 18.3164 22.6296 0.515718 0.506275 0.843127
21.9743 20.3765 24.4784 0.255004 -0.679323 -0.865056
25.0847 19.1949 20.4883 -1.917 1.72664 -1.72068
16.3811 20.5495 18.678 -0.851392 1.48508 0.867738
20.1565 24.1824 19.2442 0.456026 1.99803 -0.436111
18.4369 21.5746 20.3552 -0.502833 0.983483 -0.339416
15.49 20.6262 21.3137 0.508407 0.417454 -1.28332
18.972 20.7056 17.5745 -1.19321 -1.043 -1.30146
17.1075 22.687 22.4852 -1.71271 -0.182855 -1.40109
19.4356 21.6832 24.0072 -0.379718 0.115698 0.909756
19.7271 23.4739 21.8451 0.0334211 -0.745279 -0.340199
17.9254 24.5852 20.5405 -1.65087 1.65505 -0.0979387
16.0312 22.8681 20.0972 0.261203 -1.19431 1.53643
17.8955 23.031 18.1003 -0.131734 -0.379803 -0.0463868
20.6301 20.6204 21.9349 1.73875 -0.609411 1.61963
22.277 23.1669 20.8084 0.374955 1.47895 -0.43909
22.6379 23.4721 18.1365 -1.60539 -0.664182 0.46321
23.8746 21.4823 19.3827 2.1595 -1.52411 0.675889
20.3186 22.8833 16.9187 -0.00706641 -0.0587397 -1.06207
20.8957 21.5452 19.2356 0.427051 -0.343482 -0.029897
22.6342 21.2085 16.8315 -0.163523 -1.42707 0.756922
21.7859 22.7151 23.4022 0.941628 0.0469336 1.5731
23.4133 20.883 22.1763 1.02059 -0.733423 0.291429
ITEM: TIMESTEP
3000
ITEM: NUMBER OF ATOMS
38
ITEM: BOX BOUNDS ss ss ss
1.5745463047478653e+01 2.5107401373349212e+01
1.6457569378824214e+01 2.4374751158561686e+01
1.6871450382994297e+01 2.4339650555512534e+01
ITEM: ATOMS x y z vx vy vz
16.9695 18.6897 20.6292 -1.33447 -0.507256 -0.365738
18.0069 20.2015 22.7722 -0.36432 0.143841 0.0444172
19.6584 19.0318 19.8178 1.02687 0.795263 -0.212478
18.4628 16.5361 19.9838 0.849156 0.905274 -0.19145
19.0218 17.7652 22.2105 -0.184876 0.534354 -0.991
19.7928 19.1241 24.3796 -0.880775 -0.428293 -0.327857
17.7132 18.3278 18.1552 -1.9641 -0.52782 -0.821821
20.1337 17.0804 17.9179 -1.04371 -0.536098 -0.715042
22.4162 19.1095 20.2353 0.641658 -0.370551 0.111199
22.8089 17.1044 18.4516 2.60153 -0.493009 0.0817776
23.9576 17.1854 20.8877 -0.0814222 0.845854 -1.93584
21.4797 19.3266 17.4794 0.824271 0.273675 2.35078
24.1698 18.7752 22.88 -1.13808 -0.550551 2.03315
24.1826 19.1814 18.1008 -0.260661 0.0823597 0.399347
21.0835 16.7819 20.4647 0.864451 0.562738 0.199512
21.6438 18.0773 22.7353 0.221166 0.640436 -0.988517
22.145 20.3283 24.3401 0.433114 0.214536 2.48616
25.204 19.3262 20.472 0.505545 0.834083 -0.652196
16.434 20.6942 18.6167 0.194958 -0.691598 0.528372
20.0201 23.9354 19.3351 -1.1759 0.627514 0.178761
18.3844 21.5112 20.3362 0.12503 0.081837 -0.0967473
15.6571 21.0488 21.1368 -0.306171 0.898435 1.2465
18.9935 20.3547 17.3685 -1.02904 -0.619582 0.852373
17.1996 22.7656 22.6445 0.609707 -0.114069 -0.633456
19.5775 21.8126 24.1728 -0.62609 -0.800558 -1.16245
19.7367 23.1895 21.9568 -1.24501 -0.250578 -0.130827
17.5155 24.1415 20.527 0.632055 -0.678023 0.948752
15.6871 22.9816 19.5143 1.54369 1.16679 1.15661
17.8739 22.8081 18.0175 -0.391102 -1.41879 0.230986
20.6109 20.459 22.0009 0.700369 1.19527 0.484667
22.1254 23.1632 20.8678 -0.719391 0.389654 -1.51142
22.4646 23.5514 18.3024 0.491668 -1.10632 -0.358407
23.9105 21.4751 19.513 -0.780639 -4.12417 1.92945
20.3634 22.5574 16.9538 -0.381131 0.381775 -0.354087
20.9671 21.3435 19.22 0.816847 2.25301 -1.80009
23.0294 21.3308 17.0521 0.682959 0.0580701 -1.91663
22.0023 22.7753 23.4391 -0.31094 0.0354743 0.643841
23.6069 21.1583 22.1213 0.452783 0.29703 -0.740596
ITEM: TIMESTEP
4000
ITEM: NUMBER OF ATOMS
38
ITEM: BOX BOUNDS ss ss ss
1.5745463047478653e+01 2.5107401373349212e+01
1.6457569378824214e+01 2.4374751158561686e+01
1.6871450382994297e+01 2.4339650555512534e+01
ITEM: ATOMS x y z vx vy vz
16.9175 18.645 20.4956 0.413245 2.51825 1.29272
17.717 20.0528 22.6702 -0.864341 0.425664 -0.0149345
19.592 18.9278 19.983 1.01399 -0.987445 1.00101
18.4525 16.4762 20.0224 0.0882629 1.61914 -0.0681691
19.074 17.5504 22.3284 -0.759021 -0.636326 0.00430636
19.8018 19.1864 24.223 0.562403 1.03686 -0.144712
17.6862 18.1715 17.992 0.546902 0.607475 -0.452809
20.0933 17.0243 18.0182 1.40578 0.399633 -0.150728
22.4908 19.1755 20.3132 -1.27445 -0.866029 -0.287574
22.7641 16.9701 18.2982 1.44072 -0.796894 -1.19866
23.7735 17.0061 20.8089 -1.69678 1.91059 1.2591
21.4526 19.264 17.6275 0.0897266 0.352231 1.02338
24.2531 18.7235 22.6256 0.374558 -1.41043 0.818646
24.0348 19.1548 17.8999 0.0265502 1.36506 0.460023
21.1365 16.712 20.3928 1.24184 1.32626 0.196963
21.7783 18.1381 22.7521 1.28691 0.115002 -0.359827
22.1283 20.493 24.2241 -0.603179 -1.53422 0.548976
25.1446 19.3933 20.5025 1.77359 -1.43053 -1.12194
16.2983 20.3512 18.5969 0.19378 0.422529 0.27002
20.2767 24.0497 19.2304 -0.552858 -0.993914 1.92167
18.2883 21.4861 20.1742 -1.07699 0.409013 -1.46864
15.6307 20.8124 21.3566 1.39375 -1.33218 -0.36507
18.9061 20.502 17.8054 -1.04072 -0.680784 -1.06566
17.1585 22.6711 22.4544 0.365521 -0.0865514 -0.564565
19.1875 21.9024 24.1088 -0.500728 -0.610637 0.346668
19.7627 23.2684 21.8779 -0.477663 0.182959 -0.39461
17.8842 24.2897 20.4762 0.752926 -0.508861 -1.40449
15.8732 22.681 19.7534 -1.15204 0.43807 -0.692933
18.046 23.0454 18.0133 0.506915 -0.0636531 1.30984
20.6371 20.6804 22.0839 -0.589212 0.211047 -0.266559
22.463 23.3376 20.9896 0.831873 0.0877209 -0.163506
22.6054 23.7148 18.4345 -1.21633 -1.13444 0.547725
24.0533 21.4399 19.3317 -0.661243 -0.616735 -0.13435
20.4877 22.6115 17.044 -1.44398 0.109948 0.690036
21.071 21.5673 19.4319 0.172384 -0.417739 -0.496025
22.8479 21.3302 17.0516 -0.718073 -0.279164 -0.0311587
21.8266 23.0015 23.5691 1.71284 1.64141 -0.22101
23.4149 21.2027 22.0485 -1.56686 -0.792344 -0.623157
ITEM: TIMESTEP
5000
ITEM: NUMBER OF ATOMS
38
ITEM: BOX BOUNDS ss ss ss
1.5745463047478653e+01 2.5107401373349212e+01
1.6457569378824214e+01 2.4374751158561686e+01
1.6871450382994297e+01 2.4339650555512534e+01
ITEM: ATOMS x y z vx vy vz
16.9882 18.6078 20.4591 0.941095 -0.469093 0.3754
17.856 20.0068 22.7491 -1.89269 -0.796898 -0.885447
19.7054 18.9618 19.8617 0.994728 0.358118 0.332611
18.4409 16.5032 19.8745 0.146025 -1.51384 2.00955
19.0092 17.6359 22.2868 -1.5815 -1.21543 -0.549904
19.8643 19.156 24.3484 -0.0720241 1.03196 0.0603219
17.9043 18.3891 17.7933 0.926871 -0.723047 1.08792
20.0399 16.7524 18.027 0.565435 -0.0765729 -0.312678
22.4945 19.3098 20.3827 -2.06081 -0.0971128 -0.835367
22.7143 17.1414 18.6235 -1.43323 -1.02628 -1.31713
23.7968 17.0063 20.9748 -0.669381 0.826503 1.08479
21.2154 19.0712 17.3711 -0.663182 -1.42709 1.08021
24.1833 18.7768 22.7948 0.574764 -0.886017 -0.330119
24.0833 19.2701 17.8029 1.7588 0.594606 -1.52145
21.0714 16.6073 20.6159 -0.630392 0.119876 -0.608641
21.6727 18.2429 22.763 0.646612 0.273346 -0.836671
22.3203 20.2979 24.3635 -0.515874 -1.32084 0.00774685
25.0746 19.3009 20.3302 2.07858 -0.238853 0.213409
16.6872 20.5946 18.6148 0.079836 1.45519 0.588776
20.0512 24.0527 19.4237 -0.414036 0.373113 -1.3036
18.4269 21.4616 20.4688 0.0815262 -0.182637 0.603271
15.7632 20.7486 21.0684 1.4646 0.739727 -0.700596
19.0208 20.6398 17.454 -0.293862 -0.617142 3.19735
17.17 22.6745 22.498 -1.22966 0.261527 -0.0794479
19.421 21.7438 24.0845 0.00916268 -0.369959 0.24411
19.6512 23.5346 22.1534 2.11016 0.0495524 -1.32134
17.7019 24.2898 20.4018 -1.47893 -0.966506 -0.28308
15.691 22.8348 19.7931 -0.411846 -0.762532 -0.143037
17.9959 22.9723 18.1854 -0.0881248 1.2041 1.14357
20.6518 20.8087 22.0344 -0.4308 0.549889 -1.75529
22.2188 23.2497 20.8727 0.499087 0.510952 -0.0380539
22.6332 23.5419 18.3756 0.87269 1.66183 0.442049
23.9482 21.473 19.3538 0.0496441 -1.43866 0.871989
20.4479 22.7116 16.9275 0.634934 0.97234 0.465819
21.1334 21.4794 19.1594 -0.404423 1.33804 -1.27794
22.5892 21.0657 16.8959 0.119879 0.615006 0.990742
21.8668 22.7565 23.6063 -0.0850017 0.384004 -0.733348
23.5055 21.3392 22.2163 -0.198679 0.808833 0.0335012
ITEM: TIMESTEP
6000
ITEM: NUMBER OF ATOMS
38
ITEM: BOX BOUNDS ss ss ss
1.5745463047478653e+01 2.5107401373349212e+01
1.6457569378824214e+01 2.4374751158561686e+01
1.6871450382994297e+01 2.4339650555512534e+01
ITEM: ATOMS x y z vx vy vz
17.0714 18.7311 20.6168 0.64048 -0.176312 -0.0142427
17.7698 20.0625 22.838 -1.13502 0.114966 0.410607
19.656 19.041 19.6926 0.94071 -0.142132 -0.296275
18.5078 16.5598 19.9226 -0.273996 -0.16464 0.37451
19.0769 17.7698 22.2489 0.0649379 0.0543211 0.834952
19.7064 19.0617 24.2666 -0.622396 0.21216 0.0943882
17.7942 18.1394 17.872 -1.19495 2.09114 -1.90914
19.999 16.7345 17.9843 1.0219 -0.135395 0.150511
22.4257 19.4132 20.2093 -0.475748 -1.1279 -1.92763
22.8455 17.1973 18.5972 0.71818 2.36301 -1.32481
23.6895 17.0667 21.1518 2.25993 -0.798407 0.707779
21.3776 19.1545 17.4429 -0.663792 -1.07096 -0.620511
24.0522 18.9877 23.0036 -0.139606 -0.905047 1.68881
24.0699 19.2972 17.8727 0.338371 -0.698941 0.390147
21.0801 16.5654 20.3526 0.120954 -1.26135 -0.148339
21.6708 18.1218 22.8238 -1.84725 2.27492 -1.41468
22.0291 20.311 24.3742 0.827369 0.676883 -0.604784
25.0395 19.1326 20.4588 0.421292 0.6799 -0.358884
16.6634 20.5333 18.5826 -0.674609 0.056022 0.68232
20.0279 24.0334 19.2436 -0.850919 0.438665 0.242371
18.3645 21.5267 20.3232 -1.50571 0.819083 -0.0542307
15.6621 20.7704 21.4106 -1.72856 1.62965 0.716817
19.1623 20.5455 17.2956 0.900037 -2.34535 -0.339641
17.2343 22.6786 22.6842 0.449899 -0.918534 -1.5634
19.3802 21.6271 24.3221 0.25438 -0.811825 2.37333
19.7855 23.2152 22.0245 0.019909 0.500378 0.291388
17.8664 24.2687 20.6565 -1.10901 0.528132 0.204331
15.9607 22.8302 19.9421 1.22964 0.100908 -0.350607
18.0092 22.8879 18.1492 0.413439 -0.435606 1.71128
20.6552 20.7323 22.0597 1.99055 0.573079 -1.33928
22.2278 23.1401 20.821 -1.29088 -0.341324 1.66983
22.5386 23.6973 18.2288 -0.546321 0.589173 -0.0562994
24.0715 21.5023 19.2594 -0.113033 -0.974944 -0.54642
20.4597 22.8048 16.7354 0.21101 -0.575542 0.251334
21.0621 21.4832 19.0965 -0.305845 -0.505376 -0.501911
22.6551 21.4264 16.8725 1.10836 -0.832737 1.70197
21.8296 22.7467 23.5145 0.131061 1.00944 0.0572901
23.5324 21.2126 22.0595 0.415228 -0.489504 -1.18289
ITEM: TIMESTEP
7000
ITEM: NUMBER OF ATOMS
38
ITEM: BOX BOUNDS ss ss ss
1.5745463047478653e+01 2.5107401373349212e+01
1.6457569378824214e+01 2.4374751158561686e+01
1.6871450382994297e+01 2.4339650555512534e+01
ITEM: ATOMS x y z vx vy vz
16.7825 18.3507 20.6414 1.29623 0.652166 -0.528842
17.9862 20.1454 22.3249 -0.594233 1.68429 1.62781
19.4873 18.946 19.9962 0.0560624 -1.76477 1.83804
18.3181 16.3386 19.9288 -1.40248 -0.992642 0.565447
19.0901 17.5955 22.3384 0.296288 -0.459283 -0.370488
20.0705 19.2752 24.283 -0.0637217 -0.824639 -1.50588
17.6787 18.1548 18.1001 -0.950691 0.096818 -1.35008
20.0377 16.9452 18.0098 0.925566 0.360506 -1.04226
22.3615 19.2291 20.4201 0.919421 -0.59965 -0.607123
22.7309 17.1478 18.4564 -0.422133 -0.5486 -1.54054
23.7523 16.9384 20.8222 0.756277 -0.598923 1.01979
21.2352 19.3229 17.5051 1.1203 -0.233538 0.518744
24.2745 18.8057 22.6173 1.02756 0.600276 1.44211
24.0701 19.3985 18.0484 1.30761 0.549008 -0.612863
21.0163 16.7878 20.5011 0.0981163 -0.110056 0.44849
21.7508 17.8912 22.857 -1.42594 0.49362 -0.382917
22.4812 20.0435 24.2523 0.768681 -0.111958 -0.969192
25.1967 19.6006 20.371 -1.18792 -0.176079 -0.586315
16.4027 20.4334 18.8716 1.77618 0.599233 -0.992357
20.3538 24.0601 19.2707 -0.290599 1.49904 -0.256337
18.4203 21.6573 20.2095 -3.77965 0.755614 1.69008
15.5865 20.6602 21.3979 -0.898371 1.32592 -0.332991
18.8405 20.4777 17.6378 -1.31595 -0.806642 2.11245
16.977 22.8783 22.1918 0.0797606 0.580604 -0.100374
19.2124 21.7915 23.8498 0.704581 -1.31421 1.06837
19.7235 23.3538 21.9012 -0.0382863 -0.274817 -0.0382904
17.7362 24.4299 20.2709 -1.03605 -0.925349 -0.522993
15.9011 22.8158 19.7051 1.17623 -0.75442 -0.943876
18.0754 23.17 17.9981 -0.38337 0.436915 1.51767
20.674 20.5462 22.03 -0.0629893 2.11749 0.501554
22.2677 23.2584 21.0475 -0.335671 -0.307656 0.152349
22.8175 23.772 18.4117 1.0372 0.846974 -1.40427
23.9916 21.7347 19.5546 0.167564 0.125216 0.043207
20.4192 22.4687 17.0002 0.335575 -1.44047 0.75317
21.1855 21.3554 19.3693 0.187948 -1.05249 -1.15574
22.7373 21.5437 17.0458 0.660121 0.616921 0.342895
21.7848 22.4627 23.6262 0.3347 -0.144586 -0.339826
23.5825 21.2235 22.1471 -0.843916 0.10017 -0.0586177
ITEM: TIMESTEP
8000
ITEM: NUMBER OF ATOMS
38
ITEM: BOX BOUNDS ss ss ss
1.5745463047478653e+01 2.5107401373349212e+01
1.6457569378824214e+01 2.4374751158561686e+01
1.6871450382994297e+01 2.4339650555512534e+01
ITEM: ATOMS x y z vx vy vz
16.7205 18.3201 20.6618 -0.443867 0.196418 1.2373
18.0074 20.0276 22.5916 0.442272 -0.126528 -0.0567652
19.3446 19.1745 19.9683 0.878169 0.57165 0.677952
18.2773 16.3655 19.8028 2.47488 -1.0833 0.502264
19.0074 17.5547 22.2126 -0.570463 -1.17536 0.542964
19.9699 18.9327 24.2425 0.857664 0.493169 -0.844057
17.5454 18.1279 18.0287 -0.27174 1.69945 0.273186
20.1026 17.3194 17.9801 -0.217524 -0.738639 0.655821
22.1739 19.3407 20.3656 0.880661 -2.05679 0.0585704
22.5925 17.279 18.6206 -2.17644 -0.329885 0.404263
23.6044 17.0324 20.9988 -0.207912 0.0786251 -0.156641
21.4872 19.4685 17.2601 -1.00581 -1.44178 0.449408
24.102 18.8651 23.0507 0.0804861 1.3686 -1.31814
24.1232 19.4086 18.2115 0.18226 0.850844 0.579511
20.8901 16.604 20.4344 -0.485354 -1.22282 -1.4776
21.6982 17.9232 22.6471 0.432158 1.09646 0.0972552
22.2473 20.1828 24.301 0.550143 -0.983873 -1.40099
25.0382 19.4737 20.6615 0.0183693 0.801245 1.51945
16.6372 20.3261 18.9784 0.935254 0.792337 1.44963
20.1952 24.0276 19.1163 1.03171 1.08261 -0.352076
18.5702 21.813 20.3159 -0.622581 0.733686 0.000457354
15.8223 20.7069 21.4353 -1.45472 -1.38433 -0.467832
18.9309 20.2197 17.4798 -0.54377 -1.18408 -0.169039
17.2928 22.7862 22.5056 -0.15962 -1.53897 -2.72715
19.4568 21.6015 24.0052 -1.31682 -0.371076 -2.24699
19.8739 23.55 22.1498 0.595957 1.14256 -0.480074
17.7648 24.2196 20.4923 -0.438096 1.21646 0.444295
15.9591 22.7664 19.746 1.43675 0.286087 -0.430435
18.1435 22.7894 17.8895 -0.497943 1.03834 0.462036
20.7651 20.7791 21.9251 0.000475357 1.43914 -0.33299
22.1742 23.3097 20.8526 0.518381 -0.487339 -0.108669
22.5807 23.6007 18.1903 0.46071 0.707954 1.41768
24.0408 21.7637 19.4545 0.493173 -1.44784 -0.53651
20.5427 22.5162 16.7589 0.689888 -0.399964 0.844529
20.9414 21.4079 19.1285 -1.2681 -0.642512 0.260765
22.998 21.5777 16.9127 -1.01422 1.78023 -0.378253
21.8231 22.6296 23.604 -0.381609 -0.93849 0.573008
23.5648 21.2188 22.0297 0.117221 0.177726 1.03387
ITEM: TIMESTEP
9000
ITEM: NUMBER OF ATOMS
38
ITEM: BOX BOUNDS ss ss ss
1.5745463047478653e+01 2.5107401373349212e+01
1.6457569378824214e+01 2.4374751158561686e+01
1.6871450382994297e+01 2.4339650555512534e+01
ITEM: ATOMS x y z vx vy vz
17.2103 18.7757 20.5698 -0.350394 1.75298 -2.33889
17.7627 20.1588 22.9333 0.0246077 0.277778 0.155012
19.7866 18.8728 19.9898 0.738345 0.329125 1.17246
18.5204 16.5296 19.9387 1.496 -1.97675 -0.350049
18.9154 17.8865 22.3817 0.130999 0.789188 0.071041
19.8991 19.3934 24.5159 0.728659 -1.4226 -0.448299
17.8499 18.3132 18.066 -1.72854 0.812779 0.562991
20.0397 16.783 17.8575 -0.999871 -1.72782 -0.674879
22.4177 19.2329 20.2901 2.93616 0.114964 1.76296
22.66 17.0459 18.3527 1.43879 -0.0257535 1.52914
24.2196 17.174 20.4715 -1.66831 0.26766 -0.155971
21.4229 19.104 17.564 0.627357 -1.05684 -1.37417
23.8135 18.5775 22.7267 0.634884 1.02164 -0.531603
24.0911 19.3247 18.1728 -0.56206 1.28973 1.20441
21.2961 16.5889 20.3596 -1.16033 0.549652 0.462544
21.3466 17.9072 22.7556 0.839247 -0.623945 0.86693
22.1834 20.1329 24.31 -0.0363047 -0.32443 -0.530782
25.1219 19.5984 20.5179 0.349945 -0.742818 -0.729654
16.3957 20.5212 18.4258 -1.8696 0.892249 -0.639218
20.0762 24.0405 19.0834 -0.450164 0.870353 0.563333
18.2555 21.4149 20.3669 0.245188 2.33034 -0.129914
15.5893 20.8492 21.1413 -0.64211 -1.03319 -0.747627
19.0858 20.6024 17.6806 -0.253033 -1.65182 1.56255
17.275 22.7489 22.6534 0.161707 0.761786 -0.924682
19.4604 21.8822 24.2826 -0.237163 -0.542577 -0.634894
19.7748 23.2367 21.8932 0.794195 -1.14225 -0.609301
17.8296 24.2954 20.3977 1.12962 -1.50611 0.715748
16.0301 22.8624 19.6967 0.949939 0.509049 -0.382683
17.9065 22.878 18.0098 -0.195016 -0.162643 1.1684
20.617 20.5464 22.0309 0.00852936 -0.821348 0.449563
22.166 23.2587 20.8187 0.0974311 -1.02226 -1.49253
22.4942 23.7057 18.2313 0.292076 0.149935 -1.27142
23.8249 21.697 19.4526 0.425871 0.0897013 0.948969
20.5219 22.6562 16.9101 0.749043 0.0408074 0.690233
21.0228 21.4391 19.3288 -1.43791 1.48924 -0.271701
22.7716 21.3193 17.0893 -2.02931 0.859291 -0.447999
21.8336 22.5815 23.5449 -0.594434 -0.337158 -0.11768
23.5224 21.0746 22.198 -0.584038 0.922063 0.917658
ITEM: TIMESTEP
10000
ITEM: NUMBER OF ATOMS
38
ITEM: BOX BOUNDS ss ss ss
1.5745463047478653e+01 2.5107401373349212e+01
1.6457569378824214e+01 2.4374751158561686e+01
1.6871450382994297e+01 2.4339650555512534e+01
ITEM: ATOMS x y z vx vy vz
17.0525 18.533 20.7874 -1.05008 1.0576 -0.548485
17.8196 20.1303 22.7008 0.587871 1.66166 -0.8121
19.5287 19.1079 19.9456 0.374733 0.224332 -0.869635
18.4409 16.3264 19.9211 -1.2018 1.17387 0.287629
18.9847 17.5695 22.3122 -0.629939 0.546312 1.54179
19.623 19.2563 24.3703 0.0911818 -0.804541 -0.258512
17.8794 18.0347 18.1146 0.434188 -0.561285 0.553331
20.2048 17.2685 18.0139 0.186004 -0.5791 0.0908548
22.366 19.2489 20.2926 2.0132 -0.709975 0.422977
22.6754 17.2073 18.4631 0.636813 1.89076 0.319509
23.4529 16.9194 20.9298 0.620008 1.49175 -0.43598
21.6638 19.3452 17.2193 1.73951 0.333885 0.581073
23.9312 18.6673 22.776 -1.13424 0.0558397 0.000359115
24.1647 19.3857 18.0442 -0.16961 2.14584 -0.931877
20.9277 16.5786 20.432 -0.723945 -1.1464 -0.406574
21.4232 17.9582 22.7205 -1.69932 -0.0835279 -1.27259
22.0469 20.346 24.2319 -0.777906 -0.325277 -0.58385
25.0045 19.284 20.5628 -0.872108 -0.2938 -0.167022
16.6749 20.3319 18.7049 -1.3961 -0.791721 1.01735
20.1533 23.8866 19.2959 -0.921624 1.30694 1.61236
18.4164 21.533 20.3015 0.828125 -0.955837 -1.10488
15.8647 20.8773 21.3597 -0.0299945 0.0826585 -1.56953
19.2845 20.4031 17.5593 -0.486403 -2.35725 -0.724773
17.2058 22.6632 22.4787 0.0488768 1.4807 0.917843
19.5266 21.7725 24.2096 0.0877377 0.0803952 -0.265734
19.7066 23.3545 22.0567 -0.517144 2.49413 -0.826769
17.7247 24.2887 20.2595 0.38949 -0.650895 -0.422454
15.8013 22.7776 19.9078 0.623226 -0.729615 0.527545
17.8182 22.8437 18.041 0.172948 -1.56493 0.835777
20.7511 20.8362 21.9737 0.843586 -0.886015 0.0682367
22.2994 23.2254 20.9224 -0.269168 -1.18662 -0.594861
22.5514 23.6721 18.1783 -1.74007 0.0678798 0.242711
23.9786 21.6122 19.2893 -0.475555 -1.09898 -0.275032
20.3067 22.7156 17.0141 1.33262 -0.238034 2.47704
21.1807 21.4618 19.1556 0.100787 -2.01135 -0.481472
22.9877 21.63 16.8506 -0.244809 0.935074 1.19108
21.9399 22.7491 23.606 0.64837 0.3471 0.714663
23.6477 21.2079 22.0074 2.58054 -0.40158 -0.849989
ITEM: TIMESTEP
11000
ITEM: NUMBER OF ATOMS
38
ITEM: BOX BOUNDS ss ss ss
1.5745463047478653e+01 2.5107401373349212e+01
1.6457569378824214e+01 2.4374751158561686e+01
1.6871450382994297e+01 2.4339650555512534e+01
ITEM: ATOMS x y z vx vy vz
16.6773 18.4394 20.5082 1.47901 1.47519 -0.862145
17.7981 19.9922 22.8364 -1.91767 0.40932 0.403747
19.4697 19.039 19.9094 -0.419175 0.127658 0.528966
18.5006 16.425 19.9354 0.575917 -0.50041 1.59049
19.0634 17.7249 22.2318 -1.02051 0.552618 -0.167891
19.8681 19.0703 24.4169 -1.14443 0.114804 -0.75231
17.4459 18.1572 18.1084 0.785272 -1.9417 -2.35684
19.8499 17.4408 17.8608 0.322412 1.18624 -2.15511
22.2483 19.0943 20.2171 -1.4256 0.638632 0.59899
22.5403 17.0321 18.4709 -1.11789 -1.10245 0.604458
23.8276 17.3146 20.8672 1.47176 0.0503834 -0.321303
21.5901 19.7036 17.4817 -0.757479 -1.68763 0.537702
24.0182 18.8874 22.9506 0.0643178 -0.70569 -1.01912
24.1667 19.1401 18.1333 -0.972584 -0.437666 0.302544
21.1526 16.6277 20.6041 1.06686 2.22787 -0.0485561
21.6469 17.9323 22.8339 0.423085 -0.330333 0.34263
22.1894 20.1427 24.3139 1.0112 0.753059 -0.892337
25.1512 19.5132 20.489 -1.70039 0.120819 0.233599
16.5287 20.5232 18.7092 -1.22523 -0.274992 0.0124446
20.2164 24.0368 19.163 0.0440366 -0.184796 -1.86754
18.2641 21.4546 20.5003 -0.213922 -0.0838766 1.28878
15.704 20.5902 21.4606 0.701726 0.509223 0.22942
18.9682 20.3901 17.5877 -0.434549 0.997839 -1.22729
17.1362 22.7225 22.4464 -0.546362 -1.82011 0.781646
19.4835 21.8566 23.9309 0.485818 -0.465414 1.4213
19.7359 23.1971 21.7171 1.32747 -0.972371 -1.43977
17.7782 24.3005 20.1486 0.906966 -0.818728 -0.787178
15.9058 22.6922 20.0342 0.897363 -0.589294 1.25471
18.2114 22.8989 18.0866 1.72785 -0.387854 0.595718
20.4876 20.4146 22.0047 -0.186101 1.27548 -1.6696
22.4106 23.4209 20.9239 0.0796932 0.873442 0.378468
22.6914 23.6774 18.3154 -1.1251 0.562901 1.52601
23.9634 21.6025 19.2386 0.0862943 0.239444 1.34603
20.6111 22.4377 16.9584 0.462823 0.281533 0.208894
21.1644 21.6262 19.4523 -1.06915 0.488305 1.5231
23.2483 21.6114 16.877 -0.291024 -1.48647 0.753233
21.9513 22.7275 23.3541 0.106237 0.409861 0.603138
23.3449 21.1524 21.9321 1.54107 0.495164 -1.49902
ITEM: TIMESTEP
12000
ITEM: NUMBER OF ATOMS
38
ITEM: BOX BOUNDS ss ss ss
1.5745463047478653e+01 2.5107401373349212e+01
1.6457569378824214e+01 2.4374751158561686e+01
1.6871450382994297e+01 2.4339650555512534e+01
ITEM: ATOMS x y z vx vy vz
16.8196 18.5008 20.6667 -1.11782 -1.59346 -1.68118
17.8057 20.0401 22.7214 -0.125642 -1.23497 1.59151
19.4415 18.9586 19.9158 -0.0463352 0.287303 0.57269
18.4321 16.4018 19.8518 -0.318212 0.123032 -0.406432
18.9886 17.6242 22.1229 0.170485 0.121176 -0.400054
19.6818 18.9291 24.2878 -1.5682 0.543972 -0.0683844
17.567 18.2487 18.0478 1.25613 -0.512105 -0.831111
20.1324 17.2134 18.0133 0.357772 0.810963 -0.193934
22.4532 19.1915 20.2334 -1.16192 -1.56966 0.096694
22.7567 17.1273 18.4808 0.798489 1.04672 0.933161
23.6908 17.0552 20.9426 -0.410224 -2.69757 0.893019
21.5739 19.4429 17.6754 -1.12356 -0.661227 1.21139
24.3163 18.7619 22.7349 -0.109267 0.565309 -1.8816
24.2597 19.2211 18.0892 0.716334 0.459043 1.47397
21.0105 16.7774 20.4697 0.498314 -0.257333 -0.258442
21.6956 18.2395 22.7929 0.523188 0.741038 -0.225524
22.2298 20.2442 24.2142 0.458885 0.17924 0.20695
25.2397 19.4468 20.5521 0.166203 -1.29433 -1.96374
16.4855 20.522 18.8394 1.09579 1.70311 0.643251
20.1351 24.0207 19.1469 -2.36262 0.845872 0.598706
18.371 21.6046 20.2675 0.711945 -1.66131 1.15232
15.7278 20.8663 21.308 1.17392 0.0710375 0.077467
19.0042 20.3802 17.4852 1.236 1.15296 0.229117
17.1605 22.5759 22.4575 1.97736 -0.257545 -2.24089
19.518 21.6645 24.2574 -0.154595 2.18021 1.78104
19.8361 23.3361 21.9602 -0.0406132 0.26063 -0.692741
17.9268 24.2835 20.4486 -0.165386 -1.11976 0.0985905
15.9783 22.8988 19.7714 -0.146281 0.748872 -1.58315
17.8655 22.8298 17.8881 -2.93305 0.00505941 -0.245208
20.5488 20.5557 21.9688 1.06302 1.4313 -1.25429
22.3877 23.4394 20.8441 1.09913 -1.20735 0.689478
22.6237 23.5608 17.9777 -0.221682 -1.02162 0.485922
23.9032 21.473 19.4503 -0.259235 -0.558536 -1.17471
20.2922 22.5496 17.0255 -1.06212 0.485299 0.82957
21.1148 21.5531 19.4443 -1.70365 0.100942 -0.135039
22.8927 21.5377 17.0453 0.496011 0.514709 0.863196
21.7062 22.8346 23.5502 0.0358016 0.872308 0.163606
23.437 21.0992 22.0608 1.19564 0.396661 0.644775
ITEM: TIMESTEP
13000
ITEM: NUMBER OF ATOMS
38
ITEM: BOX BOUNDS ss ss ss
1.5745463047478653e+01 2.5107401373349212e+01
1.6457569378824214e+01 2.4374751158561686e+01
1.6871450382994297e+01 2.4339650555512534e+01
ITEM: ATOMS x y z vx vy vz
17.0137 18.5199 20.4544 0.547634 2.32767 -0.897552
17.8398 20.1148 22.677 0.777588 -1.34247 1.9104
19.5149 19.1097 19.8696 -1.18285 0.948099 0.827727
18.4068 16.4056 19.9719 0.655541 -0.429334 -0.00899326
19.0053 17.7492 22.1583 0.405429 -0.839569 -1.42962
19.7867 19.0755 24.372 0.12121 0.155866 0.0167639
18.1573 18.3309 17.8183 -0.485255 -1.81837 1.0674
20.3194 16.5024 18.1261 -1.18867 -0.483765 -0.21993
22.3281 19.1609 20.294 -0.901017 0.492539 -0.0704253
22.8616 17.0975 18.563 0.00741983 -0.011774 -0.237745
23.8549 17.0547 21.1808 -0.0275346 1.67665 0.0539375
21.1538 18.8032 17.6649 0.172178 -0.913003 -0.756527
24.3776 18.9725 22.886 1.08292 -0.392816 2.47504
23.9052 19.3367 17.6751 0.049061 -0.379045 -0.64616
21.2943 16.758 20.5961 0.946044 -0.449904 -0.633057
21.7778 17.9627 23.0824 -0.82477 -1.19173 0.383903
22.2506 20.1959 24.395 0.416103 0.111685 -0.827706
24.9046 19.2463 20.2391 -0.927274 0.465767 -1.30175
16.7932 20.6106 18.493 2.39646 1.21364 1.09316
19.9261 24.0493 19.3436 0.0793181 1.43731 -1.31975
18.3917 21.7811 20.433 1.25131 -0.361216 -0.72591
15.8298 20.7623 21.006 1.02052 2.78967 -0.428099
19.181 20.7336 17.2851 -0.506652 -0.111513 0.415572
17.0568 22.686 22.4148 -0.47338 -1.22455 0.415945
19.4545 21.7136 24.1732 -3.20972 0.96102 -0.313955
19.7712 23.4409 22.1651 -0.978114 -0.075148 -0.424883
17.6808 24.4271 20.6571 0.995781 -0.0471215 1.91271