ITEM: TIMESTEP
0
ITEM: NUMBER OF ATOMS
38
ITEM: BOX BOUNDS ss ss ss
1.7014773291748554e+01 2.4735384625531353e+01
1.6213127830814997e+01 2.4256963390444199e+01
1.5600918324931847e+01 2.4925264071858042e+01
ITEM: ATOMS x y z vx vy vz
17.4126 20.208 17.2773 1.57546 0.603607 0.60018
17.0189 18.159 19.111 0.61208 0.54467 -1.8411
19.21 18.103 17.4745 0.275523 0.730661 -0.196439
19.6429 19.9683 15.605 -1.02478 -0.21295 0.326334
19.473 18.9574 20.1139 0.0420754 0.252989 1.05109
18.9254 16.2172 19.3897 -0.135962 0.205963 1.28142
21.4223 17.2832 19.0564 -1.84207 -1.35785 1.15951
23.8155 18.6194 18.8042 -1.18949 0.357486 0.773243
21.6489 19.4417 17.369 1.1671 -0.982578 1.92504
17.5732 22.9601 18.3665 1.15629 -0.230747 -0.455486
18.4804 22.2913 15.8883 1.40145 0.168826 0.413224
19.5648 24.1652 19.8751 0.522857 -0.0648822 -0.396645
19.7123 21.2495 18.3409 -0.657376 2.35507 -2.84048
17.272 20.7487 19.9623 -0.498789 -1.43934 -0.535788
19.8824 24.0488 17.2203 1.66353 -0.380781 0.404332
21.8598 23.0251 18.7866 -0.981915 1.09439 -0.837222
22.0358 20.4333 20.0575 1.17116 -0.294129 0.994918
21.369 21.9699 16.2722 -0.203098 0.134847 -0.104345
23.6605 21.1818 17.9252 -2.85628 -2.0055 0.00246383
20.823 19.5248 22.5295 1.74756 -1.07865 -0.479155
19.3203 20.1444 24.8341 0.593643 0.791333 0.126622
17.9668 19.7234 22.4487 1.28834 0.346937 0.0986443
20.4301 16.7324 21.6308 2.10375 -0.547423 0.25685
19.1742 17.6533 23.8476 0.487957 0.241957 -1.4674
17.7222 17.1936 21.5626 1.6802 -0.910676 -0.625306
22.8613 17.9632 21.3107 -0.377483 1.65119 -1.67242
22.0438 19.9842 24.9212 -0.51762 -0.609989 1.37823
24.0771 18.9561 23.4874 -0.466674 -0.880053 0.809924
24.7313 19.9193 20.9579 -1.74034 -0.903533 -2.00224
21.8948 17.4377 23.9129 0.409144 1.89972 -0.439509
19.3953 24.2529 22.5718 0.724842 -0.00212812 -0.0593786
17.3152 23.229 21.1197 -1.99144 1.36249 0.134724
19.6347 21.7195 21.2088 0.872164 -0.969052 1.12159
18.0143 22.1838 23.5395 0.699023 0.303115 0.957532
20.7495 22.199 23.7961 0.795742 -0.929659 -1.22132
21.7833 23.4576 21.5009 -1.65019 1.15466 1.27329
23.0551 21.2826 22.6249 -2.76826 -0.694944 -0.114452
24.0382 22.4222 20.3092 -2.08812 0.294954 0.199542
ITEM: TIMESTEP
1000
ITEM: NUMBER OF ATOMS
38
ITEM: BOX BOUNDS ss ss ss
1.7014773291748554e+01 2.4735384625531353e+01
1.6213127830814997e+01 2.4256963390444199e+01
1.5600918324931847e+01 2.4925264071858042e+01
ITEM: ATOMS x y z vx vy vz
17.3238 20.2276 17.4593 -0.388421 0.761168 0.47986
16.9925 18.2406 19.2449 0.789152 0.567758 0.108756
19.1957 18.0834 17.5245 -0.529884 1.48334 -0.448536
19.6641 20.0068 15.7696 -1.34125 -0.0888968 -0.624381
19.5997 18.9516 20.2498 -0.532758 -2.45346 0.236445
18.9653 16.1995 19.3313 0.991837 0.377127 -0.0549867
21.4611 17.0934 19.0437 -0.135369 -0.824429 -1.27185
23.7982 18.4961 18.7112 0.0137502 -0.218187 1.46674
21.5818 19.3796 17.4494 -0.30929 -0.506216 -1.54309
17.6853 22.8945 18.3664 2.1859 0.0329356 -0.44205
18.4452 22.1484 15.868 0.804565 0.154042 0.303775
19.5666 24.2711 19.7556 -0.787715 -0.201939 0.0318931
19.7965 21.2141 18.3646 -1.32492 1.23711 -1.39946
17.2616 20.801 20.0253 1.25383 0.2445 -0.551867
19.7822 24.0603 17.1246 -0.339225 -0.0636925 -0.588255
21.8894 23.2196 18.7696 -0.124028 0.683764 -0.529899
22.011 20.6364 20.1027 1.68065 0.790535 -1.02993
21.5928 21.8548 16.4318 0.0743028 0.355954 1.00814
23.7136 21.1361 18.147 -2.10465 -0.285724 1.38247
20.9098 19.5795 22.6113 -0.279192 -1.53638 1.19212
19.3548 20.196 24.7518 0.256893 -0.072191 -0.201947
17.8265 19.6695 22.5089 0.279938 0.907092 1.70284
20.4493 16.537 21.5634 -0.0347229 0.404407 0.101437
19.176 17.6753 23.6959 -0.672952 -0.202093 0.26798
17.8792 17.147 21.4351 0.471499 -0.360354 0.248148
22.693 17.9516 21.2408 1.19408 -1.32431 1.16489
22.0221 19.8951 24.9624 0.048226 0.651773 -0.355555
23.9421 18.9519 23.2888 0.2247 0.315634 0.862471
24.5376 20.1152 20.7961 -0.448775 0.896894 0.908102
21.8519 17.4215 23.7459 1.16731 0.634944 -0.212733
19.4754 24.2647 22.4709 -0.480419 1.28068 0.319915
17.2658 23.3926 21.005 0.234134 -0.683577 -0.239159
19.3359 21.6673 21.2576 -2.04304 0.670588 -1.40773
18.0827 22.2139 23.5029 -0.82739 0.414887 0.533547
20.8708 22.1617 23.7671 0.416223 -2.54626 0.0306309
21.7392 23.2054 21.4978 0.866314 -0.866426 -0.882118
23.2129 21.4121 22.7379 -0.323459 0.242642 -0.0465693
24.0586 22.6379 20.4312 0.0741565 -0.873629 -0.520063
ITEM: TIMESTEP
2000
ITEM: NUMBER OF ATOMS
38
ITEM: BOX BOUNDS ss ss ss
1.7014773291748554e+01 2.4735384625531353e+01
1.6213127830814997e+01 2.4256963390444199e+01
1.5600918324931847e+01 2.4925264071858042e+01
ITEM: ATOMS x y z vx vy vz
17.3509 20.1419 17.4194 -0.779821 -0.175142 0.445233
17.0578 18.2151 19.0881 -0.311067 1.74921 0.488421
19.4691 18.2292 17.5704 0.151367 -1.69276 -0.139598
19.6602 19.8656 15.7037 0.241099 1.07406 0.351231
19.5362 19.0235 20.2186 -1.279 -0.906547 -1.15873
18.991 16.2269 19.2992 -1.51331 -0.030391 0.368449
21.4576 17.1657 19.0509 0.481376 0.225064 0.253549
23.8556 18.597 18.8177 -0.830627 0.430881 -0.680654
21.7484 19.3596 17.3542 -0.177077 0.262961 0.969848
17.6871 22.7777 18.7266 0.674278 0.519534 -1.51452
18.5177 22.1542 15.9531 0.375789 -1.2141 -0.179714
19.5927 24.4144 19.8879 0.585334 1.74384 1.69763
19.7194 21.1067 18.2935 -1.24966 -1.53479 -2.10541
17.2061 20.726 20.2151 -0.168271 -2.55263 -0.143228
19.7836 23.881 17.3167 0.694162 -0.362812 -1.11801
21.7622 23.0008 18.7758 1.49379 0.526108 -0.833596
22.0942 20.535 20.0522 0.623735 0.616707 0.164339
21.3591 21.9106 16.2731 0.114127 0.00891711 -0.582891
23.5516 21.1171 17.9488 1.24033 0.0294086 0.806911
20.8579 19.5958 22.4917 1.54326 -1.40362 0.782841
19.3717 20.1038 24.6477 -0.485457 -0.479981 -0.23331
17.9084 19.7408 22.4685 1.04873 -0.305062 1.68067
20.4373 16.483 21.5654 -0.206047 -0.302667 0.18161
19.1869 17.7199 23.598 -0.399257 -0.166476 -0.330239
17.8092 17.121 21.3555 0.648606 1.20194 -0.150077
22.639 18.0745 21.2774 -1.05424 1.72035 0.373343
22.0876 20.0253 24.8799 0.0537797 0.206689 1.10496
23.9035 18.7833 23.4113 -0.0820427 -0.628147 -1.60187
24.6202 20.0374 20.9096 -0.468658 0.850517 -0.172099
21.7224 17.566 23.8947 -0.0782897 0.0829564 -0.947633
19.5241 24.3368 22.5446 -1.03756 0.630797 0.0158012
17.2296 23.3987 21.2861 -1.65625 0.430558 0.768556
19.6803 21.9189 20.9434 0.141782 0.621983 -0.496091
18.0488 22.3209 23.443 -0.244597 -1.96447 0.596565
20.7024 22.1538 23.6816 0.0852447 1.56848 0.0196286
21.7462 23.4314 21.467 -0.355388 -0.311421 0.12992
23.1104 21.1695 22.7573 1.27495 -0.288486 1.72057
24.0234 22.5808 20.4224 0.904879 -0.181471 -0.532393
ITEM: TIMESTEP
3000
ITEM: NUMBER OF ATOMS
38
ITEM: BOX BOUNDS ss ss ss
1.7014773291748554e+01 2.4735384625531353e+01
1.6213127830814997e+01 2.4256963390444199e+01
1.5600918324931847e+01 2.4925264071858042e+01
ITEM: ATOMS x y z vx vy vz
17.4908 20.3069 17.3437 -1.2126 0.0983257 1.48029
17.1284 18.1814 19.0755 -0.500348 -1.19392 0.904247
19.1907 18.1424 17.4498 0.99693 -1.08873 -0.206274
19.6255 19.799 15.6067 -0.466883 -0.518186 -0.706618
19.5628 19.0021 20.0406 -0.94467 -1.16136 0.267533
18.9866 16.2032 19.387 0.219509 0.769485 -0.886081
21.4528 17.2198 19.0905 -0.0545793 0.534069 -0.593582
23.8639 18.5903 18.9378 1.51387 1.94526 0.623707
21.6626 19.3571 17.2885 0.947379 -1.07894 -1.16317
17.5843 22.9853 18.4837 0.526325 -0.398842 0.149271
18.5589 22.2418 15.9791 -0.506693 -0.119408 0.179792
19.5569 24.3069 19.9529 -0.0132589 0.887641 0.368084
19.7498 21.2499 18.3279 -0.645414 0.983585 -1.11287
17.3018 20.7181 20.0178 -1.46119 -0.96821 1.29732
19.798 23.9007 17.3444 0.429641 -1.29562 -0.44101
21.6725 23.0259 18.9415 0.931454 -0.741627 0.516802
21.8663 20.3434 19.9516 -0.0363016 0.906461 0.863104
21.3639 22.0408 16.4067 -0.772888 0.439746 -0.44162
23.6616 21.1397 17.9855 0.815149 0.506297 -0.136401
20.8152 19.4637 22.4446 0.0866259 1.54059 2.13784
19.4558 20.152 24.5694 -0.569142 1.07653 1.04593
17.9614 19.8771 22.4417 -0.861797 0.675179 -0.731324
20.5204 16.5772 21.647 -0.809716 1.43786 -0.237336
19.2865 17.7164 23.8253 0.624866 -0.55432 0.42882
17.8652 17.3962 21.4591 -0.86069 0.654331 -1.26654
22.8507 17.7939 21.1799 -0.296124 -0.207262 -0.431354
21.9903 20.0913 24.9121 -0.153403 -0.338904 -0.153587
23.7622 18.969 23.3454 0.332032 -0.44337 -0.56174
24.6299 19.8941 21.0408 0.427417 1.40554 0.938074
21.9276 17.4542 23.8459 -0.293214 -0.367051 -0.27468
19.3137 24.3647 22.547 1.47713 0.457656 1.15284
17.4274 23.2214 21.1086 2.03851 -0.926061 -0.338932
19.6353 21.5797 21.2043 -0.110701 0.301882 -2.09075
18.0662 22.2954 23.6507 -1.01912 -1.3133 -0.464097
20.7762 22.2746 23.767 -0.59322 -0.234522 0.125603
21.6368 23.5045 21.5016 2.04597 -0.00307139 0.0473317
23.0032 21.3194 22.5202 -0.206763 -0.597225 0.915732
24.0078 22.3104 20.3879 -1.02409 -1.0705 -1.20434
ITEM: TIMESTEP
4000
ITEM: NUMBER OF ATOMS
38
ITEM: BOX BOUNDS ss ss ss
1.7014773291748554e+01 2.4735384625531353e+01
1.6213127830814997e+01 2.4256963390444199e+01
1.5600918324931847e+01 2.4925264071858042e+01
ITEM: ATOMS x y z vx vy vz
17.5113 20.2609 17.3772 -0.373662 -1.23082 0.151653
17.0013 18.2873 19.3121 0.567187 -1.30921 -0.279047
19.1092 18.1072 17.5805 -0.468243 -0.842981 0.172842
19.6274 19.9671 15.7925 -1.46968 -0.655575 0.725444
19.694 19.0224 19.961 -0.757384 -2.24332 -1.69334
18.9417 16.2781 19.3926 -0.806348 1.30657 -0.180593
21.4729 17.3572 19.157 0.487736 -0.213814 -0.405679
23.8238 18.7866 18.8427 -0.973482 0.593398 0.668221
21.548 19.4305 17.4734 -0.906611 -0.914709 1.06144
17.4627 22.9605 18.3217 0.409961 -0.243807 -0.493089
18.5342 22.3921 16.0381 -1.78066 0.840025 -0.690602
19.63 24.0043 19.7777 2.42217 0.940234 -0.550515
19.7422 21.4203 18.3737 -1.5969 0.305395 0.32885
17.3076 20.7478 20.0982 -0.556359 0.806928 -0.263125
19.8345 24.0989 17.2044 1.47452 -0.254363 -1.2268
22.0034 23.0121 18.6661 -0.51095 -0.909753 1.55217
22.022 20.3661 20.0371 0.327068 1.05746 0.789181
21.3351 21.978 16.3047 1.07751 1.73384 0.130086
23.6453 21.1669 17.7946 0.131032 -0.0128863 -0.104638
20.7922 19.5085 22.4138 -0.595634 -0.177315 0.838245
19.353 20.2434 24.6932 2.00614 1.00565 0.784075
17.8261 19.6474 22.4509 -0.138759 -0.781354 -1.31096
20.4958 16.7978 21.6528 -0.359309 0.265497 0.390742
19.1237 17.7997 23.9694 0.940973 0.15843 -0.3882
17.8375 17.2817 21.435 -1.48655 -0.352478 -0.165536
22.8917 17.9778 21.2512 0.632727 1.1496 -0.725744
22.0278 19.9206 24.7637 0.0380085 1.2317 -0.254797
24.1108 18.8694 23.5528 -1.25118 0.924264 -1.28964
24.8079 19.9821 21.188 0.305599 -0.911247 -0.247651
21.932 17.5688 23.7801 -0.212376 0.0197759 -0.236331
19.4014 24.1262 22.5153 -0.591235 0.3966 0.836526
17.2894 23.1826 21.1165 1.08832 -1.03153 -0.323148
19.5874 21.5876 21.1997 1.61947 0.14055 2.08367
17.8891 22.1041 23.3706 0.599788 -1.6276 -1.68267
20.6081 22.2269 23.8852 0.00383655 0.20157 -1.03418
21.7432 23.0937 21.4674 -1.2198 -0.83531 1.01682
22.9797 21.2209 22.6556 -0.284166 -0.353367 0.520566
24.0666 22.2267 20.1432 2.20724 1.82396 1.49576
ITEM: TIMESTEP
5000
ITEM: NUMBER OF ATOMS
38
ITEM: BOX BOUNDS ss ss ss
1.7014773291748554e+01 2.4735384625531353e+01
1.6213127830814997e+01 2.4256963390444199e+01
1.5600918324931847e+01 2.4925264071858042e+01
ITEM: ATOMS x y z vx vy vz
17.5198 20.3041 17.2478 -0.927856 -0.130943 -0.306322
17.1219 18.3468 19.2565 -0.713839 -2.9275 -1.47675
19.2641 18.1624 17.6093 -0.988469 0.115285 1.65825
19.6137 19.8951 15.6883 -0.831525 -1.14729 -0.387168
19.5655 18.9885 20.1142 -0.922683 0.786344 -0.780269
18.784 16.1998 19.4157 -0.709736 0.798842 -0.244754
21.304 17.1461 18.9936 0.0229092 0.29653 0.983152
23.9065 18.7826 18.7735 -2.03895 0.850646 -1.42234
21.5399 19.4221 17.4219 -0.261557 1.06046 -1.44415
17.5633 23.1016 18.3234 -0.595702 0.737555 0.540113
18.6479 22.3025 15.9632 -1.47643 -0.371944 0.153624
19.4158 24.0229 19.8767 0.483527 0.654079 0.601508
19.745 21.389 18.5676 0.691611 0.608181 -0.485275
17.1931 20.7148 19.8664 1.4311 -0.0158455 -0.782723
19.9797 23.8977 17.2685 0.0495265 -0.216493 0.227772
21.9116 23.0589 19.009 0.210181 -1.08984 2.01709
22.0529 20.4682 19.9858 0.192464 1.47955 -1.30977
21.3467 21.7795 16.3126 0.880186 -0.00811937 0.103379
23.6027 21.101 17.9379 0.448626 -0.15144 0.478585
20.8502 19.4779 22.6146 1.33721 0.863037 0.545946
19.3254 20.2431 24.7882 -0.852284 -0.324771 -1.07745
17.8984 19.64 22.3542 -0.914688 0.780904 0.481301
20.2483 16.6321 21.6585 0.991342 0.563394 0.0292771
19.153 17.7306 23.7722 0.395301 2.15251 1.71617
17.787 17.254 21.4987 0.26183 -0.825754 -0.939722
22.6534 18.0121 21.1646 1.14125 -0.00036451 0.965959
22.2262 20.1018 24.8183 -1.16491 -1.18476 -0.285537
23.9456 18.9992 23.2641 1.30937 -0.534222 2.17689
24.6804 19.8732 20.9401 0.655969 0.434408 -0.701546
22.0054 17.5983 23.8584 -0.647293 -0.488935 -0.380138
19.2942 24.1864 22.6374 1.23929 -0.404937 -2.09186
17.337 23.0054 21.0642 0.392606 -0.95937 -0.0704711
19.816 21.6629 21.2747 0.669475 -0.303616 -1.36586
18.0569 22.0313 23.3853 0.339009 -0.257345 0.329576
20.7733 22.2596 23.8488 -0.0804533 0.000885434 0.0161662
21.7579 23.5086 21.6416 -1.11446 -0.596779 0.602223
23.0004 21.3757 22.5511 0.258349 -0.391456 1.88051
24.123 22.3341 20.2432 0.839715 0.149111 0.0446329
ITEM: TIMESTEP
6000
ITEM: NUMBER OF ATOMS
38
ITEM: BOX BOUNDS ss ss ss
1.7014773291748554e+01 2.4735384625531353e+01
1.6213127830814997e+01 2.4256963390444199e+01
1.5600918324931847e+01 2.4925264071858042e+01
ITEM: ATOMS x y z vx vy vz
17.5217 20.1775 17.4183 -0.792769 0.840661 -0.516696
16.9502 18.1295 19.2534 0.185936 -0.582069 0.143265
18.9663 18.0834 17.5513 -1.06179 -2.74555 -1.00694
19.6933 19.9809 15.6745 -0.150923 1.24817 0.303076
19.4135 18.9436 20.1447 0.318058 -0.56374 0.503125
18.9505 16.3554 19.5189 -0.239682 1.14792 0.450836
21.4291 17.5462 18.8887 -1.09044 -1.34621 1.32512
23.795 18.7446 18.6941 0.154738 -0.364513 0.42513
21.5457 19.5417 17.3054 -1.29004 -0.431252 -0.783559
17.7465 22.887 18.3865 -1.50242 1.39273 -0.665543
18.5715 22.1897 16.0287 1.01481 1.03422 -0.480155
19.6306 24.0226 19.8885 -0.768678 0.0424119 0.313682
19.8402 21.1689 18.3343 0.48259 -0.783397 2.19631
17.1771 20.611 20.042 -1.19924 -0.318043 -0.565244
20.0044 23.9573 17.1962 -0.108749 1.75622 -1.42929
21.9241 23.0854 18.8575 -0.234996 1.46155 0.134675
22.0265 20.4844 19.9756 1.38651 -0.0390393 0.582106
21.5568 21.9662 16.3327 -0.379498 0.0239809 -0.269586
23.6837 21.2421 17.8096 -0.539628 -1.21959 0.17289
21.042 19.3624 22.5223 1.08447 0.788472 0.67482
19.1629 20.3641 24.8744 -0.313981 -0.402238 -0.860683
18.1054 19.7588 22.4546 -0.361496 -0.696656 -0.831772
20.3144 16.7764 21.6236 0.772038 0.173152 0.215418
19.3771 17.9219 23.8562 0.9865 0.226983 0.480879
17.6954 17.2964 21.569 0.296667 -1.08237 -0.875756
22.8574 17.9627 21.1454 -1.66007 0.256294 -1.54683
21.8586 19.883 24.9839 1.75008 1.06559 -0.0850269
23.8486 19.0458 23.3735 -0.749385 0.54697 0.752042
24.6239 19.7495 20.9213 0.103636 2.14929 -0.078856
21.9899 17.4241 23.7858 0.0974417 -0.471876 0.500799
19.3259 24.1692 22.6329 1.51084 -0.330508 -1.59009
17.4204 23.0932 21.0103 1.38662 -0.784326 -1.68619
19.646 21.6685 21.2488 -0.165785 -1.42383 -0.737607
17.9121 22.1217 23.5048 0.139174 0.824886 -0.520782
20.6894 22.1917 23.8813 0.153798 -0.176763 0.808473
21.7969 23.4715 21.5041 0.158611 0.218957 3.4716
22.8676 21.3464 22.5326 1.02443 -1.05251 -0.151531
24.0494 22.2854 20.2843 -0.397373 -0.383963 1.22789
ITEM: TIMESTEP
7000
ITEM: NUMBER OF ATOMS
38
ITEM: BOX BOUNDS ss ss ss
1.7014773291748554e+01 2.4735384625531353e+01
1.6213127830814997e+01 2.4256963390444199e+01
1.5600918324931847e+01 2.4925264071858042e+01
ITEM: ATOMS x y z vx vy vz
17.4135 20.2633 17.5383 -0.323908 -0.249901 -1.32378
16.9028 18.2393 19.4975 -0.236454 -0.623544 1.15269
19.1621 18.2796 17.62 -1.2631 -1.63559 0.686405
19.5685 19.991 15.7442 0.298907 -0.095535 -1.20436
19.5152 18.8071 20.1788 -1.53457 0.777801 0.394082
18.7401 16.4158 19.3267 1.35616 0.711037 -0.355621
21.3977 17.2655 18.955 -0.0440781 0.52934 1.60295
23.8271 18.7134 18.7993 -0.908053 0.0200726 -0.55063
21.8732 19.3031 17.1642 -1.19903 0.879921 -1.56041
17.6889 22.877 18.3941 0.819652 -0.591967 -0.270914
18.6046 22.2825 16.0163 0.197393 1.58454 -1.39014
19.587 23.9634 19.9175 -0.183239 1.29269 -0.0491272
19.898 21.1746 18.2566 -0.609261 0.502874 1.01681
17.261 20.7091 20.2021 2.04076 -1.80154 0.620433
20.0359 23.8901 17.2735 1.30916 0.801213 0.484802
22.0304 22.975 18.8196 1.07946 0.304922 -0.604216
22.0423 20.6072 20.0804 0.508157 -0.376152 1.46524
21.4874 21.8603 16.2389 0.263329 0.213778 -2.43818
23.6216 21.1681 17.8534 -0.152252 1.4163 0.132159
20.8497 19.6835 22.5048 0.736417 -0.586994 -0.360801
19.3881 20.1387 24.6496 -0.485847 -1.02048 0.363596
17.8159 19.4728 22.465 0.881853 -0.678333 1.02409
20.4316 16.7564 21.5109 0.951782 0.324297 1.5489
19.1031 17.6531 23.8007 -0.736633 0.154501 -0.330539
17.672 16.9578 21.6086 -0.638126 -0.627529 0.424453
22.7791 18.0874 21.018 -1.31367 -0.221633 0.709365
21.8793 20.0217 24.9975 0.177902 -1.39156 0.979579
23.7141 18.9859 23.3257 0.0157116 1.3668 1.12353
24.6397 20.1132 20.8259 0.010414 1.10258 0.171674
21.658 17.6356 23.8794 0.444251 -0.960485 -0.369498
19.5104 24.1596 22.4778 2.01129 -0.417021 0.103967
17.2669 23.3229 20.984 -1.11148 0.152917 -0.39583
19.5667 21.6104 21.1567 -0.163126 -0.22664 -0.765143
18.1279 22.0907 23.3192 -1.05312 1.25999 -1.18215
20.8138 22.309 23.9835 -0.106625 0.492676 0.0319274
21.8659 23.1362 21.5028 -1.11476 -0.580627 1.49799
23.1379 21.4409 22.9212 0.746789 -0.522426 -2.1787
24.1325 22.6485 20.2021 -0.672074 -1.2803 -0.204587
ITEM: TIMESTEP
8000
ITEM: NUMBER OF ATOMS
38
ITEM: BOX BOUNDS ss ss ss
1.7014773291748554e+01 2.4735384625531353e+01
1.6213127830814997e+01 2.4256963390444199e+01
1.5600918324931847e+01 2.4925264071858042e+01
ITEM: ATOMS x y z vx vy vz
17.3054 20.1714 17.4624 0.863092 1.10106 -1.21006
17.084 18.0566 19.1093 -1.35986 -0.147361 -0.527307
19.2114 18.2109 17.5068 1.19522 1.2269 -0.129984
19.6658 19.9828 15.6636 -0.10528 -1.85156 0.583042
19.448 18.9298 20.0411 -0.00335091 -0.654042 0.447939
19.0286 16.3388 19.3618 1.48446 0.696587 0.987262
21.4301 17.1893 19.0004 -2.17362 -1.47915 1.47789
23.6717 18.6917 18.804 -0.884013 0.391516 0.205531
21.5219 19.5044 17.4823 1.86563 0.336818 0.738412
17.4695 22.8789 18.4164 1.15847 0.874361 0.0928101
18.46 22.0205 15.895 -1.20338 -0.996939 -0.951702
19.6069 24.0676 19.6997 0.42394 1.29901 0.223978
19.6606 21.3831 18.4398 0.629791 -0.0537853 0.33662
17.241 20.5465 19.9928 0.567344 -0.529632 0.869856
19.9103 23.8348 17.1532 -0.26213 1.95912 0.021385
22.1514 23.1245 18.7381 0.71834 0.530142 -2.70898
21.9972 20.5981 20.0678 -0.559347 1.15912 -2.19348
21.5231 22.0036 16.479 0.0835067 0.190501 -0.486041
23.8392 21.2342 18.1333 -0.228411 1.29776 2.20536
20.7858 19.6387 22.4841 1.15229 1.55136 0.94185
19.2018 20.4254 24.7577 0.0165048 -0.503173 1.7473
17.8132 19.8813 22.5823 0.634895 -0.944756 0.822725
20.4945 16.7599 21.5684 -0.868759 -0.0617192 -0.966571
19.2516 17.8411 23.8478 0.11833 -0.310055 -0.00893308
17.7486 17.368 21.6218 -1.44944 -0.323576 -0.0457907
22.8132 17.985 21.0394 -1.91563 -1.80218 -1.94666
21.6581 19.6299 24.862 0.36522 0.314677 1.17838
23.802 18.9586 23.4209 -0.159486 0.8314 -0.267731
24.6198 19.8637 20.9563 -0.855797 -0.540418 -1.00853
21.8136 17.277 23.6972 -0.825664 -0.657291 0.840362
19.5051 24.2231 22.3961 -0.0179993 -1.16725 -0.711775
17.4826 22.9753 21.1842 -0.769166 -1.78455 -1.21405
19.6431 21.6216 21.2696 0.961848 -0.182704 -0.363441
18.0701 22.3984 23.61 0.0750467 -1.06054 0.395731
20.8927 22.2005 23.7029 0.18139 0.129382 0.24359
21.9301 23.4429 21.4872 -1.47307 -0.319876 0.199059
23.1198 21.3068 22.6759 1.64378 0.276019 0.747943
24.1377 22.4452 20.3995 0.975295 1.20483 -0.565987
ITEM: TIMESTEP
9000
ITEM: NUMBER OF ATOMS
38
ITEM: BOX BOUNDS ss ss ss
1.7014773291748554e+01 2.4735384625531353e+01
1.6213127830814997e+01 2.4256963390444199e+01
1.5600918324931847e+01 2.4925264071858042e+01
ITEM: ATOMS x y z vx vy vz
17.3082 20.1191 17.2214 -0.905011 -1.92329 -0.118248
16.8685 18.0512 18.8736 1.95831 -0.348272 1.22923
19.2888 18.08 17.5141 0.810637 0.275196 0.161282
19.6596 20.0161 15.8333 -0.259256 0.849673 -1.53504
19.3112 18.8981 20.0303 0.756122 1.17536 0.0406401
18.9943 16.2739 19.4775 -1.20536 -2.36475 2.04947
21.4441 17.2031 19.0629 -0.472306 0.245278 -1.34797
23.8566 18.3915 18.6524 0.28629 -0.656368 1.07018
21.8062 19.3599 17.1326 0.597742 0.363392 -1.84972
17.5666 22.8692 18.4864 1.13597 0.0779832 -0.824558
18.4287 22.3216 16.1021 -0.0808935 1.0111 1.23617
19.541 24.2869 19.9958 0.810857 -0.308244 0.111928
19.6855 21.1569 18.349 -0.775104 -1.03132 0.0801916
17.1543 20.6412 19.7166 -0.157799 -0.917106 1.42687
19.9452 23.9464 17.5381 0.404566 1.91568 0.841603
21.8965 22.7678 19.0761 -1.77695 -1.50436 -1.55595
21.8924 20.0112 19.9058 -0.779954 1.44246 0.371331
21.5407 21.9527 16.5163 1.40143 0.699676 -1.03275
23.6975 20.9553 18.244 -0.5396 0.957993 -0.625347
20.859 19.5686 22.3916 -0.508796 0.348696 1.44964
19.5028 20.2135 24.6392 -0.561395 -1.04737 -0.330565
18.1139 19.9107 22.2414 0.00516087 1.24902 2.69433
20.383 16.8041 21.6589 -0.0169081 0.279282 -0.637866
19.0203 17.7649 23.6241 -0.290158 0.791297 1.61847
17.6344 17.2657 21.3517 -2.80992 -1.38432 -1.92932
22.8787 17.8933 21.4346 0.949613 0.631069 -0.347018
22.0772 20.2063 24.9493 -0.410691 -0.190517 0.666812
23.7299 19.1869 23.3654 -0.082095 -1.69321 -1.07206
24.5596 20.0471 20.7296 -0.628907 0.585625 0.558739
21.7018 17.6367 24.0478 0.399257 -0.960925 0.115868
19.4187 24.2154 22.665 1.45195 -0.676339 0.452095
17.4482 22.8703 21.2632 0.527688 -0.989337 -0.965223
19.975 21.8197 21.1282 1.93314 -0.70164 -0.0702004
18.1288 22.2624 23.7017 0.423612 0.542679 -1.01398
20.8062 22.3626 23.7524 -2.55476 0.652633 -0.669891
21.8712 23.8142 21.6255 0.286926 1.06164 -0.580665
22.8994 21.3369 22.2783 -0.293423 1.39193 -0.100792
24.1162 22.5287 20.4336 0.970019 0.149694 0.432317
ITEM: TIMESTEP
10000
ITEM: NUMBER OF ATOMS
38
ITEM: BOX BOUNDS ss ss ss
1.7014773291748554e+01 2.4735384625531353e+01
1.6213127830814997e+01 2.4256963390444199e+01
1.5600918324931847e+01 2.4925264071858042e+01
ITEM: ATOMS x y z vx vy vz
17.6178 20.0713 17.3066 -0.327787 -0.220902 -1.52234
16.9809 18.0631 18.7051 0.337572 -1.0642 1.30873
19.2275 17.927 17.2929 1.00049 -0.755322 0.39803
19.6904 20.0924 15.5598 -0.934347 0.345224 1.71755
19.4354 18.9166 19.898 -0.851518 1.50419 -0.422519
18.8777 16.2745 19.4784 0.108273 -0.0382379 -0.587187
21.4017 17.3437 19.1238 0.917895 0.646609 1.0885
23.8678 18.792 18.8766 2.00388 -0.589929 0.554662
21.4186 19.5112 17.5295 -1.00256 1.19988 -0.36274
17.4746 22.7358 18.5773 -1.55827 0.210306 1.5398
18.5091 22.2546 15.9595 -0.41421 0.234562 0.112262
19.465 24.2083 19.7499 1.5402 -0.44898 0.307939
19.6247 21.2417 18.3912 -0.249519 0.960867 -0.880606
17.1315 20.4513 20.0216 -0.809813 0.223638 1.17386
20.0039 23.9433 17.1882 0.898709 0.446834 -1.4832
21.7902 23.1011 18.8399 -0.224758 0.336285 0.663789
22.1418 20.3857 20.0978 -0.0587033 -0.0856034 0.782729
21.506 21.9027 16.4643 0.470453 0.47326 0.236072
23.6261 21.1901 17.9854 -0.994075 0.643135 0.57552
20.8419 19.476 22.3359 0.958915 -1.82179 2.47867
19.3355 20.1205 24.9278 -1.82683 -0.213829 -0.964563
18.1554 20.2274 22.4812 0.425471 0.176184 0.109889
20.3665 16.6849 21.6325 0.975995 -1.35451 0.712614
19.2179 17.8625 23.7914 -0.661833 -1.27526 0.852669
17.8591 17.6995 21.5119 -0.262802 0.467772 -2.60846
22.8466 17.8129 21.2041 -2.01499 -0.170182 0.628443
21.9222 19.9895 24.8537 -1.3315 -0.858275 0.391192
23.9308 18.9913 23.4025 -0.257722 1.31815 -1.55188
24.6571 19.8771 21.006 0.616071 -1.45678 -1.10073
21.8673 17.3851 23.8666 0.699654 -0.568843 0.068828
19.4468 24.0852 22.4897 -1.02386 0.510385 -0.686678
17.2945 22.9696 21.1227 1.0488 -1.0577 -1.00916
19.811 21.8212 20.9797 -0.955324 -1.24838 0.792164
17.969 22.5617 23.8082 0.57027 0.639218 -0.462913
20.645 22.1074 23.8017 1.97251 1.97249 -0.155935
21.9492 23.3154 21.6388 1.35251 -0.292261 -1.36632
23.0223 21.3253 22.7338 -0.739579 0.587659 -1.7211
24.0815 22.2911 20.376 0.602312 0.624335 0.39241
ITEM: TIMESTEP
11000
ITEM: NUMBER OF ATOMS
38
ITEM: BOX BOUNDS ss ss ss
1.7014773291748554e+01 2.4735384625531353e+01
1.6213127830814997e+01 2.4256963390444199e+01
1.5600918324931847e+01 2.4925264071858042e+01
ITEM: ATOMS x y z vx vy vz
17.4603 20.3898 17.5143 1.74959 0.410262 0.762393
17.049 18.3299 19.1519 0.649018 -1.64876 2.35263
19.0756 18.0978 17.5529 -0.575986 -0.0322927 -0.455024
19.7658 19.9514 15.5672 -1.76883 0.696313 0.871362
19.5255 18.9287 20.2159 0.0227343 0.1031 -1.4435
18.679 16.2579 19.4297 -2.18461 -0.634104 0.192824
21.26 17.3853 19.0435 0.0954567 -0.645665 0.924745
23.6821 18.7045 18.8077 0.883856 0.168312 -0.30405
21.7535 19.3081 17.3108 0.00452753 -1.76658 0.493684
17.9471 22.9029 18.444 0.2779 0.957104 -1.12311
18.7234 22.1391 15.8659 1.18824 1.34811 0.946412
19.5287 24.4191 19.8385 0.44252 1.43022 -1.35147
19.8307 21.105 18.3182 0.203026 1.92173 -1.46788
17.2671 20.7826 20.2178 -1.37401 -0.661282 0.443129
19.9931 23.9391 17.2042 -0.811566 0.0696918 -0.0338789
21.7451 23.0751 19.0471 -0.962399 0.674365 0.8648
21.9763 20.4171 20.0312 -1.10893 -0.672394 -1.40319
21.5215 21.8064 16.3817 0.235731 0.122022 -0.507312
23.5457 21.1809 18.063 0.673892 -0.898402 0.653283
20.9955 19.644 22.4217 -0.241297 -0.839344 -0.420254
19.4634 19.9638 24.7828 1.32289 1.60868 -0.53647
17.8616 19.6146 22.376 1.23192 -1.13459 0.609095
20.3611 16.6877 21.5937 0.816946 0.799306 0.176892
18.9992 17.5901 23.8116 -1.44508 -1.00969 -1.09192
17.6713 17.1477 21.561 -1.03439 -2.38259 0.536779
22.8563 17.8911 21.2121 2.75239 0.24124 0.670083
22.0828 20.0154 24.8112 0.203876 -0.719724 0.927239
24.0556 19.0266 23.2773 -1.0717 0.715987 0.654447
24.6346 20.021 21.0251 -0.62243 0.906806 0.721768
21.7543 17.6612 23.8782 -1.40429 1.11549 -1.87486
19.2474 24.1163 22.4707 0.309387 -0.0110929 -0.160373
17.2229 23.253 20.9637 -0.942434 0.0304491 -1.04428
19.7333 21.8036 21.075 1.49953 0.906016 0.802317
18.244 21.8536 23.2341 0.473062 -0.59843 -0.781217
20.8051 22.0531 23.7403 1.07986 -0.387179 0.852672
21.6977 23.6056 21.6642 -0.617455 0.214927 0.454031
23.1712 21.5726 22.7553 -0.727868 -0.946278 -0.484594
23.8231 22.3681 20.3506 0.77693 0.54827 -0.427205
ITEM: TIMESTEP
12000
ITEM: NUMBER OF ATOMS
38
ITEM: BOX BOUNDS ss ss ss
1.7014773291748554e+01 2.4735384625531353e+01
1.6213127830814997e+01 2.4256963390444199e+01
1.5600918324931847e+01 2.4925264071858042e+01
ITEM: ATOMS x y z vx vy vz
17.2786 20.3154 17.6027 1.38525 1.19155 -0.180636
17.177 18.3016 19.5312 -0.81497 1.98188 -2.42304
19.0169 18.1144 17.5728 0.0184606 0.163411 -0.304556
19.6124 20.1125 16.0147 0.176131 -1.56149 -0.210068
19.7297 18.9493 20.0276 0.306436 0.332413 -0.358901
18.9663 16.2531 19.2601 -0.889012 0.450895 0.556354
21.4558 17.0847 18.9801 -0.352861 0.318063 0.347916
23.8514 18.6047 18.9023 -1.25705 1.18164 -0.275599
21.5621 19.2241 17.5751 -1.91188 0.434307 -0.277283
17.5651 22.9371 18.383 0.322021 -0.326194 -1.02606
18.4946 22.3295 15.894 1.25441 -0.0130448 0.962782
19.6729 24.1702 19.6444 -0.344261 -2.0199 -1.39275
19.7163 21.2353 18.3718 -0.631936 0.801792 -0.519818
17.5058 20.9013 20.1494 0.849068 1.35733 0.230174
20.0557 23.9056 17.1244 -0.828565 -0.495148 -0.0316124
21.9682 23.2746 18.6708 -1.48521 0.261827 0.511622
22.0714 20.5919 20.0324 1.01521 -1.84454 0.154933
21.5783 21.8586 16.3735 -0.279137 -1.94331 1.38859
23.5427 21.15 18.0031 0.73194 -0.375963 0.785537
20.8577 19.5032 22.5229 -0.273671 0.933895 -1.96638
19.1817 20.015 24.8076 -0.235894 0.875833 -0.448878
18.0703 19.37 22.2738 1.53198 0.152162 -0.215603
20.3331 16.571 21.5634 0.920247 -0.11566 -0.0313571
19.1384 17.3572 23.746 0.15422 -1.01289 0.154857
17.6493 16.7964 21.5332 1.26455 0.720457 0.481903
22.6618 17.9384 21.1912 -0.772161 -0.706468 0.26696
21.7949 19.9232 24.8736 0.252434 -0.0995833 1.10173
23.749 19.1445 23.3769 0.843546 0.576057 -0.59421
24.3197 20.1323 21.1117 -0.200831 1.59524 2.22744
21.7411 17.3348 23.7943 0.651468 -1.04952 0.118352
19.5567 24.3091 22.5191 -0.439904 0.378261 0.290791
17.6416 23.5187 21.024 0.334899 -1.28267 0.632279
19.9012 21.864 21.1505 -0.981541 -0.805061 -2.06694
18.2778 21.7184 23.2029 -1.10586 1.48429 2.44398
20.7305 22.3371 23.7892 1.37878 -1.86206 -0.697973
21.8373 23.752 21.3908 -0.957165 0.771099 1.97264
22.8048 21.5364 22.6779 0.227985 -1.0813 -0.136056
23.9419 22.5744 20.3476 0.142864 0.632398 -1.47111
ITEM: TIMESTEP
13000
ITEM: NUMBER OF ATOMS
38
ITEM: BOX BOUNDS ss ss ss
1.7014773291748554e+01 2.4735384625531353e+01
1.6213127830814997e+01 2.4256963390444199e+01
1.5600918324931847e+01 2.4925264071858042e+01
ITEM: ATOMS x y z vx vy vz
17.3947 20.2541 17.5799 0.357158 0.155606 0.0343881
16.9515 18.1529 19.1587 -0.699137 2.54661 -0.387895
19.2452 18.2639 17.397 0.481506 -1.01074 0.400309
19.5465 20.2513 15.7084 -0.780171 -0.193937 -0.593818
19.4138 18.9694 20.0039 -0.924507 0.340645 0.175349
18.972 16.2587 19.329 0.284951 1.91987 -0.586509
21.3844 17.3498 19.0031 0.500603 0.22299 -0.0123823
23.748 18.6285 18.9042 0.669484 1.14102 0.201349
21.7917 19.3931 17.2346 -0.700868 -0.032548 -0.197025
17.4856 22.7485 18.4579 0.454552 -1.3654 0.176206
18.3552 22.3173 16.1387 -0.151851 -2.24864 2.18527
19.5359 24.1238 19.7649 0.417373 0.173138 0.313077
19.9251 21.2414 18.2515 -1.39311 0.322333 -2.6495
17.1652 20.6405 20.2602 -0.496939 0.223097 -0.292268
20.1616 23.9495 17.2246 -0.36247 -2.04651 -0.209236
22.0967 23.0364 18.7738 0.819582 0.247266 1.16579
22.081 20.5315 20.0617 -1.05663 0.344656 1.7484
21.6871 21.8975 16.3742 0.196324 0.10441 -1.58809
23.7582 21.2126 18.0593 0.00590902 -0.946708 -0.888325
20.6683 19.5162 22.5679 0.128716 1.85743 -0.7317
19.3867 20.263 24.9487 0.691572 -0.159506 1.17824
17.9843 19.7916 22.6402 0.179642 0.343928 -0.375775
20.2964 16.766 21.4921 0.331604 0.367848 0.183352
19.3033 17.5658 23.8688 -0.594091 -3.19115 -0.35562
17.7841 17.3082 21.4979 2.28987 1.10973 -1.528
22.8518 17.9172 21.3127 -0.377894 -0.27464 0.913634
21.8935 19.8047 24.9099 1.50208 -0.473711 1.00941