ITEM: TIMESTEP
0
ITEM: NUMBER OF ATOMS
39
ITEM: BOX BOUNDS ss ss ss
1.5609644294335663e+01 2.4733424176759609e+01
1.6703342939422051e+01 2.4174736782149449e+01
1.6373911036561303e+01 2.5008778019503307e+01
ITEM: ATOMS x y z vx vy vz
20.1228 19.2318 19.4992 1.95729 -0.88469 -0.459922
19.745 17.0872 17.8599 -0.0890217 1.67604 -1.78517
17.6344 18.2091 19.2625 1.15104 1.01044 0.101576
19.8149 24.0445 20.3601 1.39052 0.46373 0.394636
19.3921 21.8462 18.7813 -1.44436 1.20124 0.822367
18.7638 19.4865 17.0824 0.0982499 0.529796 -0.00388527
17.2463 22.9952 20.1819 -0.969037 2.14094 -2.9102
16.8196 20.7345 18.5559 -0.650548 -0.115825 -0.541516
18.5018 24.1707 17.9561 1.1051 0.461956 0.981636
18.1022 21.9913 16.4103 -1.41131 -0.814885 -2.57492
22.5555 23.5023 20.515 -1.67642 -0.429603 0.587213
22.1092 21.1903 18.9626 0.873461 -0.310762 -0.109429
21.5243 18.9858 17.0695 0.967759 -0.0769334 0.622234
21.9213 17.2077 19.3406 -1.11576 1.0167 -1.00209
21.2085 23.7574 18.0222 0.0765724 0.255318 1.26994
20.7492 21.5723 16.378 -0.335968 -1.40801 -0.117475
23.988 23.0677 18.1949 -2.99915 -1.98638 -0.183641
23.3618 20.938 16.6075 -2.20858 -0.468951 -0.264212
24.5033 21.3836 20.2502 -2.10094 0.38179 -0.0702342
23.8524 19.1212 18.6966 -1.84988 -1.31186 1.43328
18.5448 22.645 22.6198 -2.09275 1.35374 0.222487
18.1386 20.4905 20.9023 0.345331 0.437537 -1.37023
20.0614 18.9686 22.3666 0.743436 -0.854201 1.09532
19.5334 16.7838 20.7448 -0.112724 -0.618801 0.385189
16.1048 21.6039 22.3101 1.98771 -0.463115 0.171562
15.6137 19.4555 20.7089 0.831323 0.405888 -1.41516
19.7844 18.8807 25.0047 0.473574 2.08518 -0.453618
19.534 16.7074 23.5205 0.519827 -1.07835 1.72671
17.8645 20.1449 23.7258 1.48686 -0.809936 -0.24737
17.4231 17.9565 22.0448 2.41881 -1.29445 -0.87578
21.0506 23.8193 22.932 0.857871 0.4303 1.00331
20.6286 21.6377 21.2916 0.79562 0.156615 -0.129234
23.0311 21.759 22.6929 -0.184522 -0.243143 1.34541
22.483 19.6198 21.1001 0.309023 -0.0388716 -0.333914
20.5022 21.1963 24.0237 0.759676 -0.244649 0.778094
24.7293 19.6315 22.4505 0.990657 -0.464867 0.560835
24.1704 17.467 20.8965 -1.39513 0.351841 0.720219
22.3614 19.1288 23.9099 -0.5212 0.197994 1.81332
21.9293 16.9856 22.1727 1.0176 -0.638765 -1.18735
ITEM: TIMESTEP
1000
ITEM: NUMBER OF ATOMS
39
ITEM: BOX BOUNDS ss ss ss
1.5609644294335663e+01 2.4733424176759609e+01
1.6703342939422051e+01 2.4174736782149449e+01
1.6373911036561303e+01 2.5008778019503307e+01
ITEM: ATOMS x y z vx vy vz
20.0625 19.1205 19.2792 -0.334444 -0.530269 -0.459135
19.7315 17.1713 17.831 1.07975 -0.421341 -0.380205
17.6278 18.0989 19.3512 -0.391065 0.267019 -0.537286
19.9505 23.8648 20.382 0.139111 -0.611757 -1.19517
19.2644 21.7135 18.8398 -0.667866 0.466545 -0.153473
18.5871 19.587 17.127 -0.349391 -0.761149 -0.0767224
17.4163 23.0565 19.94 0.804235 0.338793 0.255466
16.6528 20.7123 18.7909 -0.331252 0.25151 1.3524
18.7589 24.157 17.951 -0.0858517 0.55135 -0.0689809
17.9857 22.3073 16.6167 -1.27336 -0.152498 -0.660748
22.7482 23.3617 20.6681 -0.17579 0.683606 -0.451836
22.1939 21.1724 18.7645 1.0836 -0.42033 -0.205133
21.7233 18.8958 17.1006 -0.368436 -0.142483 0.259232
22.0743 17.1893 19.2862 0.904177 -0.414093 -1.29968
21.4467 23.6173 17.9993 0.488636 -0.166255 0.279552
20.602 21.4437 16.4392 0.00488783 1.39573 -1.90826
24.0295 22.7514 18.3655 -0.463523 -0.422429 1.50506
23.0823 21.1633 16.4162 -1.54122 -0.238319 1.01847
24.456 21.2184 20.4681 -0.948879 -0.0208021 0.827158
23.9603 19.2158 18.4181 -1.82657 -0.220611 -0.372324
18.466 22.8682 22.6152 -0.670177 -0.475956 -1.2235
18.0948 20.4836 20.9831 -0.320871 1.43009 1.39696
19.907 18.9549 22.3011 -1.10597 -0.0175192 -0.799615
19.6918 16.7252 20.6051 0.544796 0.00799699 1.46947
16.0961 21.7681 21.9335 0.794419 2.06628 -2.16915
15.7923 19.4016 21.1838 1.80641 -1.26004 1.92372
19.6059 18.8326 24.7963 -0.20153 -0.102436 -0.0662774
19.8122 16.6641 23.4579 1.41693 -1.69014 -2.25151
17.5338 20.1864 23.6198 -0.120049 -0.306997 -0.249287
17.6794 17.8723 22.2867 1.08302 2.86351 -0.951326
21.1089 23.5398 22.9081 -0.86344 1.59272 0.311233
20.7697 21.4804 21.3535 -1.57569 -0.7622 1.28037
23.0322 21.7564 22.8466 -0.189334 -1.08455 1.02594
22.5066 19.5583 20.9914 0.672963 -2.97109 -0.55012
20.0252 21.4288 24.0656 0.645296 1.4424 0.420794
24.4746 19.6047 22.6703 -0.284073 0.156122 1.27482
24.2758 17.8171 20.6971 1.28554 -0.694695 -0.223307
22.1538 19.3952 23.8844 0.270425 0.417738 1.96998
22.0248 17.2493 22.1707 1.06459 -0.0434582 -0.317579
ITEM: TIMESTEP
2000
ITEM: NUMBER OF ATOMS
39
ITEM: BOX BOUNDS ss ss ss
1.5876641416977115e+01 2.4565104768980881e+01
1.6519944286396065e+01 2.4263586321184913e+01
1.6444857993247130e+01 2.4640050568518394e+01
ITEM: ATOMS x y z vx vy vz
20.3012 19.1778 19.4009 1.20398 1.02073 1.2046
19.7676 17.0429 17.84 -0.00725868 -0.57869 -0.857832
17.8763 17.8826 19.7702 1.04005 -0.882738 -0.466819
18.4648 19.4587 17.6259 0.389619 0.734866 -0.219898
21.382 19.1345 16.8699 -0.188413 -1.08454 0.0246974
22.3166 17.5515 18.9896 -1.04663 -1.03796 -0.0315149
23.9915 19.5802 18.0624 1.26998 -1.03744 0.399716
24.4449 18.1204 20.4529 -2.387 -0.661092 0.962531
20.3218 24.1521 20.2824 -2.04296 1.79802 -0.742844
19.5239 21.7544 19.028 -0.626997 0.0527982 -0.292427
17.323 23.1385 19.6518 1.6179 -0.591977 -0.724525
16.1599 20.6908 18.96 0.979447 -1.50526 1.20281
19.3318 24.0147 17.7158 -0.788242 0.237602 1.57648
17.621 22.0687 17.0557 0.655807 1.5926 -0.122719
20.3121 21.6595 16.4149 2.30382 1.30918 0.21833
22.1415 21.0858 19.0299 0.292858 -0.995121 1.42994
21.8769 23.6301 18.1031 -2.10964 1.56246 -0.550775
24.2349 22.4193 18.4531 -0.86791 -1.35079 -0.472352
22.8891 21.3922 16.3698 -0.636095 -1.21821 1.2161
19.814 19.0629 21.9633 -1.4023 -2.36355 -0.957357
20.168 16.7489 20.5528 0.950473 0.912657 0.588716
15.8198 19.1267 21.4424 0.688637 -0.291606 -0.595969
19.2857 18.9404 24.7479 0.183853 -1.03719 -1.50197
17.6108 17.7586 22.7103 -0.737231 0.714395 -0.839008
20.0186 16.805 23.4856 -1.42709 -0.774264 0.588907
22.397 19.573 21.0033 -0.613456 -0.313251 -0.298035
24.2801 19.0685 22.7705 0.406498 -0.547737 0.269633
21.7456 19.1499 23.878 1.25822 -0.102234 -0.83806
22.3311 17.1685 22.068 1.11309 -0.00182003 -0.448923
18.2687 22.8312 22.4486 -0.856579 -0.119801 0.242544
17.9173 20.5625 20.6866 0.351304 0.267528 1.1167
15.8366 21.8257 21.5668 0.604053 -0.191531 0.543542
17.3628 20.4171 23.3854 -1.8487 1.23851 -0.0130335
22.8995 23.1741 20.7381 0.4216 0.422348 -1.50504
24.6639 20.9932 20.5269 0.633768 0.730458 -1.75339
20.9753 23.7478 23.0118 -1.0166 0.712905 0.13213
20.7029 21.6288 21.3636 -1.18606 1.98529 0.834586
22.8995 21.4398 23.0141 1.94357 0.693261 -0.115012
20.127 21.4277 23.9647 1.48063 0.701185 0.795553
ITEM: TIMESTEP
3000
ITEM: NUMBER OF ATOMS
39
ITEM: BOX BOUNDS ss ss ss
1.5876641416977115e+01 2.4565104768980881e+01
1.6519944286396065e+01 2.4263586321184913e+01
1.6444857993247130e+01 2.4640050568518394e+01
ITEM: ATOMS x y z vx vy vz
20.1633 19.1224 19.5748 0.0759353 -0.685644 1.1576
19.7829 17.2398 17.974 1.86135 -0.934244 0.8583
17.5478 17.8993 19.664 0.924447 -1.09969 -0.237393
18.506 19.51 17.5374 -1.33289 0.961864 -0.411955
21.4643 19.2229 17.1633 -0.373559 -0.78574 -0.137739
22.4037 17.5135 18.8823 -0.102856 1.02449 -1.23836
24.0897 19.827 18.1731 -1.52954 -1.13005 -0.892575
24.6585 18.1655 20.186 1.33753 -0.204556 0.895716
20.1545 23.894 20.1722 0.707637 -0.778277 -1.26929
19.1341 21.7696 18.916 1.86912 0.707126 0.0616641
17.4729 23.4192 19.6982 -1.00537 1.29674 -0.360703
16.3719 20.8083 19.0827 -1.76242 -1.67423 -0.760214
19.1703 23.7859 17.3766 -0.934017 -0.438757 0.270429
17.3413 21.9394 17.0133 -0.130949 0.84783 -0.861424
20.1684 21.5643 16.4593 -0.779813 1.56175 -0.0265682
22.0013 21.3208 19.0237 -0.649913 -2.52542 0.674766
21.7779 23.557 17.8438 0.613906 -0.515865 -0.0172875
24.299 22.4409 18.7099 1.12436 1.71688 0.30083
23.0663 21.5335 16.5261 1.24261 1.68336 0.965555
20.1714 19.1849 22.2806 0.0633274 -0.953985 -2.06391
19.9243 16.6659 20.8612 1.07556 0.0259378 2.21225
15.8097 19.2378 21.1253 -2.5514 -0.109259 0.046833
19.2621 18.8165 24.7273 -1.88274 -0.450108 -0.178312
17.8906 17.8426 22.3191 -0.746458 -0.774858 1.26991
20.0067 16.7664 23.4418 -0.165529 -1.14513 -0.232208
22.5312 19.3892 20.8801 -0.0118839 -0.589893 -0.989402
24.1764 19.0506 22.762 0.200669 -0.37024 0.526413
21.8409 18.6981 24.1672 1.92279 0.16066 -1.04205
22.2498 17.0973 21.8517 -1.63678 2.18792 -0.482527
18.3976 22.9425 22.1828 -0.741805 -1.31847 0.592496
18.047 20.4323 20.9914 1.08982 0.81125 1.12289
16.0655 21.9836 21.4185 -1.0869 0.916823 -0.281503
17.642 20.4903 23.5586 -0.313709 0.584882 0.959291
22.8892 23.1538 20.813 2.73711 1.1212 0.600704
24.5898 20.8874 20.7317 0.666218 -1.03943 0.00507226
21.0808 23.8332 22.7909 -0.223014 0.549578 -0.0498764
20.5591 21.7064 21.4337 -0.681281 0.525196 -0.397334
22.6142 21.3477 22.9449 -0.328309 -0.0058229 -0.825634
20.0824 21.3449 24.1464 1.45874 0.846179 0.235556
ITEM: TIMESTEP
4000
ITEM: NUMBER OF ATOMS
39
ITEM: BOX BOUNDS ss ss ss
1.5876641416977115e+01 2.4565104768980881e+01
1.6519944286396065e+01 2.4263586321184913e+01
1.6444857993247130e+01 2.4640050568518394e+01
ITEM: ATOMS x y z vx vy vz
20.1088 19.3378 19.4415 1.12476 -1.45318 -0.128069
19.7682 17.0498 17.9848 1.14652 0.793695 -0.290106
17.6623 18.0816 19.4903 0.265032 0.411163 1.1827
18.5439 19.4606 17.2431 -0.131337 -0.766043 -0.455613
21.3957 19.2035 16.9141 -0.628689 0.201188 0.728336
22.2176 17.5372 19.1377 -0.551866 1.6222 0.743059
23.9771 19.4781 18.1711 2.25033 -0.28631 -0.407275
24.4844 17.963 20.4803 -0.637681 0.760936 0.275649
19.9568 24.4529 20.2371 1.3463 -1.85118 0.601665
19.4508 21.8937 18.9909 -0.986993 1.30937 0.497103
17.4704 23.5346 19.9589 -1.18003 -0.782395 -0.679996
16.6062 20.5069 18.9011 -2.56854 -0.305628 1.09016
19.2031 24.3287 17.7167 0.721611 -0.159554 -0.592237
17.5405 22.3824 17.396 -0.725724 0.0307286 0.258298
20.2689 21.5057 16.4649 0.44755 -0.639857 1.62764
22.0608 21.0653 18.9082 1.70791 -1.58894 -1.33799
21.6007 23.4 17.9574 -0.684928 -0.256717 -2.25275
24.2668 22.3685 18.4961 -1.26147 1.9702 1.94342
23.097 21.2175 16.2811 -0.453616 1.82733 -1.02885
20.0511 19.0373 22.3225 -1.09393 0.407417 -1.14653
19.9192 16.842 20.6912 -0.997205 0.267877 1.54666
15.9026 19.2066 21.2176 -1.53747 1.12702 -0.0188816
19.3308 18.6628 24.831 0.143885 1.17894 -3.02068
17.7566 17.7178 22.1629 0.948519 0.331761 -0.371721
20.0586 16.694 23.5121 -0.150558 0.496089 -0.360925
22.3412 19.4678 21.0721 0.958688 -0.786202 0.013942
24.1958 19.1791 22.865 1.22817 -1.45141 0.2087
22.0165 19.1252 24.0231 -1.0267 -2.2995 0.925028
22.3874 17.0826 22.2581 -0.366237 -0.973184 0.44072
18.4513 22.8921 22.2128 -1.52312 -0.644476 0.220667
18.2212 20.429 20.9424 0.441417 -1.20794 0.852345
16.0602 21.8421 21.5847 1.74147 0.282575 0.318204
17.4947 20.2071 23.5408 1.11542 0.842163 0.18371
22.7052 23.1786 20.5445 0.34698 -0.682722 -0.120912
24.6233 20.7809 20.6001 0.0785834 0.878329 1.02741
20.9117 23.753 22.6467 0.924237 -1.68571 -0.289491
20.5836 21.6623 21.369 0.486733 1.99067 -0.0117716
22.6983 21.6205 22.9704 -0.889305 0.716998 -0.659047
20.0156 21.2566 23.8665 -0.0286969 0.374291 -1.51257
ITEM: TIMESTEP
5000
ITEM: NUMBER OF ATOMS
39
ITEM: BOX BOUNDS ss ss ss
1.5876641416977115e+01 2.4565104768980881e+01
1.6519944286396065e+01 2.4263586321184913e+01
1.6444857993247130e+01 2.4640050568518394e+01
ITEM: ATOMS x y z vx vy vz
20.1748 19.0885 19.4603 -0.469651 0.503421 0.972299
19.4618 17.2217 17.9885 -1.73914 2.23345 -1.09965
17.5547 18.1975 19.4877 -0.147675 0.522797 -0.180276
18.4199 19.7026 17.1441 0.324287 -0.188392 -1.03381
21.2893 19.3907 17.0807 0.0546836 -1.73613 -0.978953
22.1499 17.3525 19.1588 0.0766632 -0.0130452 0.648649
23.9751 19.4073 18.1676 0.450411 -0.59873 0.676298
24.3467 17.9048 20.466 0.558643 0.273474 1.33061
20.1172 23.9885 20.1057 -0.425681 -1.18264 2.12002
19.3948 21.581 18.7222 1.52947 -1.70188 2.35125
17.5867 23.2201 19.7463 -0.748428 -0.103991 0.162023
16.6325 20.7665 18.8236 -0.00554947 1.48637 -0.200348
19.2379 24.0735 17.6009 0.87873 0.276245 -1.79081
17.5251 22.2489 16.9951 1.35916 1.12548 0.474752
20.2751 21.8528 16.4105 0.611935 0.490489 0.278545
22.2024 21.1563 18.9787 1.26059 -0.0427077 1.44048
21.7967 23.6979 18.0528 -2.61735 0.663104 -0.59045
24.2422 22.6021 18.4951 -0.397642 -0.667771 -2.3935
22.9023 21.5005 16.4876 -0.972146 -0.170072 -0.00168277
20.023 18.9994 22.3267 0.14205 -0.509625 -0.69558
19.8256 16.6396 20.7672 -0.207706 1.80581 -1.5843
15.9566 19.2332 21.3945 0.649518 -1.50587 0.308037
19.3932 18.7424 24.951 -1.40896 -0.28036 1.30729
18.0342 17.5882 22.4633 -0.639048 0.309519 -1.13277
20.2461 16.6182 23.6064 -0.309498 1.69848 1.60033
22.3114 19.482 21.0851 -1.47664 -1.57163 -1.61386
24.3121 19.3215 22.8834 0.741267 0.284579 1.8583
22.0667 19.1257 24.0637 0.519657 -0.720101 -0.709222
22.2576 17.0872 22.1514 -0.328834 1.48281 -0.624461
18.3797 22.8161 22.2553 -0.866348 -1.1114 0.512638
18.1788 20.5579 20.8572 1.59144 -0.70557 2.7742
15.9377 21.7931 21.6431 -0.316498 -2.41485 1.02261
17.5476 20.2277 23.4184 -0.335499 -1.1045 -1.86894
22.9031 23.2427 20.7393 1.51034 -0.0968621 -0.744139
24.4436 20.6648 20.5231 0.275992 1.18928 -0.393306
20.9959 23.8708 22.5678 1.05508 -0.405646 -0.328158
20.681 21.7056 21.317 -0.032564 -0.507742 -1.39343
22.5837 21.5042 23.0091 0.405138 0.185491 -0.229924
20.0424 21.2311 24.0097 -0.5502 2.80868 -0.25077
ITEM: TIMESTEP
6000
ITEM: NUMBER OF ATOMS
39
ITEM: BOX BOUNDS ss ss ss
1.5876641416977115e+01 2.4565104768980881e+01
1.6519944286396065e+01 2.4263586321184913e+01
1.6444857993247130e+01 2.4640050568518394e+01
ITEM: ATOMS x y z vx vy vz
20.1049 19.2662 19.4757 0.628338 -0.589914 0.00788592
19.5049 17.3005 17.753 0.383239 0.447796 -1.90082
17.653 18.1172 19.604 0.636612 -0.277937 0.671483
18.3655 19.5837 17.2155 0.969111 0.191738 -0.537923
21.4392 19.3045 17.1993 -1.07797 1.1322 1.5667
22.228 17.5123 19.3051 -0.999399 2.23422 1.4777
23.8416 19.5366 18.1223 -0.249138 0.159621 -0.443806
24.5548 18.1323 20.5133 -1.02186 -0.538514 0.332642
20.031 24.1205 20.2125 0.423582 -2.31887 1.10466
19.4542 21.8622 18.848 0.275312 -0.489882 -0.156447
17.3815 23.2519 19.6363 0.284413 -0.625178 0.234528
16.501 20.8853 18.9169 0.370128 0.421139 -0.302614
19.198 23.8536 17.2787 0.656686 -1.14371 -1.94556
17.513 22.0332 16.8064 -1.35906 -0.376217 1.00438
20.0994 21.5113 16.2304 0.545373 0.776108 0.112192
22.1733 21.2397 19.0338 -0.860805 1.22416 -2.59826
21.6983 23.7461 18.1789 1.40704 -1.02207 0.24151
24.1761 22.5249 18.3594 -0.736641 1.45801 0.419412
22.7532 21.6015 16.3994 0.326476 -0.798127 0.350126
20.1058 18.9998 22.3381 -1.82663 -0.360287 -0.814073
19.8905 16.7612 20.7909 -0.582499 3.37654 0.359805
15.945 19.2504 21.326 -0.0821783 1.1602 0.88573
19.0973 18.8516 24.7153 0.433502 1.57071 -1.34743
17.7399 17.7143 22.5187 3.23964 -1.56633 1.72815
20.2258 16.7377 23.5104 0.407018 -0.614838 0.398159
22.4548 19.5103 21.1166 1.58308 -0.454378 -0.788405
24.4123 19.1697 22.8804 2.09035 -1.04004 0.116118
22.1436 18.8164 24.0956 0.133047 -1.29953 0.126018
22.4169 16.8563 21.9338 -1.35606 -0.352383 1.26226
18.4837 22.8417 22.2525 0.610785 -1.79922 0.00726249
18.1038 20.4265 20.9057 -1.57482 1.27302 0.34677
16.0475 21.9925 21.6054 0.892705 0.662561 -1.26308
17.4932 20.4503 23.5236 0.0218272 -1.81006 -0.277465
22.9035 23.1199 20.756 -0.669032 0.731385 -2.21527
24.5979 20.8996 20.6289 -2.53109 -0.733975 1.38827
21.1233 23.5355 22.93 0.182853 -0.261949 1.41983
20.6763 21.6727 21.3073 0.0936937 1.57243 -1.17686
22.7341 21.3608 23.2471 -0.18007 0.589403 -0.164357
20.1389 21.0538 23.9337 -1.48757 -0.50782 0.370771
ITEM: TIMESTEP
7000
ITEM: NUMBER OF ATOMS
39
ITEM: BOX BOUNDS ss ss ss
1.5876641416977115e+01 2.4565104768980881e+01
1.6519944286396065e+01 2.4263586321184913e+01
1.6444857993247130e+01 2.4640050568518394e+01
ITEM: ATOMS x y z vx vy vz
20.1184 19.2541 19.5233 0.732178 0.69952 0.0131141
19.7918 17.2485 17.9182 0.165569 -1.31679 2.55871
17.532 18.0647 19.4766 -1.15131 -0.0449673 1.02542
18.4216 19.5825 17.2545 0.842662 -0.614327 -1.27577
21.3283 19.2008 16.9743 -1.57037 0.652136 -0.258023
22.187 17.3501 19.1854 -1.15554 0.59742 -0.357202
23.8736 19.2998 18.2208 1.41821 1.86837 0.501861
24.6927 18.08 20.3171 -0.0189319 -0.667277 0.0766403
19.9132 24.1182 20.3586 -0.264409 -2.35204 -1.03909
19.2409 21.8215 19.0543 -0.0295534 0.504891 0.620274
17.1555 23.3463 19.488 1.48051 1.70842 0.601832
16.4933 20.5543 18.9594 2.51957 -0.248793 -1.96497
19.241 24.1262 17.6526 0.551938 -0.913064 -0.165213
17.3145 22.2939 17.0666 -0.865954 -0.0262504 0.492224
20.1366 21.6555 16.5712 -1.04627 1.64123 -0.221091
22.043 21.1371 18.8303 0.0493919 1.30952 -0.415107
21.7624 23.6283 18.0954 -0.300321 0.533782 -0.728959
24.2503 22.3354 18.4781 0.0371732 -0.210009 0.497299
22.7907 21.6325 16.3508 -0.0210438 -0.873923 1.45755
20.0684 19.0571 22.3119 -2.13392 -1.168 0.231613
19.8452 16.8153 20.7266 1.08525 -0.50195 -1.69244
15.769 19.194 21.1983 0.128521 -0.136847 0.287194
19.345 18.7055 25.0029 -0.144376 0.202833 0.50666
17.6857 17.9929 22.4597 1.6053 1.34385 0.565093
20.0221 16.8772 23.572 0.378039 -1.52735 0.2945
22.6418 19.6097 20.9026 -0.730247 0.624019 -1.37405
24.564 19.1523 22.8351 -0.842032 -0.915433 -0.146834
22.0143 19.0732 23.9607 0.0834697 1.1461 0.0585273
22.5425 17.2911 22.1152 -0.36445 1.43596 0.236045
18.3267 22.9955 22.0001 0.0174995 -0.921926 0.0103173
18.1288 20.4588 21.0864 -0.306338 -1.74529 0.699493
15.7854 21.8002 21.2745 -0.355549 1.61803 0.750692
17.2879 20.227 23.3871 0.775616 -0.215062 -0.80624
23.1093 22.9316 20.8198 0.407615 -1.01707 -0.475676
24.8101 20.8376 20.7632 0.689648 -0.639774 -0.945065
21.3867 23.387 22.8667 0.017228 -1.09958 0.579245
20.8043 21.5338 21.2893 0.593988 -0.855002 -1.06772
23.059 21.4619 23.1094 -2.10141 2.08853 0.939802
19.9223 21.2734 23.9482 -0.177362 0.0361192 -0.0706702
ITEM: TIMESTEP
8000
ITEM: NUMBER OF ATOMS
39
ITEM: BOX BOUNDS ss ss ss
1.5876641416977115e+01 2.4565104768980881e+01
1.6519944286396065e+01 2.4263586321184913e+01
1.6444857993247130e+01 2.4640050568518394e+01
ITEM: ATOMS x y z vx vy vz
20.2543 19.1168 19.4985 -0.356676 -2.61877 1.38748
19.5561 17.2231 18.0416 -0.903028 -0.563685 -0.200003
17.6513 18.366 19.5994 0.644196 1.05472 0.347029
18.3662 19.3518 17.2955 -0.439951 -0.816084 1.56088
21.3977 19.2086 16.9821 0.154644 0.649649 1.47779
22.3799 17.5422 19.0349 0.119746 -1.12751 0.257673
23.921 19.6319 18.3197 -0.87481 1.40235 1.17893
24.6388 18.1549 20.4336 -0.481288 -0.926119 0.879583
20.3314 23.9342 19.6694 -1.00449 1.08167 -0.33762
19.1047 21.6553 18.6715 2.68604 0.828871 -0.140368
17.4996 23.3286 19.9094 -0.478854 -0.0349605 -0.158239
16.3007 20.8327 19.0951 -2.41836 0.546373 -2.36906
19.1176 23.8977 17.3931 -1.14123 0.951602 -0.322553
17.5167 21.9063 16.8482 1.39433 0.113821 0.528822
20.2237 21.6229 16.2296 -0.644853 1.63461 -1.67101
21.7837 21.3155 18.6099 0.503973 -0.85562 -0.565968
22.0042 23.7019 17.6158 -0.651317 -0.766716 1.07945
24.1591 22.3207 18.6159 -0.645196 0.591523 -0.122645
22.8769 21.5288 16.2236 2.0318 0.228145 -0.651315
20.3297 19.0902 22.2707 -1.51748 -0.960157 -0.149259
19.9602 16.8059 20.778 -1.30758 -0.773005 -1.27581
15.7512 19.4616 21.3582 0.747037 1.94084 0.609528
19.1777 18.6489 24.7487 1.40436 -0.9894 0.00257387
17.8182 17.7119 22.2743 1.12808 -0.22837 -0.452261
20.2597 16.7574 23.3977 -0.0761177 1.98224 0.834731
22.6815 19.806 20.7628 1.2847 0.893465 -0.173335
24.1593 19.0089 22.9806 0.579894 0.976476 -0.656275
21.8397 18.7518 24.506 0.218454 -1.34206 -0.956948
22.4547 17.2209 21.8426 0.718832 0.661457 1.07956
18.4821 22.9113 22.6501 0.804583 -1.64294 -0.456101
18.1511 20.5484 21.0986 -1.62224 -0.600549 0.601795
16.1073 22.0618 21.8222 0.787533 -0.401908 0.66838
17.345 20.3302 23.5561 0.00766518 1.08928 -0.868801
22.7324 23.045 20.5962 -0.774482 -1.73502 0.566901
24.7336 21.0332 21.1583 1.52282 0.37884 -0.710289
21.0851 23.498 23.046 -0.544262 -0.230435 0.642106
20.6451 21.7726 21.3714 -1.88536 -2.3724 0.329603
22.6542 21.2248 23.211 1.30222 0.639155 0.148508
19.9537 21.0761 23.8889 -0.273315 1.34061 -1.94348
ITEM: TIMESTEP
9000
ITEM: NUMBER OF ATOMS
39
ITEM: BOX BOUNDS ss ss ss
1.5876641416977115e+01 2.4565104768980881e+01
1.6519944286396065e+01 2.4263586321184913e+01
1.6444857993247130e+01 2.4640050568518394e+01
ITEM: ATOMS x y z vx vy vz
20.2942 19.131 19.4014 1.47795 0.927459 -0.764528
19.8482 17.0421 18.0724 -0.717598 -0.0452833 1.50819
17.6317 17.6868 19.5914 -2.11155 0.102109 -1.30787
18.4978 19.7117 17.5516 -1.26427 -2.49934 -0.3959
21.2925 19.2268 17.0502 -1.48399 1.07996 -0.440083
22.3829 17.2655 19.1698 1.62336 0.642925 1.1614
23.8302 19.4698 18.3786 0.856839 0.409995 -0.200757
24.6645 17.9594 20.4374 -0.882733 0.823579 1.19906
20.0537 24.0278 20.2777 1.24546 0.255641 -1.52988
19.2669 22.0205 18.7359 -1.88932 -1.23664 -1.31541
17.3189 23.2122 19.8471 0.840258 -0.4526 -0.55698
16.1458 20.842 18.9423 -0.0935703 1.39211 0.441793
19.1192 24.5976 17.7412 -0.515194 1.48511 -0.349215
17.4869 22.4006 16.9963 -0.850948 0.915218 -0.233577
20.3971 21.9166 16.4125 0.00696794 -0.873206 -0.702024
21.8363 21.3808 18.8159 1.19319 0.158474 1.45497
21.6671 23.7015 17.7567 0.0364729 0.299888 -0.89024
24.3733 22.2344 18.2372 -0.217615 0.124259 0.200544
22.9744 21.2355 16.3998 -0.322697 -1.09935 0.470922
20.1059 19.1389 22.3238 -0.486141 0.58326 0.778133
19.9887 16.8242 20.9137 1.80304 -0.318492 -0.20405
15.9414 19.15 21.1533 1.13272 0.896971 -0.295007
19.0765 18.9753 24.8824 -1.74681 0.323401 -1.38848
17.8501 17.6646 22.3579 1.30648 -0.626508 0.778546
20.2453 16.8258 23.7036 0.819198 -0.347817 -0.374999
22.4421 19.4785 20.8099 -0.312357 -0.135454 -0.535092
24.3004 18.9583 22.8648 1.15251 0.576701 -0.998199
21.8642 19.0137 24.2159 -1.38926 -2.11485 -0.483556
22.4299 17.115 22.0984 -0.443846 -0.659632 -0.0216459
18.4828 22.7377 22.3603 0.233847 1.80643 2.04029
18.149 20.4758 20.5338 -0.871984 -0.9041 1.68926
15.9574 21.7577 21.5657 -0.0715467 0.785433 -0.366922
17.5177 20.2614 23.3496 1.51157 -2.09839 0.498734
22.8677 23.1642 20.7099 1.17226 -2.06142 1.66456
24.4675 20.8785 20.6742 2.11078 1.37416 0.164073
21.1762 23.5653 22.7768 0.405608 0.704257 -0.708449
20.6922 21.5836 21.2461 -0.40092 0.316211 -0.636415
22.7638 21.3528 23.0342 -0.392795 -0.166821 -1.03301
20.0047 21.4208 24.0151 -2.46337 -0.343624 1.68182
ITEM: TIMESTEP
10000
ITEM: NUMBER OF ATOMS
39
ITEM: BOX BOUNDS ss ss ss
1.5876641416977115e+01 2.4565104768980881e+01
1.6519944286396065e+01 2.4263586321184913e+01
1.6444857993247130e+01 2.4640050568518394e+01
ITEM: ATOMS x y z vx vy vz
20.1951 19.0947 19.583 0.662463 1.25275 0.106042
19.7347 17.1501 18.1705 -0.00135038 -0.0129926 -0.0771027
17.7089 18.1783 19.5898 0.723955 -0.112242 -0.934006
18.5593 19.6624 17.5521 0.97038 -1.43723 2.4099
21.5495 19.1613 17.0965 0.321302 -0.0320002 0.382407
22.4031 17.33 19.1214 -0.219176 -1.10333 -0.514526
24.098 19.4463 18.2931 -1.31145 0.539638 0.29446
24.5461 18.0241 20.464 0.599349 -2.03879 1.05642
20.0474 24.1781 20.1962 -2.34251 0.586977 0.612621
19.2066 21.8353 18.9143 1.22924 0.950437 -0.963185
17.2703 23.1517 20.0737 -1.24047 0.116651 1.01952
16.3716 20.8616 18.8343 -0.419297 -0.581856 0.911983
19.2146 24.1991 17.7451 -0.480771 0.252616 0.548748
17.7068 22.1552 16.8575 -0.248419 1.98464 0.390289
20.3035 21.6833 16.1743 1.1115 1.33702 -0.974481
21.8733 21.1531 18.6342 -0.235916 -0.537966 -0.415379
21.6534 23.6136 17.9402 0.510575 -0.330345 1.19425
24.2187 22.4556 18.5515 -1.16854 0.341032 0.691818
23.1351 21.3463 16.5652 -1.9675 -0.674148 -1.60533
19.8369 19.1146 22.3987 -0.357175 -0.253689 -1.5037
19.8724 16.6549 20.7998 0.614639 0.293282 -0.58752
15.9124 19.121 21.3103 -0.606806 -0.669199 -2.37124
19.075 18.7214 24.8937 0.982944 -0.341452 2.45514
17.7248 17.7281 22.5539 0.555311 0.505163 -0.313498
20.1339 16.6823 23.4833 0.890156 0.10261 1.08931
22.5072 19.5336 20.7741 0.509897 -1.43886 -0.880825
24.223 19.1932 22.7544 -0.47896 -1.26288 -0.564381
21.7131 18.929 24.0118 -0.811317 1.46803 1.40982
22.3086 17.1345 21.95 0.135502 -2.72782 0.728339
18.5211 22.8439 22.2013 0.176614 0.772136 -2.20264
18.1184 20.5064 20.8651 0.218358 -1.01593 -0.524248
15.9498 21.841 21.8117 -0.856298 1.03305 -0.878578
17.5044 20.3711 23.3823 1.38188 -0.0527998 0.171843
22.7806 23.3541 20.5089 0.390729 2.79085 0.338441
24.618 21.041 20.7028 -0.937923 -0.812256 0.713088
21.1036 23.6093 22.7597 0.391698 1.20875 -0.408672
20.6679 21.7454 21.166 0.111746 -0.962669 -0.758158
22.7882 21.2671 22.772 1.17059 0.00161412 -0.0649053
20.2496 21.3333 23.9482 0.0250516 0.861189 0.0179242
ITEM: TIMESTEP
11000
ITEM: NUMBER OF ATOMS
39
ITEM: BOX BOUNDS ss ss ss
1.5876641416977115e+01 2.4565104768980881e+01
1.6519944286396065e+01 2.4263586321184913e+01
1.6444857993247130e+01 2.4640050568518394e+01
ITEM: ATOMS x y z vx vy vz
20.1799 19.1262 19.5868 -0.0225096 -0.505129 0.6998
19.6031 17.0778 18.2768 -0.843101 -0.339289 -0.950025
17.5794 17.8563 19.7872 -0.859391 -0.416773 0.885571
18.2816 19.5369 17.676 0.321141 0.203573 0.253495
21.6225 19.2088 17.191 -1.62103 1.21717 -0.88569
22.288 17.5229 19.2141 0.240742 0.850909 -1.31003
24.0271 19.9386 18.3307 1.13083 0.0479085 1.57078
24.558 18.2135 20.3554 0.723183 -0.384014 -0.706705
20.4532 23.9235 19.9929 -1.32934 -0.728122 0.0938017
19.2169 21.7787 18.8034 -0.788025 -0.34334 0.786894
17.1955 23.0181 19.8212 -0.0302479 0.00714809 0.728499
16.2594 20.6615 19.0392 -1.18678 -0.897966 -0.907287
19.4749 23.8688 17.447 0.161938 -0.80415 -0.507306
17.528 22.2798 17.0133 -0.746104 -1.24091 0.875417
20.3975 21.5953 16.3334 0.990361 -1.21172 0.0839963
21.9312 21.3402 18.7255 -0.298716 -0.226791 1.03116
22.0982 23.5748 17.9413 1.87291 -0.0573034 -0.492763
24.6846 22.6082 18.2518 -0.581596 -0.970706 -1.32796
23.0859 21.7017 16.277 0.34537 -0.390259 -1.20217
19.9408 19.037 22.1795 -1.21374 -1.02275 0.126404
19.8897 16.6164 20.8242 1.15307 -0.135716 0.948776
15.7079 19.4971 21.3085 1.62092 1.33852 -0.977608
19.2287 18.7763 24.6343 0.118377 -0.435511 -0.811678
17.6974 17.7461 22.493 0.866545 -0.397401 -1.31722
20.3132 16.6321 23.4799 -0.706631 -0.843796 -2.37626
22.4843 19.7615 20.9888 0.810292 0.551475 0.948059
24.2065 18.8411 22.8293 -1.62578 -1.10965 -0.311542
21.7656 19.0001 24.0347 -0.704847 -0.328797 1.57594
22.3166 17.1864 21.8114 1.55375 -0.171244 0.518387
18.4883 22.8711 22.3377 -0.556593 -0.204137 -0.0261001
18.0497 20.4338 20.9037 -1.34529 1.4315 0.839649
15.9017 21.9702 21.863 1.27969 1.72146 1.67297
17.2856 20.3187 23.4091 -0.752367 -1.05935 -0.0295782
22.9177 22.8369 20.6411 0.834467 0.577505 0.800286
24.7099 21.0861 20.5041 0.620064 1.66893 1.12148
20.9951 23.715 22.7427 -0.503588 1.4604 0.481784
20.4542 21.5588 21.2633 0.29414 0.963803 0.533434
22.5589 21.5126 23.1141 -0.00127666 0.141826 -0.474764
20.0283 21.1761 23.9786 0.779161 2.04269 -1.96188
ITEM: TIMESTEP
12000
ITEM: NUMBER OF ATOMS
39
ITEM: BOX BOUNDS ss ss ss
1.5876641416977115e+01 2.4565104768980881e+01
1.6519944286396065e+01 2.4263586321184913e+01
1.6444857993247130e+01 2.4640050568518394e+01
ITEM: ATOMS x y z vx vy vz
20.238 19.212 19.5439 -0.307131 -0.387453 1.01295
19.8728 16.9417 18.2212 0.818163 -1.08317 -0.181902
17.7737 18.0456 19.6005 -0.191931 1.24562 -0.221528
18.4882 19.6642 17.6832 -1.54692 0.232231 0.485026
21.3474 19.0321 17.1588 -1.25942 0.377383 -1.47565
22.2019 17.3592 19.1985 0.393774 0.814643 -0.585396
23.9712 19.5312 18.3445 0.700551 -0.369001 -1.94398
24.6038 18.0383 20.4341 0.427055 1.12969 -3.11341
19.9993 24.1988 20.2828 1.65012 -0.409239 0.466215
19.5069 21.909 18.8431 1.04555 -0.13272 0.225321
17.3086 23.0965 19.6184 -0.0646325 -2.4549 -0.799005
16.4157 20.7526 18.8276 -1.19489 0.475839 -0.429047
19.2138 24.1881 17.8161 1.20243 -2.36444 -0.591382
17.5662 22.1457 17.0591 -2.15894 0.698855 0.952127
20.2169 21.561 16.329 -0.411619 -0.149013 0.675715
21.9893 21.2524 18.9588 1.37482 1.40036 0.599756
21.8598 23.7976 18.045 0.544748 0.110856 -1.20326
24.1982 22.5967 18.383 -1.57468 -0.238024 2.02054
22.8459 21.5299 16.5654 2.54666 -1.36247 1.20244
19.954 19.171 22.3939 0.749201 3.14407 -0.397538
20.0493 16.8319 20.9512 1.34165 -0.869294 0.152045
15.7939 19.1714 20.9661 0.0610858 0.251503 0.358122
19.1197 18.7321 24.8181 -0.525189 0.347091 -0.735359
17.5201 17.7765 22.3303 -0.148824 -0.20468 0.363384
20.0339 16.8512 23.6416 -1.07453 1.09713 -0.173909
22.5006 19.4421 20.8006 -1.31075 -1.49861 0.498598
24.2662 19.0183 22.6966 -0.511226 1.03606 0.19471
22.0431 19.0807 24.0145 -1.14182 -0.509213 -0.59975
22.2994 17.189 22.0761 -0.13195 1.11631 -1.63039
18.4403 22.82 22.2507 -1.09641 -0.681684 0.312713
18.0589 20.4968 20.8497 1.09649 -2.89687 1.33534
15.8295 21.7456 21.4411 0.772549 -0.879351 -0.623793
17.5141 20.3851 23.3198 -0.0704249 1.46748 1.02975
22.7079 23.3127 20.5905 0.673872 -0.416407 0.508464
24.7441 20.8193 20.454 -1.19757 -0.0639216 1.58092
21.2555 23.5192 22.8217 1.07033 -1.45228 1.77433
20.6252 21.6229 21.2555 0.232772 1.09082 -0.192559
22.8608 21.3987 22.7101 1.12198 0.950094 -0.728795
20.1709 21.1679 24.11 -1.90493 1.43671 -0.121798
ITEM: TIMESTEP
13000
ITEM: NUMBER OF ATOMS
39
ITEM: BOX BOUNDS ss ss ss
1.5876641416977115e+01 2.4565104768980881e+01
1.6519944286396065e+01 2.4263586321184913e+01
1.6444857993247130e+01 2.4640050568518394e+01
ITEM: ATOMS x y z vx vy vz
20.1241 19.1574 19.4331 -0.954101 -0.395855 0.116175
19.7582 17.1377 17.8093 -1.23604 0.351518 -1.71621
17.7868 18.0266 19.8881 1.84467 -0.473728 -0.481834
18.3115 19.2731 17.3482 -0.853918 1.06772 0.778064
21.0959 19.4615 17.0428 0.227593 1.00153 -0.702256
22.3833 17.6346 18.9942 0.0242741 -1.44901 -0.171236
24.0219 19.5642 18.4505 -2.00596 1.20772 -0.337739
24.4846 18.1529 20.6061 -0.669864 0.599934 -1.05779
19.9719 23.9238 20.1187 2.04765 -0.545134 0.560554
19.4596 21.6626 18.5761 -0.400689 -1.61877 0.0402507
17.3791 23.2255 19.5204 1.78957 -0.21174 -0.0019612
16.5107 20.9682 18.8807 -0.922422 -1.63502 0.0470661
19.132 24.1022 17.3898 0.649332 -0.333707 1.1267
17.4852 22.317 16.9195 1.2988 -1.92017 0.61729
20.259 21.8844 16.2446 2.24736 0.0857287 2.61803