ITEM: TIMESTEP
0
ITEM: NUMBER OF ATOMS
40
ITEM: BOX BOUNDS ss ss ss
1.5894261972722557e+01 2.4837786907887850e+01
1.5702988101833913e+01 2.5003001609749539e+01
1.5714611991089438e+01 2.4960838689388126e+01
ITEM: ATOMS x y z vx vy vz
18.7199 19.2823 17.2208 1.09176 0.896078 0.32355
16.5592 18.9788 19.0147 0.0590999 -0.486878 1.21982
18.701 16.9587 18.6484 -0.418745 -1.49352 -0.0210124
20.4434 18.3073 20.2044 -1.5184 -0.403703 0.51345
23.1778 19.5108 16.7104 0.751891 0.00780144 0.555618
21.3955 15.9207 19.0282 1.10122 -0.791679 1.25305
23.0418 18.1301 19.193 -2.99554 -1.85249 -0.357545
20.8456 20.2042 15.7187 -2.10288 0.257779 -0.348311
21.0332 17.8792 17.2506 -0.165839 0.147048 1.74655
16.8716 21.2178 17.3935 -0.361503 1.44372 -1.76617
18.532 20.6189 19.6527 1.40427 0.39319 0.441588
17.9178 23.2885 18.9433 1.95617 -0.554158 0.380087
19.4952 22.0372 17.1356 -1.05902 2.06478 -2.72974
15.8983 21.632 19.799 -1.46558 0.089125 0.416542
21.2235 20.3834 18.555 -0.151699 0.595846 0.10069
22.3099 22.207 16.9789 0.900021 -0.211769 0.702324
20.6212 24.1329 18.4687 0.879366 -0.658838 -1.42958
24.0933 20.6126 18.9345 0.751498 2.28026 -0.436595
22.902 22.9638 19.559 1.5583 -0.626103 -0.168478
19.8848 17.3244 23.0285 2.05005 -0.764009 -0.343062
16.6959 20.1765 21.859 0.791625 -0.428798 -0.20925
17.8589 17.8342 21.1547 0.0108221 -0.671953 0.52088
19.5753 20.0124 22.1994 0.861087 0.524045 -1.07159
19.6032 15.7071 20.9239 -0.514629 -0.0429223 -0.13632
17.6704 18.73 23.8476 1.07296 0.505879 1.18342
19.9734 19.3386 24.9568 -2.39083 -0.306502 -0.432999
22.1325 18.8022 23.3206 0.960971 0.39739 -0.0957866
22.2509 16.7785 21.4964 0.54743 0.128405 -0.368108
24.2965 18.9287 21.5093 1.20061 -0.211612 0.291195
18.4131 21.4671 24.0757 1.01438 0.477501 0.934462
20.347 22.4834 20.5846 0.25878 0.516092 -1.28211
20.008 23.7068 22.9644 -1.71813 1.33117 0.78249
17.7783 22.652 21.6727 -1.79243 -0.823624 -2.47337
18.984 24.9528 20.7372 0.434175 -1.09098 1.61808
22.2485 20.5667 21.1744 -1.92073 1.54473 0.343377
24.8337 21.709 21.2253 -1.29743 1.3283 -1.17561
21.5965 24.9989 20.8893 -0.311098 0.390016 1.06219
23.8903 20.8188 23.5102 -1.99602 -0.989348 1.15826
22.7437 23.0877 22.3583 2.34843 -1.01416 -0.775819
21.233 21.458 23.9023 0.175569 -1.8961 0.0738387
ITEM: TIMESTEP
1000
ITEM: NUMBER OF ATOMS
40
ITEM: BOX BOUNDS ss ss ss
1.5894261972722557e+01 2.4837786907887850e+01
1.5702988101833913e+01 2.5003001609749539e+01
1.5714611991089438e+01 2.4960838689388126e+01
ITEM: ATOMS x y z vx vy vz
18.758 19.3566 17.2901 -0.344428 -0.658354 0.094086
16.5692 18.855 18.968 0.568528 -0.420694 -0.661763
18.8365 16.8734 18.606 -0.129282 -0.650874 0.660039
20.328 18.4864 20.0484 -0.512828 -2.56145 0.514508
23.0829 19.6611 16.7744 -1.8126 0.0202938 0.84449
21.5742 16.005 19.0643 -0.326189 -0.8619 -0.795178
23.1093 18.0645 19.1268 0.154448 2.06039 0.878772
20.8579 20.3365 15.843 -0.428752 0.582375 -0.63777
21.0658 18.0283 17.368 0.256313 0.733753 0.697668
16.8317 21.0894 17.5742 0.389656 0.678652 -0.81008
18.4408 20.4987 19.7025 -1.07538 0.859942 0.0517453
17.805 23.2896 19.0131 0.5936 -1.38132 -1.04164
19.4163 22.1762 17.221 -1.60132 -0.81011 -1.46511
15.8096 21.5334 19.9534 -1.0582 0.0952624 -1.25357
21.2751 20.5664 18.6122 -0.403023 -0.70784 -1.02357
22.2114 22.3215 16.8129 1.04656 -0.618338 -0.567669
20.6369 24.0178 18.5107 -0.163203 2.45052 -0.028996
24.1459 20.4563 19.1002 0.317129 -1.11715 0.495342
22.8928 22.8144 19.5678 1.23513 1.28449 -0.614133
19.7297 17.3943 22.8671 0.42745 0.157922 0.545189
16.7424 20.1091 21.909 0.914657 -0.420478 -0.047128
17.8682 17.9139 21.2705 -0.486342 -0.0609236 -0.218099
19.6993 20.0997 22.2655 -0.433503 -0.339832 1.26351
19.6639 15.816 20.827 0.130631 0.524588 -0.660774
17.6721 18.7711 23.8275 -1.24228 0.662899 2.20905
19.9643 19.4585 24.9138 -0.111859 -0.256543 0.154562
22.0613 18.8131 23.513 2.39419 -0.105698 -1.13003
22.1809 17.0581 21.4071 -0.692457 -0.974239 -1.07016
24.4004 18.8684 21.4912 0.947569 -1.48479 -0.227842
18.3136 21.5751 23.8713 -0.315732 -1.25691 -0.113726
20.2619 22.3506 20.6122 -0.353893 1.66722 -0.703627
20.107 23.7139 22.7676 -0.226692 0.59889 -0.305876
17.7144 22.6124 21.6389 -1.39063 0.240985 1.36909
19.0542 24.8984 20.5352 0.228756 0.497309 -0.669164
22.3224 20.4545 21.1307 1.57341 -0.860613 0.663658
24.8844 21.5007 21.3091 1.2624 0.789569 1.21364
21.6963 24.9736 20.7199 0.463004 1.80047 0.569854
23.873 20.5968 23.5425 0.746608 -1.20959 0.234155
22.645 22.9573 22.2785 -0.045431 1.36872 -0.0590032
21.2979 21.4339 23.9456 -0.496011 -0.316611 1.64556
ITEM: TIMESTEP
2000
ITEM: NUMBER OF ATOMS
40
ITEM: BOX BOUNDS ss ss ss
1.5894261972722557e+01 2.4837786907887850e+01
1.5702988101833913e+01 2.5003001609749539e+01
1.5714611991089438e+01 2.4960838689388126e+01
ITEM: ATOMS x y z vx vy vz
18.5679 19.505 17.0941 -0.591121 -2.04533 0.0511577
16.5087 18.9938 18.9427 1.432 1.10516 -0.422008
18.8622 17.2501 18.6728 0.972474 -0.963578 0.478551
20.6533 18.3962 20.3989 -0.257838 0.215166 -1.17421
23.18 19.4027 16.7065 -0.214001 0.946919 -1.1692
21.4058 15.9925 19.027 -0.450915 1.17496 -0.254029
23.0549 18.1327 19.2907 -0.537081 1.95893 1.72578
20.9029 20.3067 15.8476 0.721158 0.418885 -0.806945
20.9775 17.9643 17.3437 0.844016 0.440079 0.634044
16.9336 21.4213 17.5002 0.380851 -0.00611194 -0.704209
18.5312 20.4855 19.5689 -1.01415 1.56996 -0.609666
18.0752 23.228 19.0354 -0.0185034 0.901321 -0.225748
19.5477 22.1311 17.1829 -0.979001 -1.42246 0.426541
15.8992 21.4143 19.9224 -0.69525 -0.710065 0.734388
21.1334 20.3877 18.5219 -0.165012 1.89247 -0.862313
22.3412 22.1201 17.0338 -1.1456 -0.279724 0.269748
20.7221 24.0193 18.5567 0.230811 6.84306e-05 -0.394615
24.0247 20.4868 19.0238 -1.26671 -1.6333 0.518516
22.9217 22.763 19.4466 -1.04935 -0.730294 0.839828
19.9094 17.4163 22.9422 0.535135 0.060219 1.37713
16.6723 20.1989 21.9028 0.536827 -0.306555 0.103174
17.8895 17.9925 21.2522 -1.04017 0.405579 0.999186
19.4471 20.1767 22.1587 -0.446897 1.37162 1.06774
19.8923 15.8571 20.9018 -0.0851536 -0.63268 -0.164665
17.7452 18.7801 23.8003 -0.938196 -0.986523 0.393861
19.9517 19.4456 24.9817 2.36437 -0.0514925 -0.870411
22.0435 18.7884 23.3007 -1.79601 0.284581 0.174292
22.3363 16.7342 21.4534 -0.00326615 -0.562674 -1.02229
24.2866 18.8464 21.4488 -0.325813 -0.188503 -0.0242624
18.3879 21.543 24.1215 0.123665 -0.153947 -1.51383
20.3348 22.3974 20.5367 0.302847 -0.784387 -0.36723
19.8851 23.4758 22.9677 1.38737 -0.233201 -2.59672
17.6689 22.5509 21.6823 -0.0128108 -0.402199 -0.962038
18.9684 24.8017 20.752 1.48779 -1.29525 1.21703
22.2673 20.557 21.1746 2.29198 1.08308 0.63527
24.7234 21.713 21.139 -0.655509 -0.153571 1.10019
21.5738 24.9032 20.882 0.315438 1.19939 0.803299
23.8547 20.8342 23.328 0.285999 0.329769 0.604475
22.5569 23.0732 22.1502 -0.374346 -1.79482 -0.556578
21.1617 21.3134 23.8068 -0.150004 -0.0214912 0.546767
ITEM: TIMESTEP
3000
ITEM: NUMBER OF ATOMS
40
ITEM: BOX BOUNDS ss ss ss
1.5894261972722557e+01 2.4837786907887850e+01
1.5702988101833913e+01 2.5003001609749539e+01
1.5714611991089438e+01 2.4960838689388126e+01
ITEM: ATOMS x y z vx vy vz
18.7079 19.4254 17.2445 -0.143639 0.657815 -0.898585
16.6773 18.9948 18.9923 -0.400347 1.35289 -0.0675469
18.76 17.0799 18.6163 2.02009 1.02701 -0.799043
20.4659 18.3014 20.2968 0.736793 1.19791 0.529916
23.0868 19.2776 16.6903 -0.0287519 0.472758 0.0651976
21.3543 16.0017 19.0073 -0.403376 -1.15632 1.37279
23.0162 18.1256 18.9973 -1.64352 -0.29251 0.285251
20.7242 20.2938 15.8221 -0.323512 -0.198531 0.0374184
20.8576 17.9083 17.2432 -1.03324 0.0268538 1.05866
17.0091 21.4851 17.4235 -0.186731 -0.699864 0.511728
18.4878 20.5972 19.6619 0.944778 0.0953979 -0.80396
17.9385 23.3557 19.0427 0.678544 -1.38707 0.327209
19.5148 22.0628 17.2412 0.836626 1.05019 0.645777
15.9667 21.666 19.8301 0.205472 0.676114 0.332723
21.273 20.3136 18.6516 -0.358489 -0.35435 1.22188
22.4132 21.9295 16.9727 -0.530517 -0.758559 -1.78243
20.5167 24.1484 18.5475 -0.0500617 -1.5605 1.10731
24.1394 20.4732 18.821 0.890984 -0.520288 -0.459907
22.8836 22.8109 19.4397 -1.75046 -0.259018 1.18737
20.0194 17.4813 23.0792 1.41555 0.0141021 -0.368286
16.6975 20.1282 21.719 2.79234 0.457619 -1.25156
17.8914 17.7941 21.0588 0.54219 0.974989 1.8533
19.5392 19.9321 22.2386 0.559126 -1.17946 -0.321063
19.7439 15.8363 20.8363 -0.572202 -0.226082 -0.196734
17.7388 18.8791 23.7911 0.224974 -0.974182 -1.22102
20.0161 19.4631 24.9169 -0.822707 -0.00787647 0.420786
22.2879 18.8165 23.4891 -1.16451 -0.150104 -0.810948
22.3623 16.8357 21.4267 0.162701 0.449621 -0.189705
24.3807 19.0509 21.3444 -1.58251 0.686256 -0.608986
18.1302 21.3963 23.9992 -0.637894 -0.00116387 1.10457
20.3533 22.4117 20.6578 -0.886682 1.77103 -0.524071
19.8541 23.5664 23.0344 0.298242 -0.476878 -0.789662
17.7256 22.5921 21.7341 -0.193821 -2.29277 -0.299128
19.0153 24.829 20.8132 -1.01107 0.731601 0.27984
22.3553 20.4533 21.3972 -0.208059 0.122341 -0.543899
24.7707 21.7407 21.2806 0.44631 0.210524 -0.136232
21.6041 24.8312 20.7885 1.58297 -0.102834 -0.887781
23.7286 20.8786 23.5431 0.17442 0.64442 1.04953
22.7282 23.1233 22.2771 0.328732 0.0686806 0.868322
21.0642 21.509 23.8328 -0.908745 -0.0897641 -1.29902
ITEM: TIMESTEP
4000
ITEM: NUMBER OF ATOMS
40
ITEM: BOX BOUNDS ss ss ss
1.5894261972722557e+01 2.4837786907887850e+01
1.5702988101833913e+01 2.5003001609749539e+01
1.5714611991089438e+01 2.4960838689388126e+01
ITEM: ATOMS x y z vx vy vz
18.6859 19.3422 16.9976 -0.163965 -0.309277 -0.0255882
16.4555 18.8096 18.8587 -0.581042 0.655079 -0.863983
18.7144 17.2849 18.7556 -0.119615 0.314461 -0.39823
20.5231 18.4142 20.345 0.301991 -0.488019 0.65069
23.2821 19.6751 16.7579 0.924167 -0.342793 0.849015
21.2245 16.1227 18.9972 -0.450412 -1.25074 0.745589
23.0919 17.9902 19.0102 1.45702 -0.728408 -1.79961
20.7996 20.3645 15.6715 -1.09413 1.03477 -1.31445
21.0415 18.1312 17.1707 -0.483709 0.263563 1.29
16.9183 21.197 17.3938 0.561281 0.320603 0.0060344
18.4395 20.4136 19.5297 -0.579859 -2.37877 -0.376652
17.6451 23.2454 18.9776 0.0243585 0.0771939 0.497165
19.3629 22.0369 17.3923 -1.31722 0.737252 1.15799
15.8774 21.2211 19.7248 -0.522355 0.861496 -0.473994
21.2745 20.4148 18.5146 0.782655 -0.373576 0.95917
22.31 22.2499 17.0426 0.607694 0.160167 -1.82246
20.7696 24.1784 18.4401 0.401855 1.19455 1.11041
24.133 20.4784 19.068 -0.0162571 -0.74087 -0.844845
22.9601 22.8191 19.5074 -0.214746 -0.429374 -0.428373
19.8661 17.3659 23.1537 -0.0942086 -0.761344 0.190045
16.5071 20.0846 21.9511 -0.579284 -0.397373 -0.0908483
17.6815 17.9058 21.2317 0.215255 -0.541452 -0.0638134
19.4937 20.4106 22.1394 2.19989 2.04448 -0.0935773
19.7201 15.9568 21.1452 -0.135437 -1.31907 -0.983096
17.8415 18.9378 23.7566 -0.945355 -0.891585 -0.112487
20.0501 19.5085 24.8179 -0.909663 0.783617 1.65848
22.0484 18.8034 23.2074 0.372403 1.55548 1.97691
22.2883 16.895 21.5114 0.314757 -0.479632 -0.276605
24.3188 18.8994 21.4441 -0.0639208 -0.406869 -0.368487
18.4895 21.5885 24.1854 1.00631 -0.671706 0.0512829
20.1584 22.4569 20.2946 -0.246623 0.105771 -0.152643
19.9961 23.3061 22.8051 -0.170756 -0.141659 -0.430467
17.625 22.5127 21.6144 0.889508 0.0201232 -1.12594
19.0489 24.7578 20.6458 -1.43392 0.562574 0.759239
22.3269 20.6815 21.2217 -2.07976 -0.997562 -0.429058
24.8763 21.5191 21.3694 1.65475 -0.0980719 0.426398
21.5575 24.7272 21.0184 1.35835 -1.47348 -0.0957668
23.9893 20.5926 23.6325 0.221498 2.17893 -1.59907
22.8761 23.0182 22.4165 0.0490111 1.65003 2.05719
21.5315 21.4827 24.0822 -1.14053 0.701491 -0.215549
ITEM: TIMESTEP
5000
ITEM: NUMBER OF ATOMS
40
ITEM: BOX BOUNDS ss ss ss
1.5894261972722557e+01 2.4837786907887850e+01
1.5702988101833913e+01 2.5003001609749539e+01
1.5714611991089438e+01 2.4960838689388126e+01
ITEM: ATOMS x y z vx vy vz
18.7163 19.2062 17.2832 -0.245064 0.77605 -1.87316
16.5164 19.0187 19.0319 -0.0799682 0.612517 0.0579074
18.58 17.0818 18.7442 -1.44237 -1.41317 -0.625036
20.4494 18.3438 20.2652 1.17169 0.125014 -0.123351
23.0589 19.5994 16.7563 1.00498 -0.299197 -0.263191
21.379 15.9697 18.9654 0.339668 0.656955 0.854868
23.1815 18.1805 19.1593 0.997114 -1.09599 -1.5011
20.7119 20.2191 15.7428 -0.914007 0.738931 -0.661031
21.0092 17.9279 17.3307 -0.033889 2.10648 1.43179
16.9409 21.2315 17.3883 -0.798433 -0.483304 -0.20732
18.5783 20.4068 19.7092 -0.100829 0.527399 0.395382
17.9808 23.1445 18.9976 -1.69994 -0.508981 1.32547
19.5968 22.0101 17.2075 0.0909398 0.903983 0.136145
16.088 21.6445 19.8596 -0.198558 -1.36081 -0.0478788
21.2543 20.4664 18.6452 0.0687249 -0.118258 -0.340391
22.3963 22.2794 17.1607 1.28573 0.360642 -0.955624
20.5642 24.0838 18.6275 -1.12192 -0.206934 0.658414
24.2676 20.5487 18.8801 0.990066 -1.35631 -0.719397
23.007 22.8634 19.6167 -1.44944 -2.00527 1.15711
19.8093 17.3857 23.0927 -0.407094 1.38776 0.514121
16.6571 20.1247 21.7736 -0.769705 -1.47828 -0.00881874
17.9692 17.9266 21.2729 -0.619298 0.694059 0.523616
19.6336 20.1596 22.2106 -0.255881 -1.3584 -0.756792
19.6796 15.7473 20.8765 0.472953 -0.822357 -0.321419
17.7514 18.8606 23.8651 0.406604 0.0191995 -1.64787
20.0952 19.4254 24.8379 0.781739 0.205492 -0.73224
22.0572 18.7443 23.1374 -0.0360587 0.279064 1.47689
22.2718 16.8668 21.4129 -2.63948 1.02229 0.390707
24.3061 18.9453 21.282 0.676407 -1.01841 -1.17737
18.2869 21.4352 23.9466 -0.630746 0.162565 1.04423
20.3247 22.441 20.5958 -0.703236 -1.11184 0.178333
19.9643 23.7425 22.8635 0.0122715 1.03248 -0.203125
17.7207 22.6189 21.7816 -0.159535 -0.374413 -2.3375
18.9529 24.9216 20.5302 0.510626 -0.431715 -0.185897
22.2734 20.4764 21.0914 0.176632 0.133421 0.992402
24.7645 21.6267 21.1818 1.34044 -0.941313 0.425694
21.5869 24.8567 20.903 1.18284 0.455851 0.6633
23.578 20.8592 23.4123 1.04554 1.55776 1.5208
22.6319 23.0022 22.4006 0.444136 2.49693 -0.591207
21.2087 21.4074 23.96 1.30635 0.130111 1.53253
ITEM: TIMESTEP
6000
ITEM: NUMBER OF ATOMS
40
ITEM: BOX BOUNDS ss ss ss
1.5894261972722557e+01 2.4837786907887850e+01
1.5702988101833913e+01 2.5003001609749539e+01
1.5714611991089438e+01 2.4960838689388126e+01
ITEM: ATOMS x y z vx vy vz
18.736 19.366 17.3406 -0.410907 1.63435 -1.02397
16.5001 19.0483 19.1976 0.602144 0.361134 -0.359104
18.611 17.1728 18.8219 0.774462 1.00305 -0.301371
20.5609 18.4531 20.2043 0.13889 -0.348991 -0.228748
23.2449 19.6646 16.5803 0.771168 0.144818 -0.31227
21.3917 15.9437 19.1797 -1.48026 0.298166 -0.550241
23.1638 18.169 19.041 0.819847 0.876261 -0.399797
20.824 20.052 15.8979 -1.41583 -0.690071 -0.0174967
20.9155 17.7963 17.4051 -0.294474 -1.34365 1.36496
16.9618 21.1264 17.3272 1.2029 -1.24872 0.822083
18.5932 20.5633 19.7545 0.69373 1.69844 0.0165093
18.0553 23.2801 18.9773 -0.501324 0.149497 1.62107
19.468 21.9005 17.2703 -0.261923 1.04604 1.3497
16.0373 21.5754 19.727 0.294496 0.560575 0.378186
21.413 20.459 18.5566 0.875363 -0.81508 -0.0869324
22.3291 22.1385 16.7935 0.0436329 -1.91915 1.32643
20.7074 24.1433 18.5082 -0.804308 -0.913025 1.00647
24.1772 20.6315 18.7956 0.729526 -1.45474 0.566587
22.9752 22.9594 19.4679 -0.413304 -0.257742 0.319223
19.9645 17.212 22.9746 1.24519 -1.02477 0.141048
16.5992 20.1207 21.8765 0.3993 0.739436 -0.345293
17.891 17.912 21.2434 0.760832 -1.3391 -2.07156
19.6043 20.0557 22.2116 -0.672541 0.207097 0.567164
19.5298 15.8165 20.807 0.851199 -0.487712 0.146755
17.6745 18.752 23.7158 0.353029 -0.0838304 -0.870753
19.8726 19.1627 24.9139 -0.0637749 1.72286 0.331837
21.9814 18.8648 23.2866 -0.110919 0.0890517 0.516014
22.4122 16.9359 21.55 -1.14012 -2.43701 0.323853
24.1041 19.0625 21.3476 -0.234007 0.652842 -1.13183
18.5614 21.4549 24.0123 -0.30955 1.18449 -0.505624
20.2634 22.4717 20.4986 -0.568528 -0.418955 -0.231022
19.9891 23.5258 22.9965 -0.405713 -0.984061 -3.22626
17.7474 22.6435 21.6184 0.262202 0.632528 1.59051
18.9873 24.9969 20.703 0.0293436 -0.350501 0.488064
22.1267 20.7799 21.1079 -1.35864 1.06837 -0.40634
24.6257 21.8274 21.0762 0.517033 2.27767 -1.50503
21.6159 24.7937 20.9878 0.150472 0.289951 0.746352
23.7293 20.7078 23.4153 0.445031 0.822395 0.929551
22.659 22.9524 22.4782 0.332679 -0.697996 -0.730014
21.1956 21.3078 24.1322 -1.84634 -0.643907 -0.248715
ITEM: TIMESTEP
7000
ITEM: NUMBER OF ATOMS
40
ITEM: BOX BOUNDS ss ss ss
1.5894261972722557e+01 2.4837786907887850e+01
1.5702988101833913e+01 2.5003001609749539e+01
1.5714611991089438e+01 2.4960838689388126e+01
ITEM: ATOMS x y z vx vy vz
18.7533 19.2397 17.0597 3.62038 0.5566 -0.141293
16.4263 18.8677 19.0314 -0.127074 -1.2231 -0.278455
18.7832 17.3625 18.7398 0.58793 0.657401 0.892157
20.7315 18.4543 20.5713 -1.04972 0.137451 0.758641
23.1083 19.8612 16.5858 -0.172944 -1.47199 -1.51151
21.2562 16.1606 19.1306 -0.557793 0.598198 -1.03643
22.951 18.1476 19.0126 -0.191169 -0.0226549 0.258341
20.872 20.2397 15.6602 -0.767732 -0.666748 0.22972
21.1661 17.8931 16.9832 -0.901204 1.34872 0.604345
16.8359 20.8765 17.4253 -0.107256 -0.698726 0.35206
18.4451 20.2824 19.6268 0.272577 -0.714976 0.936349
17.8148 23.1492 18.9386 0.917053 1.55842 0.137738
19.4486 22.0467 17.2324 -2.14534 -0.233453 0.444968
15.9176 21.5616 19.7443 0.953845 -0.370484 0.494567
21.1106 20.2446 18.3941 -0.274029 0.714059 -0.655567
22.3244 22.3585 17.1576 -0.115733 -1.09718 0.632903
20.6539 24.2187 18.3771 -0.487699 -1.6122 -0.406579
23.8951 20.6206 18.9653 0.352177 -0.98446 1.08013
22.8562 23.0916 19.7512 -1.52931 -0.97071 0.841197
19.6854 17.5137 23.1825 -1.21147 1.503 -2.09947
16.5917 20.1191 21.6755 -1.31396 -0.171194 0.520393
17.7877 17.915 21.1942 0.756539 -1.03231 -1.49123
19.5598 20.2146 22.3433 0.33737 -1.25181 0.939449
19.7044 15.9788 21.0691 2.18399 0.880505 1.2533
17.6127 19.1009 23.7894 0.101922 -0.140341 -0.791174
20.0444 19.1833 24.9293 1.08621 0.164045 -1.24042
22.0521 18.8366 23.1175 -1.04164 -0.188989 -0.532248
22.3664 16.689 21.5784 -0.849727 0.838285 -0.216459
24.0876 18.9773 21.3435 0.0341238 -1.20433 -0.402273
18.6464 21.4827 24.3525 0.27535 0.280622 -0.728795
20.208 22.3049 20.1249 0.416652 2.69147 -0.0332925
20.2534 23.1882 22.699 0.494946 -2.0047 -0.83581
17.7374 22.45 21.5479 0.491511 0.328081 0.395614
19.147 24.8818 20.3876 1.12148 2.08933 -0.469232
22.2198 20.8487 21.2578 -1.69414 1.26503 1.56184
24.8284 21.6323 21.2857 -0.571442 1.47162 1.03383
21.5345 24.8251 21.1142 -0.522803 -0.192153 0.243476
24.0261 20.6095 23.5229 0.721544 -0.273403 1.22704
22.9546 23.0224 22.6443 -0.295481 -0.361815 -0.794216
21.4017 21.349 24.2533 1.20207 -0.195129 -1.1736
ITEM: TIMESTEP
8000
ITEM: NUMBER OF ATOMS
40
ITEM: BOX BOUNDS ss ss ss
1.5894261972722557e+01 2.4837786907887850e+01
1.5702988101833913e+01 2.5003001609749539e+01
1.5714611991089438e+01 2.4960838689388126e+01
ITEM: ATOMS x y z vx vy vz
18.7386 19.2314 17.1278 -0.210253 0.765069 0.165437
16.7127 18.9822 18.9455 -0.648297 -0.059626 -0.0902008
18.905 17.1679 18.6471 0.354731 0.157172 -0.788111
20.62 18.294 20.5105 -1.06386 -1.09238 -0.0257619
23.0019 19.4691 16.7393 0.656725 -1.20802 -0.708781
21.4487 15.905 19.0899 -0.118323 -0.922902 -0.294065
22.9415 18.0486 19.1506 -0.211077 0.498285 -0.103239
20.9868 20.4638 15.8096 -0.207604 -0.530888 0.24036
20.9632 17.798 17.1539 -0.23685 -0.552802 -0.022301
16.9342 21.197 17.4408 -0.812227 -0.579171 -0.692679
18.5963 20.6053 19.5498 0.270147 -0.489242 1.73113
17.8632 23.2838 18.8248 -0.291271 0.193538 -0.511184
19.4793 22.1975 17.2433 -0.275786 0.0985552 -0.10623
16.0282 21.6824 19.8293 0.417468 -1.8288 -0.595288
21.0952 20.1388 18.5221 1.92938 2.50046 -0.559298
22.2913 22.35 17.0698 -0.259586 -0.654609 -0.19822
20.8298 24.1875 18.4851 -0.696884 -0.242691 0.706191
23.777 20.613 18.8842 -1.01476 0.446779 1.67899
23.0398 23.1326 19.5671 0.447971 0.12415 -2.52786
19.9752 17.2558 23.0672 -0.133352 -0.692161 -0.44161
16.7423 20.1617 21.8793 -0.785425 -0.174949 -1.5798
17.8837 17.8903 21.1566 -0.0932656 0.186248 0.546485
19.3806 20.1609 22.3665 -0.388466 -0.267438 0.651485
19.6719 15.8161 20.8745 2.10663 -1.04533 -1.17916
17.7075 18.711 23.9247 -0.47001 0.392476 0.325668
19.9075 19.4036 24.9038 -1.21491 -0.271567 1.45107
22.1583 18.7956 23.2338 -0.819874 -1.12904 -0.593419
22.4239 16.5903 21.4972 -0.82832 2.17317 -1.77404
24.3052 18.8948 21.5031 0.960126 -0.0469796 1.32177
18.3407 21.5623 24.165 0.183634 3.09858 1.15735
20.2039 22.4151 20.4965 1.74833 0.176543 0.105502
20.0498 23.6369 22.9276 1.21014 0.307872 -1.0254
17.7054 22.6822 21.7262 -1.4241 1.03172 1.55306
18.9548 24.7333 20.7494 0.335192 -0.0845454 1.3545
22.1457 20.5097 21.1923 -0.111275 -1.5506 -0.505716
24.6548 21.7175 21.1091 0.974932 1.52194 -0.65289
21.5543 24.8477 20.8632 -0.774422 -0.281982 -0.61056
23.9114 20.7641 23.3316 -0.0544467 -0.84046 0.912849
22.6541 23.066 22.3517 1.76633 0.9242 0.971731
21.2161 21.4371 23.8903 -0.217096 -0.0505814 0.712234
ITEM: TIMESTEP
9000
ITEM: NUMBER OF ATOMS
40
ITEM: BOX BOUNDS ss ss ss
1.5894261972722557e+01 2.4837786907887850e+01
1.5702988101833913e+01 2.5003001609749539e+01
1.5714611991089438e+01 2.4960838689388126e+01
ITEM: ATOMS x y z vx vy vz
18.7932 19.329 17.2955 -1.13081 -0.782957 -1.01887
16.6301 18.8659 19.0535 -0.502127 0.11475 0.19819
18.6553 17.0781 18.6884 1.26083 -0.293572 0.412316
20.49 18.3604 20.1422 -0.0707136 0.151628 -1.61377
23.1312 19.4446 16.7727 0.359567 -0.5686 1.29346
21.4085 16.1458 18.9231 -0.15208 1.34009 1.48425
23.1245 17.9847 19.2189 -0.509738 0.680904 -2.39549
20.8838 20.2574 15.8195 0.522011 -0.772076 0.562876
20.9395 17.9505 17.138 -0.723692 -0.700764 0.236483
16.9722 21.3631 17.4791 1.02382 1.82222 -0.0837742
18.6343 20.6426 19.6004 -0.175185 -0.964535 0.370133
17.8156 23.3375 18.9176 -0.249529 -0.324376 -0.369527
19.5425 22.1769 17.0157 -0.864774 -1.15832 0.954203
15.7212 21.2517 19.8128 0.0278985 0.342135 0.769372
21.086 20.4683 18.5805 -0.503428 -0.253716 -0.801182
22.1446 22.1807 16.977 1.36452 0.31112 -0.537502
20.5741 24.0693 18.4354 0.212706 1.89078 0.151139
23.8635 20.4695 19.0466 -0.331855 0.0998309 -1.56906
22.6871 22.817 19.4912 -0.00936041 0.771187 -0.456741
20.0003 17.5847 23.0293 0.166267 -2.621 0.62441
16.7924 20.3226 21.8045 -0.115637 0.716303 0.30771
17.9432 17.9192 21.1763 0.355096 -1.36106 -0.84664
19.5683 20.2082 22.1444 0.483103 0.322415 0.891383
19.752 15.9402 20.9812 1.577 0.340904 -0.640211
17.5298 18.7098 23.7802 1.10782 -0.878962 0.635671
19.9044 19.4046 24.8778 -0.922023 -0.0998538 0.631417
22.3227 18.8265 23.479 -0.291135 1.23851 -0.364804
22.3925 17.0849 21.5305 -1.26222 -1.68017 -0.0299988
24.4036 18.8327 21.45 0.136056 -0.839439 -0.124854
18.1593 21.2286 24.005 -1.02363 1.00994 -0.78685
20.431 22.4857 20.7594 -0.938734 -0.110732 0.373351
20.0878 23.4833 23.0537 -0.138481 1.72714 0.945608
17.743 22.6927 21.5199 -0.706797 -0.685609 0.0475073
19.109 24.775 20.7387 2.11819 0.494397 -1.16254
22.1826 20.334 21.2565 -0.850934 -0.355418 -0.437248
24.7352 21.647 21.2601 0.499635 0.744309 0.738157
21.5663 24.9668 20.893 -0.389246 -0.660088 -1.1703
23.9912 20.7814 23.4777 -0.352452 0.178406 -0.0662908
22.7028 23.0197 22.2562 0.311562 0.537899 3.28104
21.3855 21.3595 23.9185 0.688501 0.27637 -0.433036
ITEM: TIMESTEP
10000
ITEM: NUMBER OF ATOMS
40
ITEM: BOX BOUNDS ss ss ss
1.5894261972722557e+01 2.4837786907887850e+01
1.5702988101833913e+01 2.5003001609749539e+01
1.5714611991089438e+01 2.4960838689388126e+01
ITEM: ATOMS x y z vx vy vz
18.7829 19.3177 17.1463 -1.82567 0.211772 -0.379958
16.6662 18.8173 18.7784 -0.424697 -0.611465 -1.26036
18.6392 17.0172 18.5287 0.0684748 0.176245 0.130217
20.4812 18.3064 20.1735 1.71628 0.739698 -1.21357
23.2078 19.635 16.8533 0.819047 -0.496429 -0.529869
21.19 16.0092 19.114 1.3911 1.31035 1.52923
23.1103 18.1593 19.2046 0.501015 -2.55205 0.152442
20.9614 20.311 15.8419 -1.53472 0.56447 0.670901
21.0488 17.9657 17.3075 0.189216 0.898184 0.42007
16.8248 21.2741 17.4947 1.28211 -0.374224 0.694573
18.5099 20.548 19.6198 0.0465419 -1.01759 -0.54157
17.8828 23.3489 18.8333 0.418945 0.32475 0.683889
19.4797 21.969 17.2209 0.958578 0.00831062 2.27173
15.8919 21.4723 19.786 -0.681295 -0.12266 0.917077
21.2597 20.4473 18.6586 -1.37379 -0.164238 -1.69656
22.1845 22.3142 17.0408 -1.13401 -0.0650839 -0.201009
20.5911 24.0544 18.5942 3.19278 -0.538265 -0.249293
24.0979 20.6003 18.9393 -1.16669 -0.151046 -0.309302
22.8732 22.8909 19.4463 -0.367137 -1.7551 0.280076
19.9587 17.4533 23.0817 -0.372202 0.17456 -0.100285
16.7652 20.1701 21.962 1.83869 0.106919 -0.720872
18.0173 18.0865 21.0136 -1.06639 -0.662459 -0.7813
19.635 20.1217 22.1758 0.585004 0.805004 -0.0681354
19.4952 15.9861 20.9612 -1.26695 0.52307 0.194338
17.9797 18.8409 23.851 0.226341 0.752454 -0.488649
20.0365 19.5112 25.146 0.827451 0.567216 -0.428794
22.0717 18.7349 23.6109 -0.622949 -0.338756 0.472201
22.3867 16.9256 21.45 -0.453015 2.50216 0.251427
24.2104 18.9837 21.3529 1.51369 0.801641 -1.04524
18.4067 21.5579 24.0267 -1.39022 -0.867182 -0.160113
20.1965 22.4459 20.5115 0.01454 -0.0909725 1.04107
19.9645 23.4449 22.9004 0.0176657 -0.417702 0.785772
17.6832 22.5213 21.4585 0.744118 -0.221401 -0.49897
18.9127 24.6987 20.7614 0.233839 -0.312272 -1.18504
22.0184 20.3865 21.238 0.25337 1.45257 -1.18098
24.7439 21.7635 21.1624 -0.180793 -1.9794 0.18868
21.5011 24.8135 20.914 -2.63451 0.130032 0.0430248
24.0271 20.6146 23.3723 -0.487476 0.906926 -0.359675
22.6646 22.9554 22.3367 -0.141087 0.439961 1.10929
21.4415 21.3253 23.9309 0.284812 -0.657993 1.56353
ITEM: TIMESTEP
11000
ITEM: NUMBER OF ATOMS
40
ITEM: BOX BOUNDS ss ss ss
1.5894261972722557e+01 2.4837786907887850e+01
1.5702988101833913e+01 2.5003001609749539e+01
1.5714611991089438e+01 2.4960838689388126e+01
ITEM: ATOMS x y z vx vy vz
18.7585 19.2964 17.2386 -1.04437 -0.0111952 0.541417
16.7148 19.0249 19.0959 1.12877 -0.333639 -1.29273
18.6717 16.9795 18.6202 -1.0775 0.72554 -0.238266
20.4565 18.3161 20.0911 -0.684728 0.918692 1.33135
23.113 19.8491 16.7897 0.223136 1.80786 0.534734
21.4501 15.8486 19.1458 -0.316741 -0.35762 0.286886
23.1254 18.1035 19.1285 0.0101757 -0.233253 0.586426
20.888 20.2101 15.7315 0.518752 -1.36282 -1.09216
21.1186 17.9418 17.3274 -0.852351 -0.428913 -0.191671
16.8595 21.1697 17.5361 1.31555 -1.34877 -1.16465
18.6771 20.6004 19.6577 -0.213824 0.60173 0.154046
17.9152 23.2205 18.9485 -1.52328 -1.64242 -0.740017
19.4587 22.0456 17.0711 0.363768 1.25149 0.598071
15.9799 21.6323 19.8765 0.44381 -1.22001 0.859551
21.2552 20.4951 18.5408 -0.536026 -1.15129 -0.649867
22.2625 22.1806 16.7959 0.488427 0.822198 0.23243
20.5338 24.03 18.4519 0.674997 0.171405 1.84052
23.9789 20.6631 19.1168 -0.57828 -1.08623 -0.565583
22.8576 23.0666 19.4049 -0.161559 -1.12121 1.06352
19.8112 17.2692 23.1002 1.70774 0.554185 -2.27124
16.8725 20.165 21.7404 0.361672 1.97879 0.467264
17.8517 17.6889 21.251 0.13458 1.23255 -0.265504
19.5075 19.9584 22.2081 -0.109893 -1.24709 0.990662
19.68 15.8139 20.7894 0.574574 -1.1069 0.373342
17.5124 18.6164 23.9034 -0.36607 -0.524727 -1.53537
19.9758 19.2608 24.801 -0.864957 1.02226 -0.943157
22.1305 18.7966 23.512 0.359307 2.38515 0.0755369
22.1872 16.8143 21.4858 0.0913763 -0.223595 0.10109
24.1285 18.875 21.5785 -0.544611 0.621808 -0.317575
18.5832 21.3837 24.0386 2.24432 1.2617 0.0121853
20.4349 22.5801 20.601 -1.72744 1.37357 1.41741
20.0732 23.8261 22.904 0.892738 1.13469 1.50684
17.7981 22.7642 21.8328 0.897344 -1.37151 1.49904
18.951 24.8644 20.7304 -0.261956 0.513437 -0.918923
22.1313 20.556 21.203 -0.0983949 -0.240267 0.465211
24.7113 21.6136 21.2755 0.233002 -0.129934 0.0519826
21.3777 25.0622 20.7947 -1.31808 -1.85227 -1.10046
23.9125 20.6402 23.5552 -0.906586 -1.15409 -0.594252
22.8489 23.011 22.1271 1.62882 0.1993 0.830814
21.2456 21.5659 23.7992 -1.10622 -0.428588 -1.93889
ITEM: TIMESTEP
12000
ITEM: NUMBER OF ATOMS
40
ITEM: BOX BOUNDS ss ss ss
1.5894261972722557e+01 2.4837786907887850e+01
1.5702988101833913e+01 2.5003001609749539e+01
1.5714611991089438e+01 2.4960838689388126e+01
ITEM: ATOMS x y z vx vy vz
18.7085 19.3494 17.1673 0.976108 -0.803224 -0.493054
16.4037 19.1899 19.224 -1.65238 -0.487397 -1.44129
18.691 16.8493 18.7323 -0.0995914 0.160051 -1.1996
20.3103 18.469 20.228 -0.635353 -1.02421 -0.962935
23.1439 19.6743 16.6925 0.491529 -0.127184 -1.6958
21.2505 16.2008 18.9718 -0.441072 1.04493 -0.808966
23.1067 18.2448 19.2646 1.51694 0.104215 -0.246626
20.8717 20.3104 15.7504 -0.223849 -1.11214 -1.22836
21.1119 18.0233 17.2081 0.48857 0.23664 -0.201672
16.811 21.1228 17.3437 -0.137382 -0.382389 1.77431
18.4361 20.5916 19.5187 0.16026 -0.338201 0.663163
18.0152 23.2908 18.6954 0.265697 1.0415 -1.62472
19.3851 22.1343 16.9895 -0.614541 -0.524003 0.784194
15.9568 21.6313 19.792 1.06812 0.334567 -1.3554
21.3354 20.3658 18.4458 -0.589834 -0.995166 -0.10071
22.3145 22.4001 16.9419 -0.971285 -0.016154 1.81206
20.6082 23.9497 18.3706 -1.09598 2.18152 0.843573
24.2896 20.6356 18.852 -0.275211 0.108498 0.152665
22.83 22.7614 19.5908 0.658464 -1.33001 -0.654019
19.981 17.3322 23.0458 -1.07157 1.39121 -0.584887
16.6516 20.0234 21.8227 -0.34345 -0.551372 0.442703
17.8149 17.7834 21.2335 -2.19818 0.630062 1.26355
19.4978 20.0856 22.2703 1.44647 0.08993 0.690502
19.7775 15.846 20.9889 1.00688 -1.85046 0.363646
17.713 18.766 23.8452 0.285998 0.829323 -1.14147
19.8243 19.3351 24.8407 0.630344 0.953255 0.113395
22.205 18.7348 23.5753 -0.101293 -1.13709 0.521384
22.2877 17.0963 21.4765 1.42789 -2.22274 1.31715
24.2741 18.9208 21.6475 -0.0192538 0.463148 -0.484798
18.5698 21.5082 24.3675 -1.66162 -0.456331 -0.458387
20.3419 22.3459 20.4912 0.565122 0.684555 0.307626
20.0958 23.4966 22.8658 0.345375 1.70706 2.28227
17.8194 22.4 21.6536 -0.0954423 -0.61647 1.13506
19.0955 24.7367 20.6858 0.675534 0.648493 0.863163
22.0988 20.4271 21.3703 1.33569 0.552386 0.328383
24.6834 21.59 21.2194 -1.5022 0.244223 0.41629
21.4414 24.9405 20.744 0.476509 -0.742523 -0.748853
23.8768 20.7667 23.4624 -0.381249 0.798782 0.383489
22.8237 23.0889 22.3542 0.00564155 0.207853 -1.25644
21.3463 21.3812 24.0604 0.283592 0.304861 0.229405
ITEM: TIMESTEP
13000
ITEM: NUMBER OF ATOMS
40
ITEM: BOX BOUNDS ss ss ss
1.5894261972722557e+01 2.4837786907887850e+01
1.5702988101833913e+01 2.5003001609749539e+01
1.5714611991089438e+01 2.4960838689388126e+01
ITEM: ATOMS x y z vx vy vz
18.7898 19.2611 16.9983 -0.513876 -0.929236 -1.96757