ITEM: TIMESTEP
0
ITEM: NUMBER OF ATOMS
40
ITEM: BOX BOUNDS ss ss ss
1.6104715859783543e+01 2.4248127742558669e+01
1.6764656627982369e+01 2.4600125401425530e+01
1.5520542435197731e+01 2.5568040767476784e+01
ITEM: ATOMS x y z vx vy vz
18.3909 19.1095 17.4724 -1.38384 1.62412 0.634195
18.7924 19.9634 20.202 -1.67597 -0.290483 0.274573
16.7688 18.1554 19.4406 -2.568 -0.141764 -0.969102
19.4517 17.3732 19.3785 1.01282 -0.487596 -1.62631
20.0714 20.1475 15.5246 1.13532 -0.685314 1.75239
21.5843 19.2888 20.1592 1.85711 -0.899841 -0.421811
23.7798 17.8873 17.4563 1.16865 1.10006 0.426635
24.244 18.7615 19.9789 0.659999 -0.246243 0.788075
23.183 20.461 18.0193 2.38707 -0.391241 0.740502
22.2798 16.7687 19.417 0.705735 0.465057 -1.18435
22.6936 19.4966 15.5426 -1.62923 -1.12595 1.35627
21.1217 18.3691 17.4299 -0.159412 0.378281 1.62401
16.5056 20.7511 18.7456 1.2594 0.841125 0.647459
18.3962 22.6811 19.2727 -1.69831 1.65013 0.334773
18.1478 21.7042 16.6878 -0.364668 0.385716 -0.417604
20.021 23.6055 17.2236 0.444867 0.556291 1.43004
23.5252 21.5061 20.5424 0.938454 -0.00609603 0.220318
20.4235 21.006 18.1231 1.69631 0.687262 0.496935
20.2947 24.596 19.8283 -0.925397 1.11924 -0.858675
21.9328 22.0373 16.0567 -1.19463 -0.533532 -2.19669
22.3159 23.0922 18.5937 -2.83683 -1.99792 -0.0686196
16.3494 20.0102 21.4621 0.907175 -0.0203911 0.382114
18.0356 17.8235 21.7941 0.576044 -0.761336 0.732327
17.9 19.7374 23.7886 -2.49677 0.322549 -0.636564
19.2709 17.3196 24.0977 0.594863 -0.658648 -0.0578329
19.9321 19.3958 25.564 1.1938 -1.08017 -0.188999
23.3884 17.0276 21.8727 0.0267232 0.22591 -1.19231
22.2901 20.3826 24.9601 -0.572959 0.183683 0.279319
20.7209 17.0567 21.7678 -0.480465 -0.682679 0.235467
21.9266 17.8311 24.1384 0.475693 0.195064 1.10579
23.2488 19.6217 22.4899 2.29683 -1.56394 -0.481764
20.4149 19.7196 22.7243 -0.030744 -2.26176 0.0689487
17.9698 24.4777 21.2604 0.974749 -0.179004 -0.173877
16.1088 22.589 20.7294 0.460414 0.242936 -0.73691
19.9784 21.8455 24.3825 -1.25109 2.01729 -2.66775
18.3193 21.9379 22.1839 -1.48723 0.377482 0.367425
22.6159 24.0876 21.1104 -0.139206 1.58005 -1.32206
20.7781 21.9781 20.7687 0.0520678 -0.282171 1.32868
22.3643 22.2153 23.0303 -0.742655 -1.67705 0.165202
20.2634 23.9815 22.5797 0.813314 2.02088 -0.190234
ITEM: TIMESTEP
1000
ITEM: NUMBER OF ATOMS
40
ITEM: BOX BOUNDS ss ss ss
1.6104715859783543e+01 2.4248127742558669e+01
1.6764656627982369e+01 2.4600125401425530e+01
1.5520542435197731e+01 2.5568040767476784e+01
ITEM: ATOMS x y z vx vy vz
18.3902 19.1083 17.335 -0.0437356 0.311412 0.994946
18.9512 19.8549 20.1243 -0.631085 -0.47367 -1.94193
16.8231 18.2649 19.4005 -1.08663 -0.316855 1.433
19.2173 17.2918 19.325 0.336203 -0.289068 0.330544
19.8964 20.0507 15.474 0.534546 0.776396 -0.79115
21.8343 19.1953 19.9487 1.06186 -0.563115 0.401354
23.541 18.0918 17.8331 -0.649154 0.732491 0.182605
24.5216 18.9505 20.0758 1.88216 0.0143522 1.96154
23.3194 20.6657 18.0821 0.00132294 0.484511 -0.694889
21.9323 16.522 19.3629 -0.265026 -1.67042 -0.172783
22.5129 19.5289 15.8222 0.0245114 0.591867 0.357695
20.7626 18.1811 17.4226 -0.837634 -0.299753 -0.820738
16.7254 20.6998 18.7231 -0.621959 -1.08213 0.256139
18.7474 22.6456 19.3474 -0.222633 1.9862 0.373526
18.4175 21.6864 16.6846 -0.647811 0.0277234 -0.34157
20.0261 23.6463 17.1778 1.55743 -0.0774341 0.357496
23.5143 21.6083 20.683 -1.41144 0.782035 0.755104
20.5643 20.811 18.1658 -0.0874385 0.438583 -1.67631
20.3719 24.6419 19.949 -0.52009 0.901599 -1.83934
21.7952 21.9976 15.9987 0.081623 0.410076 -0.566609
22.1887 23.0966 18.5361 0.615828 0.412018 -0.856968
16.469 20.0775 21.4006 -0.589575 -1.49809 0.849872
18.0083 17.8805 21.89 0.399073 1.23813 -0.00852116
18.0267 19.7289 23.9413 -1.07061 -0.883747 2.40221
19.3309 17.4244 24.1138 0.521199 -0.197466 -0.457319
19.9991 19.5158 25.6976 -0.857717 1.69352 0.405575
23.1749 17.2816 21.6002 -0.370669 -1.86439 1.09101
22.2001 20.3769 24.8862 -0.444101 -0.600044 -0.509491
20.4709 17.1333 21.6487 -0.693102 -0.246571 -1.69035
21.9871 17.8347 23.8835 1.34367 -0.567229 -0.941258
23.2744 19.8746 22.5399 0.994262 -0.196973 0.694851
20.4704 19.7299 22.5876 -0.240384 0.0541334 2.45727
17.9089 24.285 21.3217 -0.155711 -1.1518 0.671505
16.1778 22.4936 20.6982 -0.731624 0.690347 -0.53677
19.9277 21.8306 24.3949 -0.466918 -0.507685 0.0634756
18.3939 21.6668 22.1654 -0.489481 -0.839466 -0.376805
22.4863 24.0642 21.1061 1.67976 0.733879 -0.625
20.7881 21.8788 20.8191 1.58106 0.93649 -1.45525
22.3912 22.2989 23.1208 0.168393 0.392906 0.0437541
20.2611 23.8851 22.5128 0.35163 -0.282769 0.219582
ITEM: TIMESTEP
2000
ITEM: NUMBER OF ATOMS
40
ITEM: BOX BOUNDS ss ss ss
1.6068196214121478e+01 2.4878837061998428e+01
1.6268112653527069e+01 2.4523376308225259e+01
1.5550212856639607e+01 2.5448709188743820e+01
ITEM: ATOMS x y z vx vy vz
18.3762 19.201 17.6853 -0.584394 1.6096 -0.513554
18.851 19.8924 20.4088 1.01892 -0.403136 -0.274791
16.7 18.3361 19.5282 1.18137 0.351552 1.13234
19.2866 17.3922 19.3859 0.456459 1.28228 1.19118
19.9616 20.1355 15.5827 -0.236467 -0.293576 0.228217
21.7538 19.2001 20.009 -1.72428 1.18798 2.02909
23.5875 17.973 18.1226 -0.0550478 0.228803 -0.736686
24.5392 19.2303 20.1231 0.529801 -0.488249 -0.79922
21.9019 16.3983 19.3352 -0.406659 -0.308858 1.34775
22.6477 19.4652 15.808 0.436679 -1.04394 0.610877
20.929 18.1006 17.3287 1.22321 2.15286 -0.360137
16.6694 20.7747 18.8554 -0.387067 -0.218107 -0.366167
18.6252 22.6061 19.3825 -1.34977 -0.161776 -0.736093
18.2647 21.719 16.8255 1.49786 -0.720601 0.851674
20.1926 23.4186 17.139 -0.866341 0.581262 0.882743
20.5209 20.8649 18.1571 -0.156639 -0.187605 -0.406415
20.2329 24.5912 19.7956 0.427977 0.371223 0.708821
23.289 20.6131 18.0937 0.220422 0.20785 0.528278
22.0297 21.9101 16.0183 -0.380078 1.3188 -0.0253716
22.2531 23.0362 18.5601 0.294953 -0.960427 -0.325836
16.1913 20.1864 21.5145 0.870684 -1.41601 -1.74561
18.0087 17.8584 21.8625 0.688642 0.689194 -0.423809
17.948 19.6746 23.7123 0.989843 -0.444181 0.401366
19.4867 17.305 23.9734 1.01912 -1.5397 0.712587
20.0497 19.3127 25.2612 -1.05334 1.22064 -0.0344989
20.4405 19.7399 22.5259 0.694566 -0.548651 -0.278638
23.4239 17.1099 21.2582 -1.41358 -0.464065 0.762725
22.2318 20.3951 24.6859 0.916649 0.762774 -0.159739
20.686 17.0569 21.6936 -2.65279 -0.229615 0.674201
22.1337 17.7819 24.056 -0.651105 0.831881 -1.70058
23.1913 19.5698 22.4262 -0.653008 2.37509 -0.0564472
18.1214 24.3862 21.1996 1.06486 -0.217992 0.143028
16.1257 22.6185 20.5624 -0.652448 -0.912896 -0.10239
19.9091 21.9495 24.238 -0.271692 -1.21153 -0.739436
18.111 21.868 22.279 1.03926 0.469357 -0.793415
20.2838 24.0791 22.6452 1.40187 -0.392658 0.0389675
23.3182 21.6467 20.676 -0.685029 -0.852776 -1.66798
22.3761 24.1692 21.0873 -0.432055 -0.51466 0.295634
20.7854 21.8792 20.9634 -1.3676 -1.49017 -0.206623
22.3659 22.3546 23.0349 0.00626842 -0.61996 -0.0860502
ITEM: TIMESTEP
3000
ITEM: NUMBER OF ATOMS
40
ITEM: BOX BOUNDS ss ss ss
1.6068196214121478e+01 2.4878837061998428e+01
1.6268112653527069e+01 2.4523376308225259e+01
1.5550212856639607e+01 2.5448709188743820e+01
ITEM: ATOMS x y z vx vy vz
18.2734 19.046 17.5852 0.669515 -0.673722 -1.01518
18.9636 19.8469 20.2609 0.857139 -0.450879 0.753257
16.768 18.0522 19.4633 -1.4354 -0.315973 0.897136
19.2516 17.16 19.4074 -1.89738 -0.445903 -0.913508
19.9884 20.2491 15.5829 -0.218946 0.288637 1.12494
21.831 19.143 19.963 -2.47004 1.65155 0.392041
23.4741 18.0373 18.0523 0.431002 -0.136863 1.04251
24.6664 19.1432 20.0519 1.52009 0.447823 -2.0228
21.8181 16.4688 19.3339 -0.421997 -1.36019 -0.177468
22.5055 19.4514 16.0323 1.45608 0.0616205 -0.698009
20.7734 17.9736 17.1717 0.242992 0.420551 -0.378873
16.5258 20.6961 18.7791 -0.12775 -0.117074 0.992745
18.5806 22.4509 19.4478 -1.69185 0.130601 -0.417853
17.9491 21.5662 16.818 0.510459 -0.912493 1.32812
19.8954 23.5931 17.2684 0.00321196 0.404639 0.582142
20.5175 20.9768 18.0159 0.10874 0.67382 1.54398
20.3275 24.4994 19.8096 0.900273 -0.369286 0.217922
23.5654 20.7751 18.0344 0.660759 0.107513 -0.320499
22.0165 22.1517 16.1754 0.686942 0.823873 0.398525
22.3272 23.0399 18.6018 0.436545 -1.02351 0.638372
16.6357 20.1387 21.4864 0.026323 0.234656 -0.231927
17.9048 17.8642 21.789 -0.698891 0.335909 -0.822352
17.9298 19.6336 23.7708 1.01014 1.39583 -0.734636
19.526 17.3449 23.9799 0.488613 0.772887 -0.357569
19.7694 19.3724 25.6051 0.318333 -1.95439 0.195228
20.4153 19.5859 22.7175 0.860729 -1.01135 0.0483224
23.2659 17.288 21.4319 0.144929 0.860806 -0.250726
22.1617 20.3257 24.884 -2.1797 0.0942895 -1.03916
20.6154 17.0623 21.5641 0.258108 -0.734144 1.37758
22.0917 17.9441 24.0514 0.520592 1.24146 0.688421
23.1262 19.7941 22.3881 -0.586785 -0.499016 -0.120261
18.1426 24.5915 21.07 1.16484 0.145001 -0.831164
16.2099 22.7066 20.5874 -0.544159 -1.37408 0.269122
19.8774 21.801 24.2952 -0.151522 0.0373297 -1.08754
18.2347 22.0676 22.2558 -0.262562 0.633773 -0.439308
20.2787 23.9303 22.4846 -0.420358 0.822774 0.258573
23.6685 21.6854 20.5812 -0.397654 -0.942278 -2.18196
22.6699 24.0902 21.1205 0.165544 0.609517 -0.38396
20.9199 21.8894 20.8158 0.262637 -0.365949 0.266888
22.338 22.3634 23.0662 -0.199541 0.492233 1.40893
ITEM: TIMESTEP
4000
ITEM: NUMBER OF ATOMS
40
ITEM: BOX BOUNDS ss ss ss
1.6068196214121478e+01 2.4878837061998428e+01
1.6268112653527069e+01 2.4523376308225259e+01
1.5550212856639607e+01 2.5448709188743820e+01
ITEM: ATOMS x y z vx vy vz
18.2837 19.0289 17.4887 0.698428 -0.601465 1.33759
18.7883 20.1285 20.14 -0.160738 0.238541 -1.69346
16.5794 18.381 19.5588 0.160585 -1.19372 1.01148
19.2326 17.5451 19.4102 -0.268585 1.08597 1.18487
20.2605 20.026 15.339 -0.213351 -0.409175 -2.2547
21.6041 19.0996 19.9125 0.0135088 0.0548245 -0.722604
23.2946 17.9112 18.3081 -0.0259669 0.612353 -1.7174
24.4187 19.4483 20.1162 0.785554 0.19579 0.167523
21.5407 16.2303 19.4839 0.657139 -1.10542 -1.38869
22.7066 19.5472 15.8521 -0.712284 0.455187 -1.76527
20.9796 18.1334 17.2062 -1.02512 -1.47648 1.19364
16.538 20.7571 18.5715 0.935127 -0.699538 0.399143
18.5568 22.5966 19.1146 1.19191 -0.314387 0.794283
18.3242 21.4433 16.5813 -0.53374 -0.0671013 1.12067
19.9998 23.4537 17.1354 0.818261 -0.569555 -0.393248
20.5475 20.8516 17.986 0.209636 0.562725 -0.36631
20.3848 24.5401 19.9347 0.456393 0.230453 0.0470474
23.245 20.579 18.0987 -0.516126 1.0077 -2.54176
21.9645 22.0754 16.0082 -0.175308 0.236532 -0.954406
22.2117 23.0796 18.502 0.917963 1.62251 0.163311
16.466 19.9447 21.6414 0.192825 0.714861 1.0652
18.1806 17.9208 21.8834 0.163132 -1.07648 0.317647
17.9853 19.7196 23.9664 -1.87821 -1.50646 0.48973
19.3639 17.259 24.1725 0.439264 1.36589 -0.729368
20.1463 19.1522 25.5895 -0.560613 -0.237819 -2.20549
20.3582 19.8427 22.5867 -0.162466 -1.23675 1.36947
23.2629 17.333 21.1665 -1.51368 -0.621135 0.730156
22.3341 20.3504 24.9111 -0.438755 0.835964 -0.972214
20.6425 17.0398 21.6637 0.518301 -0.360496 1.02899
21.9762 17.9752 23.8066 -1.38514 0.0159121 -0.364044
23.208 19.8218 22.4291 0.00507999 -0.100354 2.31184
18.2029 24.3317 21.2154 -0.735282 -0.493125 -1.14414
16.469 22.418 20.6138 -0.511744 0.447745 -1.08881
19.9623 21.6798 24.5459 0.563228 0.932278 1.61242
18.4633 21.9316 22.2694 0.372578 0.455539 0.503755
20.2262 23.9198 22.7135 -0.681343 -0.442948 -1.52616
23.4958 21.824 20.6415 -0.282984 -0.0234243 1.70864
22.4689 24.2307 21.3133 1.32486 0.483586 1.94563
20.9148 22.0177 20.7204 0.438298 1.05126 -0.260292
22.2117 22.2316 23.2017 0.919353 -0.0697855 1.58534
ITEM: TIMESTEP
5000
ITEM: NUMBER OF ATOMS
40
ITEM: BOX BOUNDS ss ss ss
1.6068196214121478e+01 2.4878837061998428e+01
1.6268112653527069e+01 2.4523376308225259e+01
1.5550212856639607e+01 2.5448709188743820e+01
ITEM: ATOMS x y z vx vy vz
18.4383 18.9802 17.4844 -1.36211 1.55401 0.701187
18.7893 19.7553 20.2574 0.693444 0.650772 0.652967
16.6472 18.1953 19.2591 0.352207 -1.77942 0.78782
19.2544 17.3208 19.3115 -0.878546 1.20589 -1.02771
20.0204 20.017 15.4929 0.361538 -0.545137 0.195032
21.5632 19.1216 20.1444 0.502877 2.0849 -1.02822
23.6037 18.0295 18.035 0.91615 1.00882 0.14709
24.5122 19.2103 20.151 -1.27214 0.92476 1.19867
21.7878 16.4909 19.3097 -0.261594 1.39977 -1.14622
22.7349 19.6136 15.7636 0.607008 -0.465443 -0.943384
21.0537 18.2924 17.3552 -1.53193 -0.977777 -0.825537
16.6166 20.8809 18.7311 -0.582421 -0.832467 -0.585494
18.5157 22.5951 19.4297 1.28604 0.714574 -0.76469
18.2673 21.5291 16.7475 0.857922 0.761671 -0.967085
19.9893 23.4346 17.3044 0.107084 0.0578424 0.341298
20.3463 20.7902 18.2562 -1.0042 -2.19922 -0.206879
20.286 24.5966 19.8523 1.09481 0.16074 -1.61409
23.0043 20.5837 18.1944 -0.390955 -0.659077 -0.949627
21.7851 21.8845 16.1769 1.3369 -0.748973 0.186544
22.3867 23.1783 18.5294 -0.215427 0.328049 -0.10496
16.4071 19.9915 21.3153 0.791486 -0.639132 -0.517983
17.8799 17.7933 21.7923 -0.166793 -1.9194 0.958417
18.0825 19.6783 23.5281 0.544317 2.66167 0.126591
19.2711 17.4043 24.0564 -0.0638978 0.191499 0.0183619
20.1174 19.335 25.3044 2.38314 0.855494 -0.373807
20.4864 19.9063 22.5608 -0.333609 -1.10931 0.816408
23.0643 17.2995 21.4125 0.469018 -0.203919 -0.828999
22.3724 20.5087 25.0418 -0.996321 -1.03319 -0.296977
20.535 17.0051 21.657 -0.805188 0.658119 2.09935
21.9461 17.9119 23.9026 -1.83539 -0.78144 -0.357452
23.4623 19.707 22.5358 -1.28476 0.478468 0.568649
18.0145 24.3925 21.3017 0.978404 0.410077 1.07327
16.274 22.4458 20.8081 1.13651 -1.30189 0.534673
20.1625 22.0089 24.3934 -0.459691 -1.89557 -0.384356
18.5367 21.9366 22.2828 -0.352175 -0.803652 1.1857
20.3326 24.0725 22.576 0.0754163 -0.504016 -0.265769
23.5674 21.6136 20.6939 -0.26513 1.09297 0.741092
22.5043 24.1038 21.0576 -1.34571 1.05935 0.304349
20.8436 22.0096 20.7411 0.339422 -0.503807 -0.133134
22.3373 22.1761 23.0526 0.574299 0.643392 0.684897
ITEM: TIMESTEP
6000
ITEM: NUMBER OF ATOMS
40
ITEM: BOX BOUNDS ss ss ss
1.6068196214121478e+01 2.4878837061998428e+01
1.6268112653527069e+01 2.4523376308225259e+01
1.5550212856639607e+01 2.5448709188743820e+01
ITEM: ATOMS x y z vx vy vz
18.1705 18.9987 17.3116 0.0439598 0.955464 0.641058
18.7128 19.8793 20.0173 -0.868491 -0.0978358 1.29642
16.766 17.96 19.4595 0.902486 -0.589446 0.120782
19.3308 17.2057 19.2902 -1.81417 0.515414 -0.616631
19.9672 20.1363 15.5348 -0.272821 0.0556817 0.849935
21.7565 19.2803 20.0374 -2.44274 0.727258 -0.887548
23.4122 18.0002 18.2196 0.524233 -0.0527348 -0.185443
24.6339 19.2484 20.0863 1.33368 0.303761 0.00856636
21.7784 16.3842 19.2932 0.629414 0.97862 1.7978
22.7185 19.2988 16.1714 1.29815 -0.418326 0.555111
20.7266 18.1983 17.4314 0.428818 -0.639671 -1.33219
16.4417 20.7743 18.8689 0.495957 0.636673 -0.240941
18.4029 22.6723 19.2 0.178774 0.227795 -0.863503
18.2925 21.6472 16.7683 0.0984704 -0.446482 -0.783493
20.229 23.5447 17.3813 0.169433 -0.795836 -0.939717
20.5086 20.8882 18.1709 -0.0734652 0.204841 -0.639041
20.1811 24.6116 19.9442 -0.692671 0.649484 -0.0997637
23.3493 20.7089 18.2922 -0.974062 -0.0870589 -0.726951
21.9437 21.8205 16.2141 -0.214458 0.903246 -1.16485
22.3201 23.2496 18.6291 -0.411368 0.210315 1.29002
16.4354 20.1551 21.554 -0.424079 -1.4901 1.40255
17.8903 17.8736 21.6671 -0.466294 -0.881375 0.081822
18.1387 19.7063 23.6881 2.26317 -0.784244 0.0465514
19.3717 17.4625 23.9897 -0.444243 0.183467 -0.944129
20.207 19.5026 25.5888 -0.291533 1.68121 -2.66104
20.5468 19.734 22.5196 -0.429163 1.68878 0.213106
23.3615 17.189 21.2202 -0.774221 0.58443 1.01767
22.3858 20.3242 24.7537 -1.75437 -1.21091 0.146482
20.6109 17.0861 21.6871 -0.889758 0.396145 -0.334045
21.991 17.8042 23.9992 -0.999617 -0.290703 0.447234
23.3496 19.526 22.3571 0.230465 0.818963 0.200432
17.9878 24.4241 21.1949 0.630638 0.476559 0.19843
16.1589 22.6319 20.699 0.134418 -2.83297 0.378282
20.0705 21.7824 24.2817 2.19594 0.602522 -1.65443
18.2812 21.9273 22.0784 1.51135 0.0643163 1.6066
20.1956 23.9692 22.7095 1.07764 -0.00834095 -0.131748
23.6504 21.7632 20.6881 -0.0671173 -1.09013 0.0387323
22.4105 24.2206 21.1909 0.37691 -0.68167 2.6272
20.8665 22.0586 20.6616 -0.18751 -0.718412 -0.579182
22.2477 22.1513 22.9496 -0.0317584 0.251297 -0.180137
ITEM: TIMESTEP
7000
ITEM: NUMBER OF ATOMS
40
ITEM: BOX BOUNDS ss ss ss
1.6068196214121478e+01 2.4878837061998428e+01
1.6268112653527069e+01 2.4523376308225259e+01
1.5550212856639607e+01 2.5448709188743820e+01
ITEM: ATOMS x y z vx vy vz
18.289 18.8972 17.4355 0.932816 -0.479994 -1.70473
18.8499 19.8274 19.9554 0.813717 0.161914 -0.525124
16.7859 18.3406 19.5487 -1.00773 0.80827 -1.06919
19.2757 16.9899 19.3371 -0.425126 -0.442927 1.04143
19.9118 20.0701 15.6492 0.574007 -0.189943 -1.04268
21.811 19.1687 20.0841 -1.17404 -0.513544 1.0358
23.4812 17.9679 17.9721 -1.14295 0.00683519 -0.0270464
24.5425 19.2247 20.1127 0.575099 -0.308408 -0.809934
21.8298 16.4403 19.3405 -0.0178391 -0.701449 -1.38098
22.4101 19.315 16.0819 -0.798433 1.40637 0.81125
20.7878 18.0315 17.4006 -0.620947 1.74365 -0.405673
16.6102 20.9234 18.7303 -0.175545 -1.90627 -0.834392
18.4259 22.7664 19.2501 1.19722 0.0756066 0.766855
18.2382 21.6209 16.7824 0.0816886 -2.94859 0.316068
20.0107 23.5002 17.3456 1.34992 1.02142 0.0939179
20.6288 20.7946 18.1732 0.570471 -0.216816 0.513081
20.2802 24.6417 19.9824 -0.0193932 -0.147512 0.14578
23.4033 20.7924 18.055 1.46918 -0.255575 -0.477261
21.9673 22.0218 16.1661 -0.75631 0.606312 -0.135074
22.3413 23.2518 18.6064 -0.65392 -1.04118 -0.234829
16.3433 20.1633 21.5918 -1.17125 1.22083 0.195906
18.0189 17.9569 21.7337 -0.0519559 1.53073 2.35665
18.0996 19.8198 23.805 0.617219 0.869555 -0.648874
19.4582 17.4063 24.0817 0.327812 1.12734 -0.764719
20.0051 19.3929 25.4599 1.15558 -1.37095 0.968927
20.4981 19.6995 22.5008 0.714651 -0.705406 1.54084
23.3856 17.3233 21.2997 0.387012 0.115315 -0.614289
22.3628 20.1866 24.9047 -0.972027 -0.145145 -0.403824
20.6086 17.1598 21.6285 0.0780749 -1.50905 0.22891
21.8651 17.8027 23.7795 0.0195971 -1.03635 0.0409907
23.4421 19.5726 22.5712 0.356156 0.403917 1.89355
17.8456 24.3511 21.2113 -2.12724 1.93562 -0.292523
16.0779 22.6024 20.7902 -1.2158 0.308888 -0.260262
19.907 21.7976 24.1597 -0.68157 -1.32358 0.833119
18.4175 21.9088 21.9523 1.04736 -1.03482 0.796094
20.1212 23.9739 22.5413 0.400828 1.06585 -0.760993
23.6222 21.7357 20.7234 1.13119 0.274901 -0.689634
22.6184 24.1526 21.187 -0.785698 0.627292 -0.606752
20.9112 22.0053 20.7475 0.539989 0.946248 -0.422648
22.311 22.2025 23.1215 -0.541826 0.0206558 0.532259
ITEM: TIMESTEP
8000
ITEM: NUMBER OF ATOMS
40
ITEM: BOX BOUNDS ss ss ss
1.6068196214121478e+01 2.4878837061998428e+01
1.6268112653527069e+01 2.4523376308225259e+01
1.5550212856639607e+01 2.5448709188743820e+01
ITEM: ATOMS x y z vx vy vz
18.2827 19.0799 17.4335 0.380471 0.095742 -0.305182
18.8082 19.851 20.1648 0.485359 0.540951 0.903636
16.6669 18.1189 19.3318 0.387176 -0.297564 -1.40939
19.1718 17.2293 19.3551 -0.615865 -0.628987 0.955363
20.0623 20.1212 15.6018 -0.566972 -0.770244 0.30739
21.722 19.1532 20.1989 0.360067 -0.526621 0.0965336
23.3889 17.9451 18.1729 -0.0493077 -0.72338 -1.23538
24.5376 19.3976 20.0862 -0.0693869 -0.854126 -0.0148158
21.6093 16.4452 19.2672 0.120243 -1.22873 -0.726572
22.6576 19.4428 15.7194 0.803082 0.692761 -0.672376
20.8372 18.3124 17.4089 0.620569 1.25887 -0.175255
16.6352 20.7503 18.8083 -0.913202 -0.645793 -1.4613
18.6181 22.5692 19.5272 -1.12017 0.354456 0.843036
18.3157 21.6617 16.8952 0.21063 0.355904 2.77031
20.1072 23.4794 17.2614 -0.383039 0.105023 0.381093
20.5939 20.7675 18.2214 -0.197832 -0.706367 -1.32398
20.1642 24.5534 19.8934 -0.129096 -1.96317 0.326952
23.292 20.452 18.141 0.728554 0.594463 1.82526
21.9445 21.8617 16.1299 -0.759007 0.422993 0.82297
22.1868 22.9949 18.6048 0.549481 1.48701 -2.56976
16.4036 19.9621 21.3702 -0.557202 0.530782 1.77782
17.9799 17.7913 21.7785 1.99131 0.367125 1.27747
17.9561 19.8143 23.682 -0.0321247 -1.23153 -2.01962
19.3667 17.4744 23.8959 0.624219 0.909683 0.967413
19.8233 19.3442 25.4604 -0.00350278 0.10596 -1.10085
20.4179 19.8557 22.6176 -0.44367 -1.04576 1.76912
23.5208 17.4015 21.232 0.541722 -0.540426 0.551115
22.1932 20.3342 24.8225 1.14304 1.76722 0.136278
20.7276 16.9473 21.6684 -1.52032 -0.390794 0.842494
21.9793 17.956 23.7187 -1.09377 -0.14878 -1.51231
23.2942 19.714 22.4214 0.653067 0.634875 0.450235
17.8726 24.5575 21.3431 -0.798589 0.918323 -1.66919
16.3971 22.5052 20.9089 -1.40784 2.48922 -1.22656
20.0067 21.7686 24.4509 -0.222937 -1.20282 0.811212
18.4797 21.9751 22.268 -0.49762 -0.64133 -1.23406
20.2358 24.047 22.576 0.0721207 0.250907 1.0064
23.6777 21.7263 20.5253 0.853761 -0.64195 -1.06197
22.5336 24.1351 20.9816 0.279369 -0.0349774 0.457281
20.955 22.0706 20.796 0.629137 1.74594 -0.0209709
22.3771 22.2327 23.0592 -0.0519316 -1.40486 0.460159
ITEM: TIMESTEP
9000
ITEM: NUMBER OF ATOMS
40
ITEM: BOX BOUNDS ss ss ss
1.6068196214121478e+01 2.4878837061998428e+01
1.6268112653527069e+01 2.4523376308225259e+01
1.5550212856639607e+01 2.5448709188743820e+01
ITEM: ATOMS x y z vx vy vz
18.3458 19.1769 17.4224 0.546557 1.60735 0.88429
18.8715 19.9271 20.2074 0.391845 -1.14399 0.652861
16.8523 18.277 19.4078 -0.208066 -0.0601287 -0.0256522
19.5459 17.3721 19.3466 -0.677206 -0.805101 0.560128
19.9001 20.133 15.4818 0.288329 -0.388496 0.0767777
21.6226 19.1532 19.931 0.583119 0.0861554 -0.312222
23.3342 17.8205 18.3121 -0.199342 -0.886179 -1.221
24.5987 19.4277 20.096 0.243477 -1.08945 0.268121
21.849 16.2707 19.3088 -0.0338679 -0.869567 0.233922
22.5852 19.426 15.9243 -0.850852 0.429108 0.301418
20.9474 18.0727 17.1635 2.8499 0.0646599 1.13276
16.6611 20.8568 18.8613 0.449486 -0.921533 -0.786926
18.6058 22.6703 19.4543 -1.99477 -0.751816 -1.06466
18.2048 21.6721 16.8475 -0.574078 -0.454776 0.394086
20.0402 23.4791 17.2103 -0.286455 0.195407 0.547176
20.5719 20.8117 18.0698 -0.74046 0.625628 -1.31376
20.4246 24.6557 19.9024 2.03103 -0.875827 2.71163
23.3096 20.5723 17.9302 -0.0484373 -0.591227 1.40281
21.7821 21.9414 16.0379 -0.666429 -1.08687 1.02815
22.1663 23.0338 18.578 0.678492 -0.280393 -1.9122
16.3871 20.0183 21.4759 -0.909956 0.5827 0.409916
18.0519 17.8813 21.8706 -0.33904 1.79755 -0.287539
17.8789 19.4718 23.9149 1.96838 -0.628261 -0.648239
19.5026 17.4225 24.129 1.38837 -0.0504715 0.626412
19.9647 19.3552 25.5457 0.233948 0.899009 -1.33167
20.3693 19.7442 22.5009 -0.548695 -0.943128 0.513869
23.0528 17.4779 21.3926 1.31886 1.81708 -0.458765
22.1599 20.3729 24.746 -0.111031 -0.0145747 -0.280524
20.5834 16.8622 21.5704 0.172725 0.00265866 -1.75779
21.8801 17.9467 23.8725 -0.904989 0.739403 0.00247461
23.1708 19.8584 22.4143 -2.56218 0.758436 0.67787
18.1755 24.3697 21.3924 0.53501 -0.180511 0.0806717
16.3222 22.535 20.6945 -1.32995 2.01921 1.34624
19.9755 21.8051 24.2745 -0.785146 -1.14495 -0.308247
18.368 21.7403 22.3143 -0.553781 -0.191003 -1.57856
20.2678 23.9706 22.6805 1.00869 0.345582 0.875296
23.5759 21.7718 20.4422 0.253559 1.12268 0.526551
22.615 24.1268 21.2002 0.417902 0.752253 0.444169
20.9007 22.0123 20.7892 0.199274 0.150556 -0.493749
22.3787 22.3069 23.0861 -1.23423 -0.637187 -1.91609
ITEM: TIMESTEP
10000
ITEM: NUMBER OF ATOMS
40
ITEM: BOX BOUNDS ss ss ss
1.6068196214121478e+01 2.4878837061998428e+01
1.6268112653527069e+01 2.4523376308225259e+01
1.5550212856639607e+01 2.5448709188743820e+01
ITEM: ATOMS x y z vx vy vz
18.408 19.1738 17.5055 0.0735743 -0.705697 -0.214857
18.8614 19.746 20.2308 -0.754948 1.23681 0.710553
16.6892 18.1673 19.4638 1.50856 -1.1714 -1.26708
19.0778 17.0785 19.3164 0.264698 1.27692 1.12544
20.0976 20.6164 15.5857 -0.584477 1.64831 1.69923
21.7409 19.1564 19.9764 -0.927966 -0.153489 1.17391
23.4492 17.9345 18.3958 -2.06917 0.373717 -2.12764
24.7032 19.3555 20.1445 1.07161 -2.01428 -0.749038
21.5574 16.3717 19.3939 1.79381 0.655188 -0.0417727
22.4563 19.459 15.9413 0.431662 -0.384081 0.2045
20.8417 18.1697 17.2534 -0.276862 1.41879 0.489481
16.5338 20.7865 18.8086 -0.609734 0.341003 0.128993
18.4914 22.5544 19.2908 -0.931251 -0.208301 0.257044
18.1531 21.6358 16.7845 1.16656 -1.51552 0.117324
20.0151 23.4042 17.0949 -0.22262 0.685061 -0.375668
20.5974 20.965 18.1903 2.15076 1.31479 0.46258
20.2257 24.4112 19.736 0.159033 -0.142072 0.783098
23.6 20.5652 18.0059 -1.93664 -1.40807 -0.105095
22.0037 22.0791 16.1259 0.267908 -2.39051 0.961123
22.2026 23.11 18.6133 1.02403 -0.986803 -1.84422
16.4418 20.0434 21.4523 2.13787 0.603346 -0.402776
17.8248 17.6732 21.856 -0.306593 -0.402795 1.38935
18.0326 19.7184 23.7835 0.0786793 -1.42669 -0.046883
19.5001 17.3731 24.0114 -0.853391 1.4281 -0.933539
20.3189 19.3432 25.3731 0.0126825 -0.338532 -1.9652
20.4115 19.7314 22.6395 1.03332 0.384828 0.813634
23.3085 17.3039 21.3483 2.07012 0.668258 -1.85366
22.401 20.5199 24.8405 -2.05155 0.703087 0.763182
20.4971 17.1739 21.6062 0.542319 0.130721 -2.15799
22.0766 17.7816 23.8257 -2.04252 1.77377 0.881116
23.1976 19.7497 22.4204 -1.50736 -0.839437 0.655279
18.2205 24.4235 21.2748 0.688472 0.0525323 -0.209474
16.2667 22.6683 20.6923 1.08841 0.187501 1.15789
19.8875 21.7764 24.301 -0.0530428 0.486479 1.94398
18.4219 21.878 22.1612 0.350126 -1.02374 0.584966
20.2459 23.914 22.78 -1.07455 0.075089 0.402243
23.428 21.5546 20.5137 -0.92605 0.641905 -0.658909
22.4847 24.2052 21.1966 -1.05282 -0.631755 -0.617386
20.8266 21.9298 20.8243 0.929245 -1.17845 -0.991876
22.3019 22.2981 23.0417 -0.661911 0.83543 -0.141839
ITEM: TIMESTEP
11000
ITEM: NUMBER OF ATOMS
40
ITEM: BOX BOUNDS ss ss ss
1.6068196214121478e+01 2.4878837061998428e+01
1.6268112653527069e+01 2.4523376308225259e+01
1.5550212856639607e+01 2.5448709188743820e+01
ITEM: ATOMS x y z vx vy vz
18.3787 18.8855 17.514 0.940472 1.9001 0.0555588
18.9248 19.8836 20.1498 0.327216 -0.857664 -0.343996
16.8402 18.2056 19.4573 -2.67995 -0.113478 0.599334
19.289 17.0614 19.5238 -0.864322 -1.50508 -1.07738
19.9286 19.9415 15.6538 0.191253 -1.69158 -0.710229
21.7215 19.1186 20.0676 0.350941 -0.266501 -0.101891
23.4895 17.8653 17.9504 -0.1736 -0.40198 -1.00547
24.4677 19.185 19.9601 -2.03377 1.35501 0.311913
21.6871 16.2629 19.3462 -0.126539 0.0755731 0.977442
22.4007 19.5713 15.9795 -0.125335 -0.655622 -0.212585
20.8705 18.1275 17.4869 -1.10415 -1.08166 -1.51643
16.7189 20.7858 18.4828 1.34869 0.45868 -1.11794
18.6017 22.5632 19.3384 1.14498 1.18156 0.301784
18.5686 21.6529 16.7251 -0.748681 -0.566755 1.92755
19.8568 23.8212 17.372 0.288992 1.18102 0.461389
20.6643 20.9313 18.2433 0.640724 0.556609 -0.205765
20.1745 24.6057 19.8324 -0.576984 0.0171921 0.646958
23.3112 20.6845 18.1191 0.136468 -0.891007 0.732365
21.4383 22.1042 16.0282 -0.578232 -1.86168 1.28918
22.0827 23.1752 18.7358 0.319584 1.35428 -0.806336
16.5093 20.2415 21.2699 -0.434687 0.0602998 -1.00858
18.0511 17.9847 21.8359 -1.80173 0.555976 0.53545
18.0135 19.8795 23.7694 1.35016 0.0610712 -1.06431
19.3306 17.2825 24.0298 -0.358831 -1.46987 -0.256235
20.1225 19.2826 25.4488 2.15467 0.763277 -0.188143
20.4617 19.6407 22.608 -0.122428 -0.215837 1.59137
23.1004 17.3613 21.344 1.91389 1.50287 0.523052
22.4708 20.3488 24.8192 -1.08109 1.32715 -1.17858
20.5676 16.7188 21.6901 0.344057 0.0459567 -1.35495
21.8953 17.9381 23.8184 -1.04828 1.21539 -0.5029
23.4994 19.7778 22.4512 0.32443 -0.694782 1.05343
17.8757 24.3441 21.2821 0.364283 -0.327284 -0.156053
16.1843 22.5984 20.4161 0.726656 -1.61734 0.319575
20.0122 21.6525 24.253 -0.177045 -0.290925 0.350659
18.3653 22.0885 22.3478 0.512514 -0.135715 -0.141243
20.2618 23.9533 22.6828 0.163953 0.767897 -0.623032
23.6391 21.678 20.559 1.93741 1.10885 0.329625
22.5704 24.3312 21.2913 -1.12313 1.36488 1.45793
20.9221 21.9967 20.898 -0.929328 -0.340699 -0.00889495
22.5317 22.2689 23.0187 0.606762 -1.86819 0.116387
ITEM: TIMESTEP
12000
ITEM: NUMBER OF ATOMS
40
ITEM: BOX BOUNDS ss ss ss
1.6068196214121478e+01 2.4878837061998428e+01
1.6268112653527069e+01 2.4523376308225259e+01
1.5550212856639607e+01 2.5448709188743820e+01
ITEM: ATOMS x y z vx vy vz
18.3403 19.0276 17.3833 -0.0808457 -0.299134 -1.09371
18.8758 19.8238 20.08 -2.00023 1.3661 0.181192
16.6551 18.2334 19.5784 0.247383 -1.67775 0.0619436
19.1755 17.1892 19.4563 1.02238 0.207831 -0.0382225
20.0827 20.4179 15.6189 -0.651173 0.892459 0.167697
21.7945 19.3182 20.0892 -1.02815 -2.17553 -0.797287
23.4397 18.0042 18.1847 -1.1239 0.217196 -1.08097
24.6164 19.2534 20.1713 0.782195 1.11867 -0.422827
21.7338 16.409 19.3319 1.07142 0.849111 -0.665679
22.3683 19.4366 15.9993 -1.44354 1.25391 2.14478
20.8197 18.1751 17.6158 -0.824334 -1.54861 -0.41604
16.4653 20.714 18.8294 2.11096 -0.683457 -0.8313
18.5044 22.4912 19.2214 -0.691215 -0.494381 -0.526167
18.0066 21.4695 16.9173 1.03964 -0.330641 0.79992
20.1327 23.3283 17.154 -0.796383 0.186104 -2.3569
20.6053 20.9835 18.1249 -0.667155 0.281875 -0.548169
20.1178 24.5718 19.7925 -0.366711 0.895873 -0.48474
23.3976 20.6585 17.9834 0.13441 -1.53161 0.120823
22.1967 22.0975 16.2439 2.2598 -1.61708 3.25957
22.3304 23.356 18.542 -0.451449 1.45527 -0.0330309
16.4846 20.1835 21.476 1.25848 1.36948 -0.630527
17.8781 17.8737 21.8761 1.28485 0.350806 0.93394
18.0207 19.6628 23.6907 -0.554761 0.214416 -0.558227
19.5313 17.4115 23.9312 -0.584189 1.35839 0.971845
20.1871 19.2526 25.4748 1.6242 1.68839 -0.96623
20.3752 19.7351 22.586 0.0449936 -1.90523 0.253184
23.2825 17.221 21.2766 -0.0713273 -0.613916 1.10268
22.441 20.1906 24.7556 1.04746 -0.238177 0.739525
20.684 17.1846 21.6459 0.062493 0.661019 -0.335929
22.0209 17.6759 24.0108 -1.02623 1.18218 0.0169563
23.2489 19.5748 22.4612 0.157288 -0.783754 -1.49836
18.0459 24.4297 21.2709 -1.056 -1.30709 0.443221
16.1198 22.5474 20.4925 -1.04164 2.27119 0.147387
20.0475 21.78 24.3059 -0.987694 -2.53054 -0.859213
18.3604 21.9155 22.1894 -1.33522 -0.492594 1.14384
20.3276 23.9559 22.6527 -0.736655 0.393788 0.579206
23.4386 21.6738 20.473 1.65351 -0.617213 -1.02384
22.5 24.1922 21.0868 1.88238 1.60566 0.865051
20.7424 22.042 20.7873 -0.51419 -0.302435 1.23973
22.4045 22.3385 23.0389 0.349146 -0.670562 -0.0051222
ITEM: TIMESTEP
13000
ITEM: NUMBER OF ATOMS
40
ITEM: BOX BOUNDS ss ss ss
1.6068196214121478e+01 2.4878837061998428e+01
1.6268112653527069e+01 2.4523376308225259e+01
1.5550212856639607e+01 2.5448709188743820e+01
ITEM: ATOMS x y z vx vy vz
18.2765 19.1309 17.4157 -0.741697 0.120777 -2.05502