ITEM: TIMESTEP
0
ITEM: NUMBER OF ATOMS
40
ITEM: BOX BOUNDS ss ss ss
1.5874205877050464e+01 2.5374701318687638e+01
1.5916835174618711e+01 2.4341903445324615e+01
1.6498540107869012e+01 2.4455023723802267e+01
ITEM: ATOMS x y z vx vy vz
19.318 17.8878 17.8301 0.292186 0.662702 -1.32419
19.5886 16.4785 20.2658 0.962302 1.11509 0.0923315
17.1182 17.0627 19.2673 1.3389 0.640043 0.317309
18.6528 19.1556 20.3187 -1.69217 -0.682441 -2.44207
17.0885 19.57 18.0483 -0.103082 0.487896 1.2198
23.5478 19.6248 18.3043 -1.67459 -0.352097 0.361456
21.567 18.8372 16.5026 -0.0977956 -0.0502777 1.06409
20.8524 20.06 18.8615 -3.14057 -1.88754 -0.447522
21.8623 17.3951 18.8137 1.62363 -0.683943 -0.248292
18.2963 24.3378 18.4752 0.760607 0.112468 0.763283
15.8783 21.5487 19.42 -1.21632 1.18613 -0.996758
17.2107 22.2042 17.0994 0.999081 0.0232032 0.902603
19.2979 20.3983 16.6127 -2.14751 0.600995 -0.337704
18.6611 21.7959 19.3312 1.10383 -0.519651 -1.20767
19.7911 23.0038 16.7345 0.223321 -1.85829 0.252741
25.3706 20.265 20.2304 1.0568 0.379839 0.888531
22.0956 21.4724 16.8462 2.09075 -0.218188 0.499983
21.2451 22.8711 19.0151 -2.43188 -0.379601 -0.353953
23.9627 22.3111 18.9796 -1.96191 -1.28075 1.23034
15.9172 19.0556 20.5673 -1.9334 1.48864 0.346581
18.9945 19.3458 23.119 -0.938924 2.10734 -2.70824
20.1783 16.8257 22.9982 1.08203 -0.59419 0.0747332
17.5999 17.2818 21.9709 2.45177 -1.2364 -0.799003
21.5922 19.4605 23.9225 -1.50849 1.06303 0.826177
23.8498 18.0436 20.6359 0.792126 0.431784 -1.25188
24.209 19.7465 22.7777 -0.756332 -0.209485 -0.378929
21.2099 18.6003 21.3196 0.947055 0.479756 1.01559
22.9682 17.3179 23.1648 -0.316479 0.0260857 1.47046
22.0747 15.9209 21.1232 0.692654 2.05062 -0.668519
18.2791 23.2144 23.0795 0.951427 0.105791 0.0291641
19.9902 21.5963 24.4509 -0.228512 1.53815 -1.67998
20.1876 21.5554 21.7444 0.894601 -0.865714 1.16758
19.6684 24.1586 20.869 -0.0569144 -0.565439 0.629221
16.9941 23.6263 20.7148 -1.3276 0.406774 0.654376
17.2712 21.0897 21.7812 0.718146 -1.03407 1.84047
22.7065 20.8426 20.7965 1.88188 -0.885757 -0.454542
20.8163 23.9456 23.3573 -0.0396724 0.450915 0.277961
24.7914 22.331 21.765 0.828822 -0.423227 -0.188227
22.4903 23.6356 21.2577 0.414507 -0.0950622 -0.345221
22.6065 21.9259 23.428 -0.53429 -1.53513 -0.0920882
ITEM: TIMESTEP
1000
ITEM: NUMBER OF ATOMS
40
ITEM: BOX BOUNDS ss ss ss
1.5874205877050464e+01 2.5374701318687638e+01
1.5916835174618711e+01 2.4341903445324615e+01
1.6498540107869012e+01 2.4455023723802267e+01
ITEM: ATOMS x y z vx vy vz
19.1949 17.8133 17.9317 0.504365 -0.397171 -1.74361
19.5277 16.4384 20.1091 0.146876 -0.698769 -0.932455
17.0043 17.1531 19.3862 0.213938 0.426714 -0.33813
18.5491 19.2662 20.3902 -1.36771 -0.276148 0.238977
17.07 19.5123 17.9279 -0.805006 -0.0048169 0.230674
23.6514 19.5102 18.1964 -0.112581 -1.5577 -0.0141957
21.6218 18.8053 16.4981 -0.909847 -0.0439592 -0.697079
20.8721 20.02 18.8724 0.535628 -0.260338 -1.55746
21.8466 17.5098 18.6904 1.69385 -0.765566 0.946383
18.6629 24.4544 18.5049 -1.05365 0.32094 0.785164
16.0175 21.281 19.5719 -0.936914 -0.285285 0.514441
17.26 22.2377 17.3187 0.324802 0.0573337 -0.480695
19.344 20.3482 16.6406 -0.251261 0.587055 0.166944
18.7318 21.8698 19.3997 -1.03014 0.872615 -0.99899
19.9119 22.9512 16.633 -0.565373 0.762146 0.185853
25.338 20.2332 20.2636 1.07635 -0.226427 -0.451847
22.2648 21.4766 17.0885 -0.408873 -0.635106 0.0300761
21.1183 22.9668 18.9399 0.193895 -2.02685 0.502449
23.9272 22.3516 19.1302 0.689677 0.520296 -0.0299836
16.0181 19.0957 20.8577 1.29856 0.255857 0.478906
18.8641 19.2313 23.1922 -0.0617272 -0.794867 1.16158
20.3258 16.7739 22.9575 0.012333 0.614 -0.538147
17.8254 17.2943 21.9824 0.878586 0.448052 -1.93626
21.5394 19.5392 23.7148 1.82078 1.01574 1.26878
23.7964 18.122 20.5922 1.26693 0.698125 0.419223
24.1987 19.7569 22.6361 -0.0641024 -0.713814 1.77394
21.0986 18.5904 21.3523 -2.88338 -0.27251 0.342114
22.89 17.2794 23.1557 1.12665 -0.0826911 -0.439416
22.1154 16.0357 20.9328 1.13133 0.451026 0.709973
18.2729 23.3514 22.8445 -0.0998488 0.0510213 0.610286
19.6948 21.5894 24.4369 -0.13095 0.602765 1.28818
20.1335 21.4302 21.7469 -0.425995 1.77506 0.0601195
19.6523 24.3042 20.899 -0.193944 0.225954 -0.707496
16.9972 23.4972 20.4505 1.01901 0.559468 0.293595
17.3774 21.1078 22.0446 -2.00453 0.972175 -0.0434823
22.6593 20.8853 20.7808 -0.472794 0.22581 1.46842
20.7495 23.8532 23.3455 -0.179014 -1.27452 -1.23066
24.6831 22.3251 21.8238 -1.00159 -1.27244 0.0193836
22.401 23.5474 21.0822 1.4177 -0.281014 0.628148
22.5929 21.9907 23.4783 -0.392025 0.427841 -1.9837
ITEM: TIMESTEP
2000
ITEM: NUMBER OF ATOMS
40
ITEM: BOX BOUNDS ss ss ss
1.5874205877050464e+01 2.5374701318687638e+01
1.5916835174618711e+01 2.4341903445324615e+01
1.6498540107869012e+01 2.4455023723802267e+01
ITEM: ATOMS x y z vx vy vz
19.4344 18.0926 17.9719 -1.01024 -0.0542499 0.178792
19.5549 16.7586 20.2786 0.249643 -0.72258 0.400205
17.1525 17.2127 19.4116 -0.37449 -0.970161 -0.552108
18.6177 19.2187 20.3818 -0.828378 -0.154379 0.0548492
17.2822 19.6228 18.0349 -1.26526 0.577112 -0.424298
23.685 19.611 18.3235 0.414668 -0.927133 -0.376552
21.5908 18.7883 16.4846 0.517503 -0.789713 -0.677499
21.151 20.0841 18.8028 0.790937 -0.690142 -1.11961
21.9896 17.4329 18.8136 0.717821 1.06913 -1.41739
17.9178 24.0679 18.4074 0.987526 -0.2702 -0.0830013
16.0563 21.6251 19.4179 0.414085 1.61143 -0.787626
17.337 22.0587 16.8851 -1.16243 -0.926349 0.287204
19.4475 20.3807 16.6535 0.200876 -0.250554 -1.80099
18.6607 21.7333 19.2941 0.189097 0.794327 -0.584746
19.8279 23.0404 16.8039 1.02772 0.500441 0.295686
25.3481 20.3204 20.0992 0.173631 -0.838925 0.503575
21.9473 21.6135 16.8928 -0.535829 0.846507 -0.686419
21.2094 22.8057 19.1557 0.0619331 -0.847351 1.74558
23.9204 22.3823 19.0022 -0.784039 0.0393258 0.160206
15.9078 19.1843 20.509 -0.770587 0.678493 0.329937
19.047 19.2377 23.2957 0.00238656 -1.24467 0.755175
20.0687 16.82 22.9255 1.36785 1.23937 -0.147127
17.4874 17.4829 22.0954 0.0816265 -0.131769 -0.0535512
21.7077 19.5105 23.8366 -0.513434 -0.853879 -0.060305
23.8758 17.9272 20.7079 0.993658 1.19712 -0.389646
24.2077 19.6347 22.7688 -0.0732802 0.47713 -0.30629
21.1803 18.6487 21.2673 -1.01374 0.227553 1.18719
22.7183 17.334 23.0954 0.530446 -0.527249 -0.0118393
21.8869 15.9518 21.0981 -0.773778 -0.591343 1.30335
18.1661 23.0463 23.1931 -0.0441517 -1.19105 0.329777
19.9757 21.5937 24.3644 2.20006 -0.11236 0.225665
20.1201 21.5755 21.6985 0.0714727 0.116574 1.02542
19.4752 24.0512 20.8118 -1.41698 0.897374 -1.24197
16.9829 23.5517 20.7921 0.53136 -0.464965 -0.296855
17.2933 20.9604 21.9508 0.601153 -0.047476 0.082586
22.7723 20.7384 20.6581 -0.655531 -0.325972 -0.126157
20.8406 24.0236 23.1355 0.216877 1.18241 0.046425
24.8261 22.3261 21.6041 -0.437862 0.0881644 0.163982
22.5769 23.502 21.3831 -0.182176 0.160064 0.509789
22.5528 21.8496 23.4937 -0.500131 1.22995 1.5586
ITEM: TIMESTEP
3000
ITEM: NUMBER OF ATOMS
40
ITEM: BOX BOUNDS ss ss ss
1.5874205877050464e+01 2.5374701318687638e+01
1.5916835174618711e+01 2.4341903445324615e+01
1.6498540107869012e+01 2.4455023723802267e+01
ITEM: ATOMS x y z vx vy vz
19.4444 17.859 17.9468 -0.29228 0.419759 0.0213395
19.5562 16.5686 20.2832 0.624887 -0.0542783 -0.0195933
17.3044 17.2619 19.2833 0.255161 -1.20636 0.212777
18.5654 19.316 20.4862 -0.221021 0.441087 -1.35868
17.2688 19.7448 17.9499 1.08105 0.843361 0.0513198
23.5322 19.6576 18.2278 -0.164383 1.023 0.928358
21.7637 18.9908 16.5161 -0.128132 -0.882494 -1.13647
20.8828 20.0893 18.9511 0.942844 -0.500473 0.49402
21.8995 17.4939 18.8762 -1.63038 0.534632 -0.199864
18.0998 24.1905 18.5417 0.57128 0.392016 0.592722
15.7012 21.516 19.2389 -0.170638 0.860538 -0.384722
17.1822 22.1657 17.1226 -0.949849 -0.364918 0.0376868
19.4685 20.4225 16.7696 -1.46664 0.957641 -1.18586
18.6055 21.7077 19.2821 1.08576 0.546528 -0.933037
19.7639 23.0252 17.0236 0.191221 -0.314345 -1.25306
25.3264 20.1091 20.0436 0.319332 -0.0787492 1.20978
22.1378 21.6443 16.8259 1.64989 -0.193509 0.99985
21.1414 22.9142 19.1437 -0.946929 -0.801334 -0.121956
23.93 22.0654 19.0005 -0.696531 -0.133514 0.660231
15.7201 19.0347 20.3911 0.690925 -0.7909 0.561724
18.9727 19.5964 23.1928 -1.91779 0.31993 -0.00581441
19.9908 16.8553 22.8329 1.16491 0.011622 0.582283
17.4715 17.5596 22.012 0.146185 0.392473 1.19259
21.7209 19.493 23.8401 -1.13574 -0.221379 0.969764
23.8038 18.0702 20.7509 -1.02836 -1.55026 0.400629
24.3263 19.771 22.7998 0.619195 0.70288 -0.835605
21.2282 18.6275 21.3933 0.511987 -0.721505 -0.766675
22.9277 17.3293 23.1742 -0.205629 0.693829 0.34951
21.9426 16.132 21.1271 -0.37326 -0.6085 -2.17764
18.29 22.9014 23.0376 0.318076 0.266668 0.244366
20.148 21.5614 24.3795 -0.930458 -0.0266136 0.818788
20.3722 21.4217 21.6481 1.15264 -0.49869 -0.0552261
19.5428 24.0679 20.925 -0.734656 -0.376905 0.119396
16.9558 23.285 20.7339 -1.44521 -1.1888 0.343278
16.8759 20.9138 21.7739 0.413214 0.0813009 1.24355
22.8398 20.7765 20.9134 0.215981 -0.171298 -1.0669
20.8439 23.9517 23.0177 0.49444 1.61522 -0.910321
24.9492 22.2872 21.7526 0.828663 1.4068 0.418995
22.6107 23.4719 21.2117 0.556443 0.30793 -0.671454
22.6927 21.9501 23.3796 0.603805 -1.1324 0.629926
ITEM: TIMESTEP
4000
ITEM: NUMBER OF ATOMS
40
ITEM: BOX BOUNDS ss ss ss
1.5874205877050464e+01 2.5374701318687638e+01
1.5916835174618711e+01 2.4341903445324615e+01
1.6498540107869012e+01 2.4455023723802267e+01
ITEM: ATOMS x y z vx vy vz
19.2185 18.0511 17.8871 -1.41188 -0.067989 0.921007
19.4862 16.4699 20.2619 0.613702 0.639614 -1.36902
17.0446 17.2195 19.1743 -0.285176 0.205137 -0.018463
18.6818 19.1348 20.3502 -0.613857 -0.441728 -0.599023
17.0917 19.7233 17.9736 1.25299 -0.181783 0.550151
23.586 19.5819 18.3325 -0.225639 0.198064 1.59256
21.5441 18.6856 16.5451 0.00208011 -0.300545 -0.424934
20.8329 20.1179 18.9035 1.57888 0.659431 1.83739
21.9339 17.3972 18.8605 -0.778183 0.142275 0.216989
18.4748 24.261 18.5558 0.473619 0.36178 -0.469757
16.0198 21.5898 19.5887 -0.578344 -0.529616 -0.498026
17.4419 22.324 17.0642 0.62647 0.727931 0.128761
19.4888 20.3915 16.5796 0.154201 -0.499452 0.0841482
18.5836 21.6588 19.3175 -0.935813 0.0251388 1.61423
19.857 22.9618 16.6676 -0.686533 1.18789 -1.85412
25.3836 20.4619 20.3941 -1.31792 -0.44379 -0.0195433
22.1294 21.336 16.8614 0.356485 0.463747 -0.459598
20.9681 22.9898 19.0021 -0.686933 -0.742594 -1.42214
23.7522 22.2761 18.8422 1.80092 0.575555 -0.206718
15.9843 19.108 20.4726 1.14003 -0.876592 1.67991
18.962 19.2027 23.361 -1.87862 0.760318 1.69072
20.2643 16.8532 22.87 0.858976 -1.3677 -0.175189
17.5813 17.3984 22.1013 0.584336 -0.138035 -0.636646
21.6116 19.6205 23.7947 0.806223 1.35393 -1.91313
23.9843 18.0259 20.5679 0.879573 -1.4035 0.30595
24.2011 19.7612 22.7347 0.69069 -0.598499 -0.842916
21.0904 18.4768 21.2906 -1.1027 -0.580673 0.0602447
22.8863 17.5628 23.099 0.710438 0.509681 0.544827
22.2491 16.0103 21.0793 0.129064 0.176403 -0.359503
18.2269 23.3563 23.0736 -0.006754 1.18576 1.95335
19.6903 21.4579 24.3231 -0.406878 -0.88074 -0.315921
20.1135 21.4687 21.7755 0.326938 1.61828 -1.10098
19.6384 24.1376 21.1094 -0.175608 -1.13287 -0.505787
17.1059 23.5927 20.672 -0.680192 0.331944 -1.36934
17.4162 21.02 21.9138 -0.778558 -0.212733 -0.346733
22.7053 20.6175 20.8952 -0.185729 -0.11374 -0.129056
20.8227 23.6913 23.3996 0.360578 1.0521 0.640967
24.71 22.501 21.6893 -0.963893 0.354304 0.511137
22.3808 23.3437 21.0454 0.496301 -0.207204 0.329442
22.6567 21.9615 23.37 -0.143294 -1.80951 0.374763
ITEM: TIMESTEP
5000
ITEM: NUMBER OF ATOMS
40
ITEM: BOX BOUNDS ss ss ss
1.5874205877050464e+01 2.5374701318687638e+01
1.5916835174618711e+01 2.4341903445324615e+01
1.6498540107869012e+01 2.4455023723802267e+01
ITEM: ATOMS x y z vx vy vz
19.2091 17.931 17.9426 -0.926729 0.141778 0.633103
19.6799 16.4321 20.1389 -0.233791 -0.098023 0.645237
17.1523 17.1048 19.2927 0.00503342 1.67538 -0.887882
18.6687 19.1611 20.1312 -0.0341617 -1.56987 0.680831
17.0007 19.597 18.0414 -0.0651118 -0.63145 1.57941
23.4875 19.6592 18.4416 0.296204 0.788224 -0.970524
21.4847 18.8411 16.6331 -0.482441 -0.420105 0.553913
20.9445 20.1343 19.024 -1.71352 -0.479562 1.54384
21.9847 17.3894 18.7549 1.53781 -1.30796 -0.117238
18.5217 24.2181 18.394 -0.575402 0.897329 -0.2415
15.7657 21.3992 19.6606 0.746723 1.02706 1.08825
17.0943 22.4728 17.3393 0.00277103 -0.0825317 -2.9058
19.2079 20.4703 16.786 0.390511 -0.712396 0.0316563
18.5938 21.7611 19.3733 -1.0387 -0.887784 0.207566
19.7481 22.9744 16.5985 1.30532 1.97136 0.174389
25.2998 20.3204 20.3866 -1.11211 -1.15805 -1.1271
21.9937 21.4818 16.8734 0.774389 0.253646 -0.706695
21.2064 23.0559 18.8085 -1.14486 -1.38958 -0.00241112
23.8501 22.2645 19.1604 0.239844 0.146421 -1.1666
16.1289 19.1908 20.795 0.829443 0.415685 0.367406
19.1541 19.2136 23.0569 -0.465738 0.0195914 -0.92644
20.1574 16.6163 22.8814 -2.16375 -0.798562 0.321392
17.7893 17.2145 21.9687 -0.970244 -0.502442 -0.707311
21.7 19.4121 23.7126 1.31965 0.353018 0.134657
23.8576 18.0251 20.6405 0.952107 0.0409443 0.130546
24.3823 19.7215 22.907 -1.5759 0.760993 -0.860332
21.0899 18.4383 21.2039 1.40181 1.10767 -1.15422
23.0389 17.3996 23.0724 -0.469346 0.925137 0.236412
22.166 16.0444 21.1016 -0.376569 0.121747 0.00128851
18.2729 23.4439 22.8226 -0.616586 -1.77989 -0.0440226
19.7028 21.5275 24.2202 0.974141 0.500447 1.11391
20.1745 21.5656 21.6651 1.05155 -0.660337 0.290351
19.8712 24.1866 20.8041 -1.30642 -0.0998585 -0.381755
17.0419 23.6616 20.4236 2.05678 -0.0613787 -0.152455
17.4231 21.2457 21.9008 0.604797 0.101489 -0.984823
22.6429 20.654 21.1095 0.585989 0.950433 1.19057
20.699 23.9672 23.2952 -1.20072 -0.27236 1.31896
24.7662 22.2618 21.8937 0.995188 2.26943 0.69983
22.436 23.3656 21.1405 -0.724729 -0.00857051 -0.436174
22.4116 21.9755 23.4035 1.12677 -1.54708 0.829767
ITEM: TIMESTEP
6000
ITEM: NUMBER OF ATOMS
40
ITEM: BOX BOUNDS ss ss ss
1.5874205877050464e+01 2.5374701318687638e+01
1.5916835174618711e+01 2.4341903445324615e+01
1.6498540107869012e+01 2.4455023723802267e+01
ITEM: ATOMS x y z vx vy vz
19.2967 17.9362 17.6599 -0.752274 1.07967 -0.258295
19.5619 16.6157 20.3115 -0.981539 -0.548882 -0.270455
17.2438 17.1413 19.194 -0.362404 1.47492 0.846785
18.7722 19.1082 20.4082 0.946101 -1.43832 -0.505808
17.1601 19.598 18.1054 -0.168948 -0.659203 0.723984
23.6366 19.5399 18.173 1.5747 0.31529 0.422957
21.5042 18.8803 16.4216 -1.41635 0.0323913 -0.330829
20.7102 20.3385 18.7623 0.90747 0.655866 0.587565
21.7657 17.6164 18.9162 -0.821412 0.163666 -0.0753341
18.3288 24.1709 18.5058 -0.718249 -1.02932 -0.0157559
15.9424 21.6322 19.3559 -0.990054 0.310871 -0.616191
17.3572 22.1656 17.1079 0.523873 1.3048 0.351157
19.2175 20.2776 16.452 1.19858 -1.23332 2.11477
18.691 21.7418 19.4413 -1.4791 -0.505427 0.257136
19.9303 22.6218 16.7504 -0.105299 0.528206 -0.178073
25.3515 20.289 20.0312 0.467258 0.0427867 1.17956
22.2802 21.587 16.9293 0.594829 0.789461 0.671418
21.148 23.0999 19.0868 0.510213 0.203051 -1.58875
23.8915 22.2515 18.9308 -2.12775 0.0871417 0.217445
15.7819 18.9533 20.3056 0.924536 0.370873 -0.620874
19.0339 19.7002 23.287 -0.495054 0.677941 -1.92395
19.9655 17.0855 23.0873 -0.99966 -1.50997 0.195868
17.5378 17.7189 22.0381 0.657374 0.0643578 0.945985
21.6398 19.3633 23.9795 1.10894 0.307725 0.240626
23.8699 17.9989 20.582 -1.32757 0.952643 0.872409
24.1042 19.7052 22.594 0.493855 -0.0987405 -0.485046
21.329 18.7291 21.4895 1.50884 0.432274 -0.11147
22.917 17.2363 23.3195 -0.0726404 -0.626605 0.427758
21.9297 16.2058 21.0475 0.40608 -0.413236 -0.82506
18.3511 22.6097 23.0569 -0.863688 0.908196 -0.587742
20.2955 21.6597 24.6501 2.12485 0.252941 -0.222901
20.4404 21.5399 21.7786 0.747226 0.41995 -1.03579
19.6205 24.1635 21.0243 0.0634605 -0.181505 -0.456733
17.0234 23.4315 20.6676 -0.540723 0.850795 -1.55394
17.1003 20.6449 21.6923 -0.671001 -1.27396 0.589271
22.6617 20.8591 20.6087 0.685262 0.153722 0.671281
20.4998 23.942 23.3734 -0.808155 -1.82868 1.24466
24.8193 22.2051 21.837 -0.770323 -0.235426 0.0942147
22.4654 23.4934 21.3324 0.459844 -1.34751 -1.48141
22.6244 21.9429 23.5054 0.568894 0.550575 0.489558
ITEM: TIMESTEP
7000
ITEM: NUMBER OF ATOMS
40
ITEM: BOX BOUNDS ss ss ss
1.5874205877050464e+01 2.5374701318687638e+01
1.5916835174618711e+01 2.4341903445324615e+01
1.6498540107869012e+01 2.4455023723802267e+01
ITEM: ATOMS x y z vx vy vz
19.3283 17.9871 17.7578 -0.234853 1.79517 0.442104
19.6602 16.3676 19.9856 0.233491 0.861824 0.213334
17.1731 17.1852 19.4676 0.450189 0.289123 -0.245485
18.7628 19.2064 20.2663 -0.240181 -0.748267 -0.505695
17.3184 19.6348 17.9812 -1.15709 0.462049 0.747747
23.5219 19.613 18.2749 1.27173 -0.227608 0.659115
21.4753 18.7126 16.4616 0.904669 0.104443 0.39054
20.9884 20.2912 18.875 -0.80964 -0.903022 0.890874
21.7958 17.3985 18.6925 -0.201418 1.43446 -2.78243
18.5881 24.3342 18.4452 0.700776 -0.78195 -0.91679
16.0238 21.2759 19.6949 0.250365 -0.107065 -0.645479
17.3413 22.3215 17.1786 0.839387 0.104185 -1.09906
19.4337 20.3597 16.4725 -0.664502 -0.297941 -0.0766726
18.6645 21.8808 19.3723 -0.0386498 -0.372499 0.696352
19.8484 22.9387 16.6107 -0.646906 -0.0621877 1.25994
25.1442 20.1401 20.296 0.710665 -0.391753 2.14132
22.1393 21.4802 16.6762 -0.866732 -0.417878 0.0698469
21.1535 23.1306 18.8447 0.0151021 1.77727 -1.84245
23.6965 22.1501 18.9955 -0.0302015 -0.798565 0.156427
16.2272 18.9833 21.0081 1.54139 -0.200744 0.620356
18.9857 19.1406 23.1218 -0.573331 -1.63182 1.24616
20.2889 16.5511 22.9775 0.247321 -1.60176 -0.0898559
18.0224 17.2125 21.8943 0.28276 -0.296523 1.71428
21.5176 19.6973 23.6868 -0.122095 0.426464 0.211567
23.6565 17.9665 20.565 0.170626 -0.46319 -0.534934
24.224 19.7124 22.9043 -0.72037 0.672171 -0.490252
20.9254 18.4547 21.2463 0.222999 -1.44765 0.419161
22.6817 17.6008 23.2206 1.10445 -0.19076 0.748829
22.0381 15.9018 21.091 -1.0518 -1.15992 -0.9809
18.2477 23.4877 23.0749 -0.276429 1.51122 0.266475
19.6629 21.6718 24.2615 -0.544873 -0.0624735 0.188752
20.2371 21.683 21.8154 0.105154 -0.925234 2.36919
19.6703 24.2204 20.9323 -0.16797 0.850096 0.647662
17.0372 23.4894 20.62 -0.0154973 1.26284 -1.15224
17.4043 21.1308 22.0202 0.813878 0.723278 -0.297967
22.5951 20.6484 21.0585 0.0233747 0.613133 -1.03865
20.8142 23.9606 23.4449 -1.10089 -0.0959151 -1.29865
24.5608 22.2657 21.6082 -1.03252 1.13532 -0.560003
22.4583 23.5307 21.2141 0.994984 0.887453 -0.359132
22.4871 22.0825 23.6853 -0.387367 -1.72578 -1.18337
ITEM: TIMESTEP
8000
ITEM: NUMBER OF ATOMS
40
ITEM: BOX BOUNDS ss ss ss
1.5874205877050464e+01 2.5374701318687638e+01
1.5916835174618711e+01 2.4341903445324615e+01
1.6498540107869012e+01 2.4455023723802267e+01
ITEM: ATOMS x y z vx vy vz
19.2319 17.8563 17.5855 -0.869423 -1.42961 -0.502005
19.8099 16.4114 20.0774 0.232506 0.883596 0.682396
17.3263 17.0715 19.2846 0.109685 -0.335079 0.38661
18.7687 19.047 20.311 0.133324 -0.666931 1.02677
17.1888 19.6688 18.3014 -0.728874 -0.359547 -1.73189
23.5018 19.636 18.2209 -0.47952 -1.61518 -0.462786
21.4662 18.9643 16.4987 -1.67478 0.0674025 1.0691
20.7535 20.1027 18.7617 0.495517 -0.482122 1.71939
21.822 17.6565 18.8082 0.900469 0.420756 -2.30544
18.6832 24.3764 18.4246 1.90588 -0.815694 -0.000940282
15.757 21.4899 19.5992 0.180993 0.0728019 0.597124
17.1199 22.3403 17.4199 -0.618437 0.603316 -1.36491
19.1374 20.3576 16.6426 2.02007 0.828421 -1.28872
18.706 21.8199 19.4012 -1.04234 0.101959 0.287719
19.7083 22.8788 16.8308 0.331971 0.780344 0.119359
25.3312 20.3922 20.1472 0.335986 -1.25531 -0.50153
22.1877 21.5557 16.81 1.58726 0.0745695 -0.143543
21.303 22.7131 19.0165 -0.40828 1.11674 -0.162234
23.9766 22.1803 18.8942 0.073093 0.541091 0.779002
15.9709 18.9973 20.6441 -0.0481644 -0.959905 -1.45162
18.7907 19.4719 23.0926 2.20247 0.720004 0.431668
20.2339 17.0274 23.1378 -0.610112 0.525768 -0.419255
17.7563 17.2811 21.8794 0.352997 0.492237 0.0391504
21.2849 19.3198 24.14 1.69179 -1.19252 -0.258491
23.7287 18.0941 20.6243 -0.737256 -1.09765 0.996744
24.3187 19.9262 22.7439 -1.06693 0.546155 -0.766131
21.1271 18.6816 21.4151 0.19066 -0.614559 -0.977387
22.8548 17.5997 23.1943 -0.114473 0.499327 1.22315
22.0106 16.0423 21.253 -1.54715 0.859906 0.901486
18.2449 23.1032 22.8204 1.50369 -1.03539 -0.251095
19.6659 21.6948 24.3403 0.0224265 0.5343 1.37297
20.2121 21.4337 21.7409 0.739619 -0.0110889 0.125954
19.8553 24.1198 20.9422 -1.11476 -1.40542 -0.826626
17.1723 23.5198 20.4198 -0.0993134 1.42953 2.44724
17.2182 21.0717 21.6901 0.556223 0.157287 0.673786
22.727 20.7853 20.7772 0.856901 1.93336 -0.130339
20.9741 23.7118 23.3482 -2.49275 -0.835443 0.154804
24.7476 22.2917 21.834 0.22976 0.432022 -1.72636
22.5703 23.472 21.228 -2.21611 0.390452 -0.240765
22.5563 21.6363 23.4989 -0.784613 0.100122 0.477659
ITEM: TIMESTEP
9000
ITEM: NUMBER OF ATOMS
40
ITEM: BOX BOUNDS ss ss ss
1.5874205877050464e+01 2.5374701318687638e+01
1.5916835174618711e+01 2.4341903445324615e+01
1.6498540107869012e+01 2.4455023723802267e+01
ITEM: ATOMS x y z vx vy vz
19.2878 17.8124 17.8701 2.00045 0.37443 -1.55683
19.5483 16.4227 20.4015 1.78583 0.960903 -0.464639
17.2151 17.1487 19.2515 -0.67256 1.05257 -0.106249
18.6513 19.1545 20.2258 0.813963 -1.52877 -1.59367
17.1369 19.5125 17.9154 -0.564324 0.913544 2.57619
23.6373 19.8664 18.2519 0.390398 -0.912793 -0.255091
21.6038 18.8901 16.5156 -0.359935 0.687069 0.112745
20.8719 20.0647 18.7784 -0.617133 2.03056 1.39723
21.8612 17.6125 18.9225 -0.959597 1.6432 0.549236
17.9585 24.0368 18.3377 -0.262197 0.0806696 -0.0490693
15.9762 21.79 19.1963 -0.364828 -0.531045 1.21389
17.2124 22.1132 16.9435 0.903375 -1.11093 -1.34713
19.2708 20.2866 16.5839 -0.345655 -0.315177 1.88133
18.6415 21.6278 19.3125 -0.388831 1.39744 0.0838609
19.7797 22.8065 16.8889 -0.301785 -0.67636 -0.403364
25.4529 20.296 20.1282 1.14497 -0.403378 -0.505933
22.1238 21.4397 16.8794 -0.791312 -0.341975 0.660228
21.1395 22.7593 19.0625 1.29016 0.185819 1.05572
24.0209 22.3905 19.2265 0.635854 0.640068 -0.319282
15.8782 19.2775 20.2429 0.724495 0.715788 1.12208
18.915 19.6387 23.3288 -2.17285 0.00883976 -0.194058
20.0033 17.1927 23.0028 -0.188937 -0.231145 -0.364899
17.4179 17.5855 21.9417 0.438205 -1.96839 -0.602965
21.6785 19.4048 23.9382 -0.96138 0.976978 -2.42381
23.8668 18.0844 20.6341 0.731621 -0.427489 -0.559758
24.3366 19.7667 22.8033 0.40411 -0.4411 0.208065
21.11 18.7074 21.3786 -0.725442 0.39002 1.96145
22.9878 17.4725 23.0583 -1.85075 0.224658 0.345771
21.9825 16.1567 21.1043 0.769196 -0.692397 0.0191063
18.2831 22.7907 23.2995 1.06339 -0.734374 0.578851
20.3805 21.6008 24.6303 0.921443 1.77357 0.235936
20.2247 21.4917 21.8387 -0.239684 -1.38715 -0.329325
19.6324 24.0889 20.9002 1.01028 -1.01212 -1.18545
17.1193 23.5866 20.8689 -2.53288 -0.85336 -0.693316
17.0708 20.9847 21.6768 -0.0961971 1.3998 -0.953007
22.7249 20.6418 20.6429 -0.177182 -0.0617624 0.5047
20.8508 23.9047 23.4052 0.315923 -0.162196 -0.935537
24.8253 22.1656 21.8016 0.949572 -0.93848 -1.45257
22.4159 23.4599 21.2567 -0.816111 -0.628037 0.215217
22.7057 21.767 23.3541 -0.903682 -0.0975017 1.57436
ITEM: TIMESTEP
10000
ITEM: NUMBER OF ATOMS
40
ITEM: BOX BOUNDS ss ss ss
1.5874205877050464e+01 2.5374701318687638e+01
1.5916835174618711e+01 2.4341903445324615e+01
1.6498540107869012e+01 2.4455023723802267e+01
ITEM: ATOMS x y z vx vy vz
19.4551 17.9224 17.9635 -0.480034 1.13681 0.744611
19.4192 16.4939 20.2214 1.18381 -0.693309 -0.427109
17.0718 17.237 19.1809 -1.5231 -0.974013 1.02361
18.655 19.1955 20.4149 -0.789199 -0.214632 -1.84193
17.3572 19.6611 17.972 -0.906657 0.580557 1.14354
23.5989 19.6601 18.2874 0.634461 1.23957 -1.69532
21.5994 18.9098 16.4534 0.960161 1.82966 -1.40621
21.0179 19.9336 18.7834 0.775223 0.29644 -0.339543
21.9526 17.1267 18.8402 -0.446091 -0.650272 1.04013
17.3985 24.0967 18.4231 1.13217 -2.52799 -0.184088
15.9624 21.5724 19.2026 0.193511 0.305641 0.305936
17.1342 22.1603 16.8962 1.00612 -0.965498 -1.81589
19.4449 20.6353 16.6202 0.697702 0.243114 1.43141
18.5834 21.7273 19.4189 -0.445053 0.358142 -1.56067
19.6355 23.182 17.3309 -1.25415 -0.973944 0.765325
25.2731 20.1272 20.226 -0.358581 0.310216 -1.20874
22.0986 21.4417 16.9309 -0.33865 -1.66222 -1.71648
21.3296 22.6318 19.2825 0.897673 0.619042 0.457098
24.0887 22.3458 19.1619 -0.512147 -2.23119 0.283343
16.1452 19.26 20.5976 0.675722 0.548294 0.724549
19.1431 19.33 23.1065 -0.475643 0.262474 -0.212805
20.1371 16.6656 22.8692 -1.44661 0.0652316 -0.972819
17.6145 17.4537 22.0204 0.130543 0.489049 0.994914
21.7329 19.64 23.8615 1.503 -0.515487 -0.0436943
23.6467 18.0356 20.649 -0.345941 -0.331873 1.27485
24.2934 19.5981 22.7853 -1.22393 0.185293 0.832124
21.1701 18.5736 21.2866 -0.13331 1.84548 -0.808482
22.8216 17.4 23.1481 -0.828372 -0.0298581 0.255214
22.0735 16.0091 21.1145 -0.695347 1.01363 0.0445161
18.3124 23.4154 22.8801 -0.905948 -0.153225 -1.00015
19.9112 21.7536 24.3862 -0.274101 0.115111 0.102878
20.2178 21.4819 21.6286 0.573342 -1.66282 0.43646
19.5062 24.1474 20.507 1.1545 0.123204 1.92391
16.8661 23.5292 20.7869 -1.18682 -1.0542 1.00553
17.3405 21.0902 22.0943 -0.103027 -0.372589 -0.778298
22.7442 20.811 20.8506 1.78234 2.26088 -1.21791
20.7679 23.9577 22.9424 0.340474 -0.361389 1.66114
24.9 22.1403 21.8826 0.590753 0.340099 -0.245806
22.7644 23.5755 21.3311 1.04939 1.09816 0.591438
22.6153 21.8718 23.4611 -0.60819 0.108407 0.433406
ITEM: TIMESTEP
11000
ITEM: NUMBER OF ATOMS
40
ITEM: BOX BOUNDS ss ss ss
1.5874205877050464e+01 2.5374701318687638e+01
1.5916835174618711e+01 2.4341903445324615e+01
1.6498540107869012e+01 2.4455023723802267e+01
ITEM: ATOMS x y z vx vy vz
19.4355 17.9178 17.703 -0.953829 -0.185417 0.275787
19.54 16.7041 20.3318 -0.628185 -1.12198 1.07112
17.1001 17.1984 19.391 -1.44616 -1.6908 -1.11518
18.6145 19.3037 20.354 1.12104 1.36847 0.109188
17.2177 19.6476 17.9558 -2.12548 -1.12913 -0.427827
23.6527 19.5806 18.1767 1.17256 -0.3861 0.590007
21.5831 18.6902 16.4926 -0.734767 0.0555069 -0.357215
20.9947 19.9925 18.8266 0.62997 -0.322127 0.617555
21.8972 17.4458 18.8973 -0.795914 0.912539 -0.435876
18.638 24.281 18.702 1.78128 0.0642298 -0.0465453
15.8937 21.5558 19.226 2.16835 -2.48075 -0.36672
17.2552 22.1751 17.1461 1.41449 0.0864124 0.660264
19.3622 20.377 16.6291 -0.505213 0.23692 1.10745
18.7403 21.8253 19.3802 0.800255 -0.496952 0.255266
19.8456 23.1332 16.8746 -0.336666 1.45107 -0.813206
25.2683 20.2101 20.1754 -0.908931 0.149559 0.0715436
21.8815 21.3333 16.8708 1.28508 -0.336662 0.119931
21.2896 22.8699 19.1129 0.552005 0.328853 -0.31413
23.6277 22.2594 18.927 0.0195876 -0.755496 -1.36526
15.8187 19.0458 20.3115 0.302579 0.493272 0.291993
18.8431 19.6083 23.2085 -0.0489289 0.506338 -0.634289
20.2219 17.0682 23.0286 -0.0701313 -0.176232 -0.986944
17.6245 17.6082 21.9493 -1.2044 -1.20235 1.35926
21.6273 19.5908 23.7138 -0.263229 0.398307 1.32266
23.8445 18.04 20.5312 0.483786 0.340354 -0.420424
24.1922 19.7669 22.6594 0.217322 -0.175937 0.0696529
21.241 18.5703 21.3249 0.0637854 1.11078 -2.7526
22.9501 17.1803 23.2294 -0.803308 2.5148 0.922659
22.0294 15.9723 21.3202 -0.00356623 0.700866 -1.51702
18.2465 22.7715 22.9835 -2.15191 0.349004 0.0363539
20.1517 21.6102 24.633 0.229001 0.384722 0.392646
20.2765 21.4282 21.7743 -0.710741 -2.19441 1.34787
19.7222 24.1268 21.0061 -0.180277 -1.05068 1.87016
17.0203 23.3877 20.6046 -0.869666 1.25917 -0.742453
16.9124 20.8904 21.6918 1.53833 0.0159946 0.832672
22.7828 20.7614 20.8869 -0.606605 0.948583 -0.739584
20.6612 23.8557 23.3383 -0.737172 -0.475417 -0.282858
24.6684 22.3809 21.5825 1.70234 0.211757 -0.301243
22.4682 23.566 21.2715 0.352176 0.596879 0.450314
22.6593 22.0691 23.5779 0.25114 -0.30394 -0.154984
ITEM: TIMESTEP
12000
ITEM: NUMBER OF ATOMS
40
ITEM: BOX BOUNDS ss ss ss
1.5874205877050464e+01 2.5374701318687638e+01
1.5916835174618711e+01 2.4341903445324615e+01
1.6498540107869012e+01 2.4455023723802267e+01
ITEM: ATOMS x y z vx vy vz
19.4118 17.8008 17.7908 -1.09528 -0.619333 0.661046
19.6405 16.4155 20.0975 -0.789415 -1.12607 -0.293844
17.2877 17.2874 19.2181 0.128912 -1.58339 -0.902935
18.8868 19.1629 20.3152 1.91257 0.564091 2.16441
16.9288 19.8976 18.4314 -1.79676 0.0963944 0.976569
23.5688 19.6627 18.4187 1.29471 -0.260355 0.404269
21.4398 19.2832 16.6768 -0.884403 1.13402 -0.0973507
20.7207 20.2815 18.8377 0.48398 -0.2969 1.87809
21.882 17.5156 18.7017 1.06055 0.890028 -0.0287041
18.7196 24.2074 18.0409 -0.959756 1.15729 -0.54673
15.8942 21.7542 20.1316 0.694892 0.111709 -0.0480217
17.0906 22.3521 17.3471 -0.632475 -0.906937 1.66416
18.6835 19.8856 16.6569 -0.230738 -0.447826 -0.336493
18.5926 21.9605 19.5283 0.332245 -0.122581 0.431306
19.9071 22.2219 16.6352 0.855679 0.997942 -0.405056
25.3256 20.2844 20.3815 0.624887 1.19441 0.149241
22.4314 21.6836 17.0875 1.4777 1.21697 1.29568
21.2336 22.9577 18.941 1.94672 -0.109155 -1.39165
24.1504 22.3044 19.1482 0.291807 -0.346252 -0.382162
16.1992 19.0902 21.0101 -0.597378 0.545581 0.758559
19.0248 19.0911 23.1264 -0.74109 0.0263547 1.02067
20.3579 16.7215 22.7864 -1.21242 -2.81597 -0.74733
17.8065 17.0145 21.888 -2.24898 0.192244 -0.26924
21.4491 19.3443 23.9514 0.482336 -0.109148 -0.598516
23.9869 18.0121 20.607 0.96699 -0.544135 0.415669
24.0247 19.5164 22.9033 0.403663 1.24542 0.42358
21.3706 18.6097 21.2032 -0.222271 -1.26121 -0.115465
22.9797 17.1369 23.0354 1.01802 -0.179875 -1.59991
22.2902 15.8835 20.9142 0.149282 0.040923 -0.0798696
18.1791 23.5758 22.5874 -0.458881 0.350018 0.0332986
19.3585 21.5791 24.1524 -0.364861 0.256097 -0.785436
20.1282 21.7146 21.5588 -1.44008 0.517405 -1.03153
19.6409 24.4675 20.5047 0.0218574 0.447041 -2.01144
16.9577 24.0255 20.2026 0.975007 -0.0937556 0.00724573
17.5186 21.2266 22.1904 0.0124396 0.597133 0.156402
22.6142 20.829 20.8241 -1.08404 -0.284363 -0.20161
20.7681 23.8017 23 -0.512291 -0.22551 -0.686977
24.5948 22.0648 22.1398 -0.536046 0.718598 0.657923
22.4356 23.4871 21.2363 -0.530655 -0.719075 -0.195
22.3192 21.6893 23.592 1.20357 -0.247832 -0.342851
ITEM: TIMESTEP
13000
ITEM: NUMBER OF ATOMS
40
ITEM: BOX BOUNDS ss ss ss
1.5931498111038806e+01 2.5453117862607758e+01
1.6030788579379578e+01 2.4181686602466975e+01
1.6468256692877016e+01 2.4036330555129702e+01
ITEM: ATOMS x y z vx vy vz