ITEM: TIMESTEP
0
ITEM: NUMBER OF ATOMS
405
ITEM: BOX BOUNDS ss ss ss
9.5516328046925221e+00 3.1238367195307429e+01
8.7413866081867564e+00 3.2048613391813248e+01
8.5956844083345274e+00 3.2194315591665450e+01
ITEM: ATOMS x y z vx vy vz
19.3137 12.5671 12.5229 1.25938 0.399257 -1.13546
18.8595 15.2282 11.5196 0.510551 0.812718 0.590376
21.1323 13.7134 10.6064 1.64028 -0.509894 -2.10923
20.6781 16.3745 9.60307 0.235743 -0.939626 0.633185
23.3344 13.2037 12.3912 -0.00838405 -1.30457 1.34363
22.8802 15.8648 11.3879 0.254022 0.423845 -0.731241
16.5866 16.743 12.4328 -0.353603 -2.52961 -2.61037
16.1324 19.4041 11.4294 -0.594138 -0.286285 0.539915
20.6073 17.3796 12.3011 0.94644 1.93082 0.57881
18.4053 17.8893 10.5163 -0.573794 1.34432 0.431015
20.1531 20.0407 11.2977 0.25399 1.65367 -0.553728
22.426 18.5259 10.3846 -1.24444 -1.27173 -0.538431
20.2239 19.0356 8.59976 2.88372 -0.83616 1.31663
24.628 18.0163 12.1694 1.50391 0.180908 -1.21568
13.8595 20.9189 12.3426 -0.670723 2.19297 -0.665056
13.4053 23.58 11.3393 1.54562 2.04561 1.02954
17.8803 21.5555 12.2109 -1.07275 0.710973 -1.01207
15.6782 22.0652 10.4261 0.462618 0.0346698 -0.0264235
17.426 24.2166 11.2076 -0.621682 -2.10442 -1.68971
17.951 20.5504 9.51295 1.21857 1.53365 0.907735
21.901 22.1922 12.0792 -0.711361 -2.21257 -0.316067
19.6989 22.7018 10.2944 -0.469725 2.61236 0.588107
21.9717 21.187 9.38125 -1.24811 0.482519 -0.214665
24.1738 20.6774 11.166 -1.67156 -1.0517 0.75092
25.9217 22.8288 11.9475 -0.283347 0.636289 0.392278
23.7196 23.3385 10.1627 -2.64732 -0.501145 0.410362
15.1532 25.7314 12.1208 1.65361 -0.985656 0.634929
19.1739 26.3681 11.9891 -1.35323 1.0683 -1.26061
21.4467 24.8533 11.0759 -0.606252 0.516391 1.65016
23.1946 27.0047 11.8574 0.454459 0.646791 -1.22024
25.4675 25.4899 10.9442 0.0719759 2.84256 -0.313743
15.6764 10.2745 16.3558 -0.0438326 0.184141 1.5259
17.4951 11.4208 14.4394 0.520563 0.698514 0.33823
19.6971 10.9111 16.2241 -0.187386 -0.829719 -0.328363
21.5158 12.0574 14.3077 0.866376 0.737697 1.1006
23.7179 11.5478 16.0924 -1.31961 -0.455283 -0.671977
27.7386 12.1844 15.9607 -1.10428 -0.481476 -1.19438
12.9494 14.4504 16.2657 -0.179762 -0.518844 -0.119766
15.2222 12.9356 15.3525 0.790911 -0.707795 2.23203
16.9701 15.087 16.134 0.13734 -0.433079 -0.598256
14.768 15.5967 14.3492 0.0377996 -1.31374 -0.871406
17.0408 14.0819 13.436 -0.38632 0.49385 0.847446
19.2429 13.5722 15.2208 1.61718 0.994641 0.361434
20.9908 15.7236 16.0023 -0.899955 -0.454566 1.93574
18.7887 16.2333 14.2175 -0.690727 0.409077 -0.0140386
21.0616 14.7185 13.3043 0.177701 1.75715 2.00873
23.2636 14.2089 15.0891 1.22127 -0.0539067 -0.0801286
25.0115 16.3603 15.8706 -0.375128 0.261007 -0.0626868
25.5365 12.6941 14.1759 -0.214775 -0.272656 0.260136
25.0823 15.3552 13.1726 -0.737398 -1.22756 -1.146
27.2844 14.8455 14.9574 1.16609 0.504324 0.933336
10.2223 18.6263 16.1756 -1.01688 -0.976317 1.29291
12.4951 17.1115 15.2624 -1.3281 -0.900891 -0.859361
12.0409 19.7726 14.2591 1.31896 -1.14821 -0.902016
14.243 19.2629 16.0439 0.00347031 0.686815 1.26312
16.5158 17.7481 15.1307 0.650163 0.593372 -1.65156
14.3138 18.2578 13.3459 1.39229 -0.0055249 1.69061
18.2637 19.8995 15.9122 -0.938788 -1.32992 1.5189
20.5366 18.3848 14.999 1.36811 2.01631 -0.495643
18.3345 18.8944 13.2142 -0.480652 -0.8591 -0.572415
22.3552 19.5311 13.0825 -0.822728 -1.80261 0.189862
22.8094 16.87 14.0858 0.85143 -0.211365 0.341138
24.5573 19.0214 14.8673 0.817784 -1.15234 0.383355
26.8301 17.5066 13.9541 1.80412 -0.885789 0.729289
26.3759 20.1677 12.9508 -1.46592 0.339216 -1.18182
29.0322 16.9969 15.7389 -0.0545707 2.44062 0.257358
28.578 19.658 14.7356 -2.84889 0.773969 -1.62361
9.76805 21.2874 15.1723 0.642836 1.89087 -2.04207
11.5159 23.4388 15.9538 0.506009 0.112857 0.0931253
13.7888 21.924 15.0406 -0.446504 1.62255 -0.198174
11.5867 22.4337 13.2558 0.159642 0.127982 0.540321
15.5366 24.0754 15.8221 -0.299337 -0.653108 0.25929
16.0616 20.4092 14.1274 0.220355 0.482228 -1.05418
17.8095 22.5606 14.9089 -0.434607 -2.35606 -0.948786
15.6074 23.0703 13.1241 -0.374614 0.202997 -0.640885
22.2844 20.5362 15.7805 -0.0558911 -1.64188 -0.29841
20.0823 21.0459 13.9957 -0.386204 -2.59045 1.20714
21.8302 23.1973 14.7772 -0.188055 -0.493347 1.17827
19.6281 23.707 12.9924 0.12513 -0.899291 -0.369287
26.3051 21.1728 15.6488 0.724821 2.1832 -0.522495
24.103 21.6825 13.864 0.350299 0.132653 -0.0337778
25.8509 23.8339 14.6455 0.305808 -0.463303 -1.16915
28.053 23.3243 16.4303 -0.979607 0.717817 -1.27873
30.3258 21.8095 15.5171 1.07826 -0.300183 0.858006
28.1238 22.3191 13.7323 1.14558 0.946728 -0.284168
13.3345 24.5851 14.0373 0.654427 -0.935563 -0.792188
15.0824 26.7365 14.8188 -1.04686 0.88051 1.65608
17.3552 25.2217 13.9056 0.169374 0.474229 -0.104245
16.901 27.8829 12.9023 -1.06043 -0.665453 -0.393009
19.5573 24.7121 15.6904 -0.551505 0.666769 -1.53545
19.1031 27.3732 14.6871 0.935254 -1.21977 -0.165704
21.376 25.8584 13.7739 0.69217 -0.547053 0.979406
23.578 25.3487 15.5587 -0.122441 -0.85441 1.48113
25.3259 27.5002 16.3402 0.401478 0.321829 -0.740753
23.1238 28.0098 14.5554 -2.48751 1.371 0.595498
23.6488 24.3436 12.8607 1.42164 -0.233454 0.409753
25.3967 26.495 13.6422 0.644794 -0.0728075 1.00562
27.5988 25.9854 15.427 1.79419 1.19234 1.74045
29.8716 24.4706 14.5138 -2.22263 1.02289 0.623964
27.6695 24.9802 12.729 0.650437 0.989229 -0.555412
16.8302 28.888 15.6003 -0.707532 0.5119 1.96498
18.5781 31.0394 16.3818 -0.340357 -1.31956 -2.14901
20.851 29.5246 15.4686 -0.52986 -0.573492 1.80911
18.6489 30.0343 13.6838 -2.42506 -2.09409 1.16644
20.9217 28.5195 12.7706 1.29578 0.13186 -0.105919
13.4036 11.7893 17.269 -1.36614 -0.727648 -2.32425
17.4243 12.4259 17.1373 1.22404 -0.568586 -1.23564
15.6057 11.2796 19.0538 1.59241 -1.80265 1.3208
17.8785 9.7648 18.1406 0.325925 1.25651 0.759382
19.6264 11.9162 18.9221 -1.02716 -1.08877 -0.542586
21.8992 10.4014 18.0089 -0.232209 2.44248 0.898954
20.0806 9.25513 19.9254 -2.13528 0.204227 -0.687584
23.6471 12.5529 18.7904 0.906334 -1.21881 -0.890989
25.9199 11.0381 17.8772 0.564933 -0.00242174 0.302733
24.1013 9.89177 19.7937 1.77888 -0.132555 -0.715521
11.1307 13.3041 18.1822 -0.980918 0.906167 -1.1399
12.8786 15.4555 18.9637 1.08337 -0.255 0.661167
10.6765 15.9652 17.1789 0.305045 -0.708659 -0.35309
13.3328 12.7944 19.967 1.25026 0.370906 0.696087
15.1514 13.9407 18.0505 0.112436 0.257866 1.10984
16.8993 16.0921 18.832 -0.441994 -1.26916 -0.138878
17.3535 13.431 19.8353 1.93711 -0.204084 -0.59603
19.1721 14.5773 17.9188 0.8798 2.01713 -0.374579
21.445 13.0625 17.0056 0.0654557 0.920048 -0.919553
21.3742 14.0677 19.7036 -0.103507 2.07229 1.18926
23.1929 15.214 17.7871 -0.694866 -0.0173271 -1.84334
25.4657 13.6992 16.8739 1.04687 -1.41749 -1.73767
25.3949 14.7043 19.5719 -1.16561 -1.81264 -1.27316
27.2136 15.8506 17.6554 -1.26805 -0.450695 -1.91614
29.4864 14.3358 16.7422 0.649232 0.31889 1.85989
31.2343 16.4873 17.5237 0.487208 0.737714 1.66047
27.6678 13.1895 18.6587 -0.398515 -2.19824 -0.84348
29.4157 15.341 19.4402 1.87634 0.146009 0.16628
10.6057 16.9703 19.8769 -1.34643 1.09601 0.75145
10.1515 19.6314 18.8736 0.210649 1.10621 0.361201
12.4243 18.1166 17.9604 0.250083 0.791165 1.15822
14.6264 17.6069 19.7452 0.898886 -0.795064 1.00793
14.1722 20.268 18.7419 0.23705 -0.262291 0.752899
14.6972 16.6018 17.0472 0.675502 -0.959247 0.882794
16.4451 18.7532 17.8287 -1.5827 0.889614 1.34545
18.6471 18.2436 19.6135 -2.84142 -1.82999 -0.37791
20.92 16.7288 18.7003 0.76565 -0.91792 1.70524
18.7179 17.2384 16.9155 -0.311609 -1.08016 0.747083
20.4658 19.3899 17.697 -1.22789 -0.247848 2.09288
22.6679 18.8802 19.4818 1.68255 -0.628784 0.00398102
24.9407 17.3654 18.5686 1.58186 0.142529 -0.881371
26.6886 19.5168 19.3501 0.0504853 -0.164188 -0.333922
22.7386 17.8751 16.7838 -0.685224 0.0555876 0.450273
24.4865 20.0265 17.5653 -0.984645 0.251358 0.515245
26.7593 18.5117 16.6521 1.39279 -1.13879 -2.13547
28.9614 18.0021 18.4369 0.214194 0.903273 -1.02406
30.7093 20.1535 19.2184 -1.25784 0.686463 0.624276
30.7801 19.1484 16.5204 -1.06723 -1.09694 1.16421
27.1428 16.8557 20.3534 0.938689 0.0790434 1.97195
31.1635 17.4924 20.2217 0.0637158 -2.52953 1.39545
11.8993 21.7828 19.6551 -1.04935 -0.144786 0.854218
9.69727 22.2925 17.8703 0.469974 -0.816231 0.628959
11.9701 20.7777 16.9571 -0.788639 -0.718635 0.12457
13.718 22.9291 17.7386 -1.07442 -0.417333 0.73076
15.9201 22.4195 19.5234 0.933459 -0.196279 0.103303
18.1929 20.9047 18.6102 -0.60737 1.44019 -0.617362
15.9908 21.4143 16.8254 -0.0179535 -0.343454 1.97518
17.7387 23.5658 17.6069 0.779774 0.471258 0.849035
19.9408 23.0561 19.3917 0.572341 0.214785 -1.34634
22.2136 21.5413 18.4785 -0.280077 1.44777 1.0779
20.0116 22.051 16.6937 -0.608205 1.55619 -0.745898
21.7594 24.2024 17.4752 -0.871054 -0.42205 -0.620136
24.4157 21.0316 20.2633 2.38514 -1.05164 -0.534906
23.9615 23.6927 19.26 0.580158 -0.443107 1.77793
26.2343 22.178 18.3468 -0.897416 -2.06386 -0.264135
24.0323 22.6876 16.562 2.17795 -1.20381 2.29019
28.4364 21.6683 20.1316 -2.09362 -0.195875 -1.92047
28.5072 20.6632 17.4336 -1.00702 0.147063 1.41851
30.2551 22.8146 18.2151 -0.31893 -1.04341 0.926701
11.4451 24.4439 18.6518 -1.19984 -0.689216 0.215515
13.193 26.5954 19.4333 -0.541316 -0.255242 2.80288
13.2638 25.5902 16.7353 -2.63263 0.471116 0.671938
17.6679 24.5709 20.3049 0.15742 1.21452 0.651763
15.4658 25.0806 18.5201 -0.423634 -1.61098 0.263247
17.2137 27.232 19.3016 -0.181525 -1.71703 -0.327193
15.0116 27.7417 17.5168 -0.0302684 0.119832 -1.68502
17.2845 26.2269 16.6036 -1.70486 0.052974 -1.07727
21.6886 25.2075 20.1732 -0.448895 -0.656168 -1.44837
19.4866 25.7172 18.3884 -1.27362 -0.120247 0.57681
21.2344 27.8686 19.1699 -2.2661 1.449 -0.242126
21.3052 26.8635 16.4719 2.97873 -0.703648 0.341559
25.7093 25.8442 20.0415 0.794779 0.18506 1.00705
23.5073 26.3538 18.2567 -1.6067 -1.28001 0.216082
25.7801 24.8391 17.3435 1.47738 -1.56301 0.987059
27.9822 24.3294 19.1283 0.929054 1.10092 -0.0700622
29.7301 26.4808 19.9098 -0.0650011 -0.649268 1.48816
27.528 26.9905 18.125 -0.363982 -0.609435 2.72594
29.8008 25.4757 17.2118 -0.829643 -0.125074 0.93129
14.9408 28.7468 20.2148 -0.513498 1.98302 0.0450358
16.7595 29.8931 18.2983 -1.22485 0.299687 -0.618582
18.9615 29.3834 20.0831 1.35677 2.14911 0.591045
18.5073 32.0445 19.0798 0.34941 -1.13387 1.08401
19.0323 28.3783 17.3851 1.07792 2.42015 -0.680324
20.7802 30.5297 18.1666 -1.62695 -0.0795351 -3.23454
22.9823 30.0201 19.9514 0.666476 -0.116584 0.213638
25.2551 28.5053 19.0382 -0.0667959 -1.71566 -0.551663
23.053 29.0149 17.2534 0.315497 0.965219 0.221742
15.5349 12.2847 21.7518 -3.29131 -1.15218 0.266498
17.8077 10.7699 20.8386 0.289056 -0.303113 1.40791
17.737 11.7751 23.5366 -0.867313 -0.382151 0.730418
21.8285 11.4066 20.7069 -0.00808615 0.752719 -1.61685
20.0098 10.2603 22.6234 -1.65085 0.659881 2.83538
21.7577 12.4117 23.4049 0.26635 0.594991 0.937977
22.2827 8.74547 21.7102 -0.154096 0.392455 -2.2246
25.8492 12.0432 20.5752 -0.327179 0.514339 -0.563485
24.0305 10.8969 22.4917 -0.212761 -0.598593 0.439625
11.0599 14.3092 20.8802 0.958911 0.125424 -2.28486
12.8078 16.4606 21.6617 1.17023 0.417493 2.1937
10.9892 15.3143 23.5782 -1.22201 0.873749 1.50441
13.262 13.7995 22.665 -0.568373 0.563012 0.330603
15.0807 14.9458 20.7485 -1.76472 -0.598738 0.0433504
15.0099 15.9509 23.4465 0.597784 -0.114205 0.791918
17.2827 14.4362 22.5333 1.60397 1.62639 -1.7179
19.1014 15.5825 20.6168 -0.123464 0.736877 1.10005
19.5556 12.9214 21.6201 1.50025 -0.0298442 3.48985
21.3034 15.0728 22.4016 1.66687 -0.700975 2.27986
19.4848 13.9265 24.3181 1.12469 -0.963294 -1.41962
23.1221 16.2191 20.4851 1.01368 -1.92568 -1.35341
23.5763 13.558 21.4884 -1.06629 -1.29298 0.104827
25.3242 15.7094 22.2699 -0.369979 2.65952 -0.312695
23.5055 14.5631 24.1864 1.0171 -1.76923 -0.46168
25.7784 13.0483 23.2732 0.0565342 -0.326769 -0.526626
27.597 14.1946 21.3567 -0.190431 3.64031 -0.563873
29.3449 16.3461 22.1382 0.178708 0.700265 -0.115031
27.5262 15.1998 24.0547 -0.319507 -0.0442671 -0.382466
12.3536 19.1217 20.6584 -0.0747687 0.500079 0.0388051
10.5349 17.9754 22.5749 -1.43973 1.64127 -0.330637
12.2828 20.1268 23.3564 -1.92945 0.238137 0.32203
16.3743 19.7584 20.5267 -0.069642 -0.542826 0.398121
14.5557 18.612 22.4432 -1.03011 0.37906 0.327337
16.8285 17.0973 21.53 -1.30337 0.594314 -1.39115
16.7577 18.1024 24.228 0.657621 -0.836771 -1.10672
18.5764 19.2487 22.3115 -1.01001 -1.46242 0.951868
20.8492 17.7339 21.3983 1.44325 -0.628334 -1.01257
19.0306 16.5876 23.3148 1.1617 -0.716553 -0.228922
20.7784 18.739 24.0963 0.463229 -1.62232 0.520645
22.5971 19.8853 22.1798 1.93368 -1.5422 -1.74913
24.8699 18.3705 21.2666 -0.453705 -0.131303 -1.87466
23.0513 17.2242 23.1831 0.165954 0.144483 -1.13113
24.7992 19.3757 23.9646 -1.8019 0.302477 -1.54557
28.8907 19.0072 21.1349 1.36959 0.754 0.0710217
27.072 17.8609 23.0514 -1.09203 -1.89363 -0.306978
28.8199 20.0123 23.8329 -0.0646664 -2.09553 -0.334198
31.0927 18.4975 22.9197 0.821125 1.02699 -0.195727
10.0807 20.6365 21.5716 -0.256567 1.52873 -1.72674
11.8286 22.7879 22.3531 -1.80462 1.24466 0.278349
9.62649 23.2976 20.5683 -0.260118 -0.720106 -0.823005
13.6472 23.9343 20.4366 1.6792 -0.582239 -0.483679
10.0099 21.6416 24.2696 -0.0452339 0.761485 0.563085
14.1014 21.2732 21.4399 -1.51058 -0.428781 0.38784
15.8493 23.4246 22.2214 0.714642 -0.286813 -0.215054
18.1221 21.9098 21.3082 2.01174 -0.345297 0.464674
14.0307 22.2783 24.1379 0.00380821 0.687342 -0.999541
16.3035 20.7635 23.2247 -0.0134216 0.905208 -0.867642
18.0514 22.9149 24.0062 -1.92808 1.69449 0.429411
19.87 24.0612 22.0897 0.763689 0.500007 -0.96855
20.395 20.395 20.395 -2.26459 -0.375913 -0.391426
22.1429 22.5464 21.1765 -1.96095 0.417965 -0.254066
20.3242 21.4001 23.093 -0.799589 -0.0380875 0.294171
22.0721 23.5516 23.8745 -0.0349024 0.140094 0.71997
26.1636 23.1831 21.0448 0.215609 -1.82843 0.236479
24.3449 22.0368 22.9613 0.547976 -0.00458037 1.84225
26.0928 24.1882 23.7428 -0.200845 -0.328059 -0.598873
26.6178 20.522 22.0481 0.840653 0.841303 0.215543
30.1843 23.8197 20.9131 -0.651008 0.57198 -1.86787
28.3657 22.6734 22.8296 -1.43264 2.68114 0.964305
30.6385 21.1586 21.9164 0.566432 -2.13387 1.57108
9.55571 24.3027 23.2663 0.960251 0.320088 0.825592
11.3036 26.4542 24.0478 0.73423 0.0943921 -0.186782
13.5764 24.9394 23.1346 0.306812 0.417179 -1.16603
11.3743 25.449 21.3498 -1.79573 -0.0329781 -1.17478
13.1222 27.6005 22.1313 -2.00242 1.90092 0.255131
15.3243 27.0908 23.9161 0.89284 0.985375 0.266218
17.5971 25.576 23.0029 0.618633 -0.0345619 0.529358
15.3951 26.0857 21.2181 0.0804225 -1.38997 0.660518
19.345 27.7275 23.7844 -0.104977 -0.203633 1.14636
21.6179 26.2127 22.8712 -0.958219 2.13078 -2.4351
19.4158 26.7223 21.0864 1.11398 0.535801 1.22174
23.8907 24.6979 21.958 -1.8887 -1.13576 1.21747
25.6386 26.8493 22.7395 0.982852 -0.34298 0.373249
23.4365 27.359 20.9547 -0.532243 0.0104684 0.887978
27.9114 25.3345 21.8263 0.951096 1.69799 -1.78528
29.6593 27.4859 22.6078 -0.67786 0.425585 2.18051
27.4572 27.9956 20.823 3.41274 -0.602492 0.494991
30.1135 24.8248 23.6111 0.679742 0.423813 -1.74821
14.8701 29.7519 22.9128 0.385759 2.28944 -3.0035
17.1429 28.2371 21.9996 -0.134719 -0.227183 -0.434063
16.6887 30.8982 20.9963 -0.348585 -0.951805 0.116133
18.8908 30.3886 22.7811 -1.08095 -0.187479 1.74633
21.1636 28.8738 21.8679 -0.519485 -0.522819 -1.52224
20.7094 31.5349 20.8646 -0.32112 -0.988977 -2.03226
23.3657 28.3641 23.6527 -0.827476 0.0474561 -0.167673
22.9115 31.0252 22.6494 0.625226 1.51717 -0.0403534
25.1843 29.5104 21.7362 -1.36072 -0.372803 -1.42881
27.3864 29.0007 23.521 -1.41393 0.453895 0.580026
19.939 11.2654 25.3214 0.929061 0.40503 -1.12829
22.2119 9.75059 24.4082 -0.491396 -0.636743 1.86585
19.8683 12.2705 28.0194 -1.40356 0.909851 0.728489
22.1411 10.7557 27.1062 2.55511 -1.63695 -1.91628
23.9598 11.902 25.1897 -0.544434 0.0830728 1.66112
10.9184 16.3194 26.2762 1.20012 0.185963 -1.10296
13.1912 14.8046 25.363 -0.957215 -0.231134 1.0322
13.1205 15.8098 28.061 0.459176 1.52087 -0.305348
15.4641 13.2898 24.4498 -0.715787 0.66038 0.520404
17.212 15.4413 25.2313 -0.0338307 -0.513826 0.323199
15.3933 14.295 27.1478 2.07439 0.980333 1.29019
17.1412 16.4464 27.9293 0.653056 -1.91268 0.131025
17.6662 12.7802 26.2346 1.86912 -0.537262 -1.23561
21.2327 16.0779 25.0996 0.703582 0.292673 -0.1594
19.414 14.9316 27.0161 -1.30719 -0.120263 -0.444529
21.6869 13.4168 26.1029 0.247334 0.51008 -0.869567
23.4348 15.5683 26.8844 0.114157 0.635575 -2.69338
25.7076 14.0535 25.9712 1.01236 -0.796713 0.0416248
23.889 12.9071 27.8877 0.709366 -0.0514189 0.0623046
27.4555 16.2049 26.7527 -0.943106 -2.12758 0.195935
10.4642 18.9805 25.2729 0.815375 -0.977341 -1.17293
12.737 17.4657 24.3597 0.650339 0.978642 -0.130024
12.6662 18.4709 27.0577 -0.458195 -0.323428 -1.09756
14.4849 19.6172 25.1412 -1.75326 0.346239 0.426144
14.9391 16.9561 26.1445 -1.37129 0.147172 0.216296
16.687 19.1075 26.926 -0.448947 -0.291804 -0.345726
18.5056 20.2538 25.0095 -1.3092 0.944697 1.82802
18.9598 17.5927 26.0128 -0.133683 -1.5144 -1.09502
20.7077 19.7441 26.7943 0.962319 1.20903 -0.212679
21.1619 17.083 27.7976 -0.964161 0.573129 1.19222
22.9805 18.2294 25.8811 -0.451475 -1.18857 -0.516236
24.7284 20.3808 26.6626 -0.123687 0.863427 -0.0429378
25.2534 16.7146 24.9679 0.823115 -0.886026 2.81719
25.1826 17.7197 27.6659 -2.27526 0.306391 2.04509
27.0012 18.866 25.7494 -0.575275 -1.33595 0.0028461
29.2741 17.3512 24.8362 0.4454 1.23117 -0.883891
31.022 19.5026 25.6177 0.669275 0.60266 0.243963
29.2033 18.3563 27.5342 -0.307402 2.48509 -1.11678
11.7578 23.7931 25.0511 0.288037 0.325841 -2.71228
12.212 21.132 26.0544 0.738313 0.0680421 -0.274179
13.9599 23.2834 26.8359 -1.65394 -0.622031 0.723162
16.2327 21.7686 25.9227 -0.757451 -1.26221 -0.948911
17.9806 23.92 26.7042 0.345371 -0.522992 1.30462
14.4141 20.6223 27.8392 0.809457 0.348602 -1.26684
20.2534 22.4052 25.791 0.218782 -0.101855 1.24718
22.5263 20.8905 24.8778 -1.12604 -1.12442 -0.796396
18.4348 21.2589 27.7075 0.302117 -1.62318 -1.33344
22.4555 21.8956 27.5758 -1.73291 0.457129 1.97686
24.2742 23.0419 25.6593 0.673342 1.29382 1.30867
26.547 21.5271 24.7461 -0.914359 -0.529217 2.27184
26.4762 22.5322 27.4441 1.25784 -0.889106 -2.5595
28.2949 23.6785 25.5276 -0.535092 0.711332 0.128862
30.5677 22.1637 24.6144 0.681119 -1.44542 -0.794093
28.7491 21.0174 26.5309 0.276028 -0.732499 -0.434653
13.5056 25.9445 25.8326 -0.0558454 0.0850639 0.958368
15.2535 28.0959 26.6141 1.98314 1.16845 0.101508
15.7785 24.4297 24.9194 0.832655 1.53837 0.255933
17.5264 26.5811 25.7009 1.12506 -0.224845 -0.293729
15.7077 25.4348 27.6174 -0.660837 -2.3995 0.920512
19.7992 25.0664 24.7877 0.584595 -0.475455 -0.97075
21.5471 27.2178 25.5692 4.28649 -0.999698 0.478579
19.7284 26.0715 27.4857 -0.0716731 2.14177 -0.927034
22.0013 24.5567 26.5725 -0.933336 -0.243519 1.51356
23.8199 25.703 24.656 1.55634 1.65123 0.119097
25.5678 27.8544 25.4375 -1.79969 0.409695 -1.13262
23.7492 26.7081 27.354 2.18753 1.71676 1.27229
26.022 25.1933 26.4408 -0.683672 -0.977295 -0.0627556
27.8406 26.3396 24.5243 -0.121173 -0.435088 -0.821745
13.0514 28.6056 24.8293 1.64249 -0.848988 -0.443317
17.0721 29.2422 24.6976 1.21128 0.467658 0.44663
21.0929 29.8789 24.5659 0.193178 0.0195613 -0.369872
19.2742 28.7326 26.4823 2.36576 -0.435845 0.400762
25.1136 30.5155 24.4342 0.775873 0.593887 1.18949
23.2949 29.3692 26.3506 1.42247 0.387485 2.10095
15.3225 15.3001 29.8458 0.738243 0.179319 0.167548
17.5954 13.7853 28.9326 -0.727354 -2.21874 -0.936742
19.3433 15.9367 29.7141 -0.432479 -1.43253 -0.838526
21.6161 14.4219 28.8009 0.888526 -1.24448 -0.524904
25.6368 15.0586 28.6692 -0.999355 0.0138617 -0.0328853
14.8683 17.9612 28.8425 0.2118 -0.926983 -0.174873
16.6162 20.1126 29.624 -1.09599 0.147755 -1.90714
17.0704 17.4515 30.6273 -0.507079 0.104983 -0.250288
18.889 18.5978 28.7108 1.01139 0.42337 0.322256
18.8183 19.603 31.4087 0.248174 0.982867 -0.794786
21.0911 18.0882 30.4956 -0.806282 -2.57545 -1.72446
22.9097 19.2345 28.5791 0.0668634 0.100169 0.540193
22.839 20.2396 31.277 0.0338362 1.64991 -0.189977
23.364 16.5734 29.5824 2.15604 -0.914176 -0.790363
25.1118 18.7248 30.3639 -0.190705 -1.05804 0.761066
26.9305 19.8711 28.4474 -0.587521 1.04673 -1.46382
27.3847 17.21 29.4507 -0.668857 1.64946 -0.723247
16.162 22.7737 28.6206 0.0556799 2.26253 -2.04805
20.1827 23.4104 28.4889 0.823954 0.902054 -0.907368
18.364 22.2641 30.4054 -0.182086 -1.88403 -1.03528
20.6369 20.7493 29.4923 -0.627985 2.82502 0.660914
22.3847 22.9007 30.2737 -1.94514 1.13775 1.44779
20.5661 21.7544 32.1902 -0.84801 0.0787723 -1.75339
24.2034 24.047 28.3572 1.0214 -0.455174 1.33138
24.6576 21.3859 29.3606 1.71904 -0.436463 -0.87934
17.4556 27.5863 28.3988 0.158691 1.15157 -3.26332
17.9098 24.9252 29.4021 0.943848 0.00744267 -1.93565
19.6577 27.0766 30.1836 1.58809 -1.26983 0.500188
21.9305 25.5618 29.2704 -0.790349 0.936196 0.797354
20.1119 24.4155 31.1869 -1.21886 0.317726 -0.0938608
21.4763 28.2229 28.2671 0.928157 0.691171 0.238656
ITEM: TIMESTEP
1000
ITEM: NUMBER OF ATOMS
405
ITEM: BOX BOUNDS ss ss ss
9.5516328046925221e+00 3.1238367195307429e+01
8.7413866081867564e+00 3.2048613391813248e+01
8.5956844083345274e+00 3.2194315591665450e+01
ITEM: ATOMS x y z vx vy vz
19.4019 12.7793 12.6653 -0.428394 -0.363851 0.453953
18.8311 15.2315 11.6167 -0.934864 -0.435649 1.64447
21.1027 13.9807 10.8553 -0.489614 0.966888 -1.72879
20.7153 16.6394 9.90594 1.82737 1.3 -1.42379
23.2235 13.3337 12.5102 1.21004 0.421188 -0.306733
22.9698 15.895 11.4733 0.303102 0.688317 1.60348
16.5846 16.6207 12.5062 -0.820462 0.932284 -0.311533
16.1303 19.2924 11.5563 -0.407496 0.053642 0.351771
20.5962 17.3848 12.3864 -0.400422 -0.127424 1.57949
18.2011 17.8371 10.3857 0.46915 -0.336269 1.4963
20.0862 19.969 11.5345 -1.30146 0.733358 2.09086
22.4615 18.5703 10.3717 -0.766937 -0.634706 2.67966
20.1457 19.0225 8.97307 -2.47164 -2.60105 0.566094
24.625 18.1657 12.1852 -0.867894 1.23576 0.437941
13.9214 20.7818 12.6836 0.271168 -0.132179 0.970766
13.406 23.2229 11.8672 0.0670497 -1.53504 1.08716
17.8467 21.5268 12.3358 1.07446 0.405857 0.757845
15.6096 21.7813 10.7998 0.620244 0.445809 -0.770543
17.4781 24.0807 11.2802 -0.75753 -0.0670021 0.632385
17.9385 20.4708 9.80143 -1.10014 -0.86969 -0.61807
21.754 22.066 12.1252 0.375819 -0.0826181 0.393515
19.5877 22.609 10.3497 -0.388873 0.687094 -1.40728
21.8912 21.1433 9.568 0.518256 -1.04664 -1.16952
24.075 20.7253 11.2457 1.23667 0.37979 0.123342
25.937 22.7859 12.1136 -1.2098 -2.22862 -0.298721
23.8133 23.2424 10.6314 0.143892 -1.23459 -1.41949
15.2689 25.6292 12.5312 1.30934 -0.339083 0.141658
19.2292 26.4138 12.0909 -0.433027 0.775114 -1.12334
21.4774 24.7579 11.0485 0.693839 1.35457 -2.24026
23.077 26.8009 11.933 2.20543 -0.539831 0.282014
25.4473 25.1979 11.3482 0.85381 -0.617018 0.0517536
15.6654 10.4825 16.3876 0.0125549 1.41092 -0.59241
17.4443 11.5156 14.5967 1.69164 0.361303 -0.643578
19.5851 10.8723 16.0087 2.2453 -1.63683 -0.101949
21.6154 12.1886 14.2734 -0.368658 -2.0065 0.0721591
23.8636 11.5306 16.1548 -2.08909 -2.54775 -1.12176
27.4916 12.4231 15.8652 0.151323 0.493118 0.0976821
12.8435 14.429 16.3007 2.43985 -0.193011 -0.283568
15.2174 12.9088 15.2294 -0.657705 1.59667 -0.133474
16.8554 14.9804 16.0411 -0.29608 0.044583 -1.12752
14.7067 15.4067 14.3974 -0.358218 -0.525594 1.08864
17.1641 14.0852 13.4617 1.49973 1.5577 -0.210649
19.1632 13.5814 15.2808 0.543472 -1.2401 0.492458
20.912 15.5606 16.0069 0.554365 0.442302 -0.481688
18.7847 16.2147 14.1672 0.0755614 -0.51631 1.17011
21.106 14.7923 13.3338 -0.61411 0.872303 2.44506
23.2093 14.2232 15.1807 1.59866 0.116347 -1.15937
24.9843 16.326 15.7308 -0.327409 -0.308867 0.0957772
25.336 12.8949 14.1814 -1.212 0.716541 0.6027
25.0536 15.4397 13.2132 -0.362805 0.0929772 -0.250463
27.3039 15.1124 14.9676 1.26323 1.39321 1.10313
10.294 18.6367 16.272 -0.16607 0.439742 1.14297
12.327 16.9306 15.3772 0.637276 1.19211 1.11652
12.0726 19.6427 14.3426 1.25618 -1.33474 1.65311
14.3211 19.1866 15.9134 -0.289158 1.71742 1.77714
16.5783 17.7427 15.1878 -0.382653 -0.433508 0.354907
14.3682 17.9613 13.3999 -0.65063 -0.036527 -0.892249
18.2737 19.7926 16.0011 1.98233 -1.32981 1.68851
20.6605 18.3049 14.9002 0.684646 -1.29125 1.14881
18.2833 18.7866 13.0942 -0.0902184 0.146586 -0.175054
22.3769 19.535 13.0852 -1.82301 0.319901 1.33786
22.8694 16.9663 14.0015 -1.09746 -0.0206488 0.372919
24.4374 19.1336 15.0178 1.77858 0.355291 -0.662056
26.733 17.6498 14.1036 0.738005 -0.50054 0.463883
26.1619 20.1964 13.0569 0.606185 -0.792659 1.10396
28.9358 17.1534 15.7376 -0.486371 0.325262 1.18365
28.5498 19.8358 14.8885 -1.83219 -1.94333 -0.691375
10.0298 21.1452 15.2568 -1.94743 0.728522 -0.626281
11.6121 23.4522 15.8865 1.33578 1.71667 0.214032
13.8602 21.9691 15.1415 2.02173 1.22058 1.89688
11.6907 22.3401 13.5937 -1.14219 0.367847 -0.0841485
15.5756 24.0871 15.8237 1.12095 0.89395 0.851536
16.1989 20.1784 14.025 -0.0275001 0.971277 -0.452111
17.8775 22.5348 14.9685 0.891524 -1.10924 -0.855237
15.7336 22.9977 13.334 1.0082 -0.527849 2.48951
22.2431 20.4093 15.6988 -0.569161 0.4411 0.467629
20.1373 21.0014 14.1337 0.471181 0.224271 -1.16339
21.8402 23.2965 14.7768 0.969595 0.435205 -1.64978
19.6461 23.7903 12.8439 0.724314 0.83894 -1.31184
26.2763 21.1353 15.6283 0.62777 -0.493111 0.588955
24.0002 21.7122 13.811 -0.844189 -0.26848 -0.728134
25.9169 23.744 14.6755 -0.809478 0.289714 1.1852
27.9605 23.2233 16.4569 -2.74408 -0.0965813 0.390365
30.324 21.8847 15.6819 -1.1662 0.23282 0.489672
28.159 22.2824 13.8018 -1.13502 -1.10906 0.443221
13.2321 24.7646 14.2987 1.18225 -0.218929 -0.623167
14.9961 26.7489 14.8524 1.10247 0.821125 0.73628
17.4569 25.1826 13.9243 0.989966 -1.23157 0.845397
16.9792 27.7022 13.2213 0.227738 0.586042 -0.310759
19.5174 24.7747 15.8106 -1.25026 -0.689529 -0.421502
19.2123 27.3509 14.8907 1.59977 -1.42855 0.769128
21.3196 25.9198 13.8018 -0.048553 -1.31065 -0.451004
23.7247 25.5262 15.4733 -0.50268 -1.12746 -0.323873
25.3285 27.4996 16.3977 -0.751495 -0.2835 0.556987
23.0997 27.9139 14.3879 0.503751 0.718668 0.607663
23.5957 24.4258 13.0431 -2.38893 -1.06293 3.2241
25.4982 26.6068 13.6634 0.00512716 0.139378 0.568467
27.5526 26.0851 15.3353 -2.00791 0.249632 0.636358
29.6724 24.3797 14.5911 -0.573988 1.58545 -0.278012
27.7138 24.8615 12.8887 0.642384 0.460865 -1.39319
16.6933 28.8256 15.7188 -1.62186 -1.91945 1.87184
18.4948 30.7303 16.595 1.22514 1.61767 2.48268
21.0443 29.5353 15.4478 2.37557 -0.933435 2.30768
18.5409 29.7387 13.8267 0.127229 0.988741 0.852416
20.8104 28.4199 12.9263 0.00942655 -1.33562 0.874695
13.4485 11.9053 17.407 -0.773118 0.821181 0.114591
17.3725 12.4636 17.1297 0.243927 3.96023 1.48588
15.5681 11.2059 19.1189 -1.14444 1.14293 0.861716
17.9809 9.86945 18.0888 1.59196 -0.928625 0.0198938
19.6772 11.8016 18.7831 -0.310828 0.168245 -0.969222
22.039 10.3575 18.0049 0.918408 -0.991047 1.16598
19.9892 9.2971 19.7958 0.818378 -0.877312 0.63127
23.6816 12.541 18.7065 -1.32076 -0.233698 -1.32337
25.8059 11.359 18.1634 -0.889908 0.332623 0.607617
24.2286 10.0861 20.0246 0.299081 0.503704 -0.605041
11.2694 13.6617 18.2498 -1.24367 -1.16594 -0.626827
13.0597 15.4239 18.9333 0.125537 1.47104 0.528136
10.6587 16.1688 17.4228 -0.13889 -0.171901 0.0330231
13.3001 12.6753 19.9841 3.49745 -0.361886 1.448
15.1793 13.8168 17.9548 1.93623 0.982566 0.498486
16.8533 16.0379 18.7591 0.384573 1.26864 -0.281208
17.3313 13.404 19.7616 0.391572 1.31256 -1.3985
19.0237 14.5567 17.9364 0.963694 0.526633 0.999557
21.5359 12.97 16.9922 -0.208432 -0.178102 -1.03315
21.4061 14.0783 19.6582 0.940762 -0.804561 -0.357912
23.31 15.3036 17.6997 1.31048 -0.423689 -1.20905
25.4207 13.7805 16.8865 -2.13417 3.1962 2.2366
25.4651 14.7025 19.7085 -2.32267 1.25716 -2.21522
27.1627 15.7219 17.7458 -0.505054 2.03256 0.178482
29.274 14.5045 16.7177 -2.1768 -2.606 -0.0440785
31.0122 16.5132 17.5832 -1.21198 1.1743 0.281916
27.7358 13.3077 18.7146 0.156128 3.05163 1.50826
29.5202 15.2864 19.4361 -1.88679 0.0338701 -0.413248
10.639 16.7796 20.0125 0.56409 0.311792 0.617987
10.2271 19.6602 18.7625 -2.22823 -0.568895 -0.179984
12.4303 17.9344 17.8733 1.66968 0.0220877 0.975693
14.6068 17.5003 19.5482 -0.426194 -1.11919 0.625743
14.2744 20.2824 18.699 -0.0105157 1.40243 -0.854863
14.7216 16.4835 16.9369 1.22538 0.959355 1.41284
16.4133 18.7304 17.752 1.45227 0.885616 0.914921
18.6815 18.2929 19.5763 0.671057 -1.0197 0.593884
20.8926 16.5673 18.7048 -0.594715 1.03304 3.03347
18.589 17.1191 16.9019 -1.13233 -0.147815 0.0715385
20.5109 19.3125 17.5787 -1.77756 -0.683571 -0.0052802
22.7044 18.8761 19.4711 -0.854732 0.305744 -0.650102
24.8954 17.1938 18.6424 -1.28653 0.95566 3.03811
26.7748 19.3546 19.2197 -1.6838 1.1434 1.80558
22.8201 17.9443 16.7081 0.181526 -0.25808 2.0662
24.5506 20.043 17.6081 -1.56426 -1.11979 0.598234
26.6852 18.3445 16.6394 1.38318 0.794654 0.801593
28.8791 17.9095 18.425 -2.81092 -0.667452 1.61367
30.6198 20.1886 19.1518 0.788048 0.461897 0.0986642
30.6118 19.1764 16.5527 0.526533 -1.08358 0.509481
27.3524 16.7809 20.5183 -1.33267 1.51818 -1.16058
31.0967 17.416 20.2316 -0.440096 1.54175 0.608265
11.9535 21.7576 19.6179 0.879479 -0.731215 0.0962448
9.9993 22.1766 17.8789 -0.0997308 -1.09612 0.199119
12.1624 20.6687 16.8975 2.6173 0.422059 0.321018
13.7106 22.99 17.7586 -0.180202 -0.315154 2.19788
15.8888 22.3652 19.4833 2.55985 -0.711579 -0.765135
18.1336 20.9135 18.641 -0.18165 -0.0706305 1.04891
15.9036 21.3882 16.7808 2.01137 -1.37812 -1.63409
17.8568 23.6602 17.6137 1.35793 -0.84666 2.73667
20.0032 23.2406 19.3737 2.09874 -0.642938 0.972243
22.455 21.5854 18.4771 0.145453 0.722973 -0.381741
20.1135 22.092 16.7587 -0.585952 0.260843 2.28898
21.8566 24.0917 17.5232 -1.34653 -1.83428 0.226692
24.6608 20.9503 20.3401 -1.1105 -0.998862 0.273839
23.9871 23.901 19.2487 -1.52767 -0.635185 0.395412
26.2387 22.1759 18.2549 1.66413 0.312587 -0.670238
24.0231 22.7039 16.5181 0.903097 -0.39218 1.12311
28.4378 21.5938 20.0197 1.54474 0.996304 -0.140075
28.4839 20.7257 17.3372 1.08032 -0.491942 -1.50657
30.0669 22.7964 18.3472 0.539698 0.318333 -1.22642