ITEM: TIMESTEP
0
ITEM: NUMBER OF ATOMS
40
ITEM: BOX BOUNDS ss ss ss
1.6240529051279083e+01 2.4549219241143344e+01
1.6461015573796647e+01 2.4328262401045826e+01
1.6243834639275800e+01 2.4545794648392725e+01
ITEM: ATOMS x y z vx vy vz
19.6368 19.2432 16.2479 0.865592 0.610842 0.966288
17.91 18.854 18.3702 0.990275 1.07316 0.370046
18.2078 16.5775 19.9502 0.0127893 -0.639808 0.401484
19.8482 16.9581 17.7564 -1.99646 -1.20624 1.07515
22.5425 17.3614 18.0947 0.373932 0.71207 -1.48112
20.9549 16.8835 20.3054 -0.806769 2.26381 -2.876
20.749 19.3295 18.7543 -0.833733 0.0701014 -0.36348
23.6112 19.7335 19.0277 1.04509 -0.404265 -1.53762
22.3375 19.6287 16.5598 0.024195 -1.81616 -0.040302
17.1524 23.3175 20.1738 1.73239 -0.966456 -0.123832
18.922 21.348 19.4588 1.32456 0.49687 0.57723
16.2446 20.9385 19.147 0.677003 -0.409459 0.0503288
18.7356 23.6112 17.9494 0.822699 -0.439904 0.495495
17.8506 21.2175 16.9374 2.25415 -1.18499 -0.490523
23.3033 22.0441 17.5006 0.613546 0.461657 -0.252821
21.4448 24.0986 18.2178 -0.612209 1.89003 -1.66406
21.7323 21.83 19.7514 0.910833 -0.117072 0.751173
24.4409 22.1587 20.1222 0.740703 0.709592 -1.26593
20.5676 21.7046 17.0927 -0.319713 0.457484 1.27035
24.0575 24.3242 18.634 0.401923 -0.785232 1.71668
17.4878 18.7457 23.2903 -1.29464 1.01616 1.00435
19.0575 18.9602 21.038 -1.53685 -0.490948 0.46734
19.3467 16.6919 22.5729 -1.09755 0.220091 0.3523
16.7334 16.4651 22.1568 -0.00926686 -0.0264096 1.73034
16.3487 18.6306 20.6677 0.869568 1.9357 -0.246508
20.2233 19.0861 23.6981 1.97611 -0.891156 -0.121404
24.5451 19.8508 21.643 -1.82105 1.55936 0.0773089
22.9394 19.5739 23.8526 0.234965 -0.259581 0.97493
22.0554 17.1799 22.8406 2.43061 -0.398153 0.231071
21.8678 19.4419 21.3313 1.07593 0.573181 0.993784
23.6371 17.4718 20.6154 -2.3279 -0.297493 -0.796762
19.8352 23.9069 20.4846 0.704412 -0.835513 1.29772
18.247 23.4275 22.6947 -1.67603 -0.920797 -2.15575
18.4519 21.1612 24.2307 -0.406875 -1.60106 0.0115393
20.041 21.4601 22.0358 -3.08135 -2.05633 -0.359534
17.178 21.0554 21.7621 -2.05585 0.183873 -0.12848
20.9414 23.8319 23.0332 -0.14262 0.525865 0.216868
21.1524 21.5477 24.5417 0.919861 -0.167923 0.539927
22.8794 21.9365 22.4195 0.39817 0.015471 -0.572222
22.582 24.2124 20.8393 -1.38046 1.13965 -1.09534
ITEM: TIMESTEP
1000
ITEM: NUMBER OF ATOMS
40
ITEM: BOX BOUNDS ss ss ss
1.6240529051279083e+01 2.4549219241143344e+01
1.6461015573796647e+01 2.4328262401045826e+01
1.6243834639275800e+01 2.4545794648392725e+01
ITEM: ATOMS x y z vx vy vz
19.7347 19.2908 16.2273 -0.550296 0.224651 0.214412
18.0095 18.8743 18.3876 -0.829011 0.913495 0.127585
18.265 16.6736 19.9472 0.591257 -1.12106 -1.54741
19.9002 16.8865 17.8039 0.623006 1.70395 0.608861
22.6455 17.4559 17.9697 -0.062642 0.664856 1.22938
21.046 16.9504 20.2408 0.868784 1.46973 1.65704
20.7498 19.3138 18.6675 0.814045 -0.463764 -0.22121
23.6049 19.7295 18.9687 -0.710674 0.120796 -0.39915
22.3683 19.51 16.5996 0.541706 -1.23623 -0.335972
17.0764 23.3713 20.0418 -0.242311 0.0684079 -0.0918454
18.8269 21.4487 19.4057 -0.361035 0.366078 -0.49312
16.1601 20.9607 19.0528 -1.26842 1.14459 0.0945766
18.4466 23.3498 17.7795 -0.733031 1.1133 -1.04015
17.7526 20.9558 16.8631 0.151321 1.96319 -0.318762
23.3616 21.9568 17.4463 -0.263538 -1.28424 0.0152902
21.2809 24.0375 18.0779 -1.24044 0.282519 -0.0560928
21.6112 21.8251 19.5945 1.11198 1.07299 -0.965035
24.3924 21.8774 20.3387 1.01495 -0.0250791 0.549191
20.5807 21.7193 16.9793 0.589614 -2.43848 -1.36547
23.6359 24.0215 19.0808 0.151116 -1.73799 -1.05268
17.5883 19.2098 23.2899 -0.144275 -0.289478 2.06561
19.16 19.0655 21.0388 -1.02539 -0.631991 1.97064
19.5631 16.7938 22.5523 0.00824884 -0.938678 -1.46862
16.9847 16.9048 22.2062 0.889651 1.21028 -0.390325
16.4816 18.8082 20.6635 -1.65745 -0.686328 -0.829707
20.3155 18.9549 23.7021 -0.353559 0.5778 1.02815
24.4347 19.5814 21.5665 0.411166 -0.222785 -0.830618
22.9455 19.4215 23.9361 -0.139337 0.53313 -0.379689
22.1582 17.325 22.6756 1.34034 1.02782 -0.00547786
21.8983 19.5713 21.2968 2.07286 -1.18808 0.870343
23.6682 17.4062 20.4879 0.529386 -0.0991596 0.546565
19.7579 23.9129 20.5692 -0.432716 -0.0259846 0.408182
18.1553 23.627 22.546 -0.981036 0.0365347 0.381367
18.6535 21.4914 24.2542 -0.405757 -0.443572 1.6026
20.046 21.4618 22.0923 0.424268 -0.0700756 -0.899615
17.2906 21.2701 21.7333 0.0754005 0.943358 -1.06419
20.7011 23.5733 23.3879 -0.704895 -1.10302 0.491896
21.3443 21.3823 24.5759 -0.177482 -1.98331 -1.00661
22.9293 21.8158 22.6089 0.370408 0.0893991 0.403415
22.2748 24.0142 21.144 -0.296222 0.462451 0.496629
ITEM: TIMESTEP
2000
ITEM: NUMBER OF ATOMS
40
ITEM: BOX BOUNDS ss ss ss
1.6240529051279083e+01 2.4549219241143344e+01
1.6461015573796647e+01 2.4328262401045826e+01
1.6243834639275800e+01 2.4545794648392725e+01
ITEM: ATOMS x y z vx vy vz
19.7641 19.4666 16.2618 -1.50022 -2.51164 0.863779
17.9818 18.8329 18.4178 0.444022 -0.409021 0.204366
18.3521 16.5783 19.7011 0.117712 -1.11722 -0.30154
20.0376 17.0592 17.6175 -0.441995 -0.0796256 0.448915
22.6343 17.3958 18.188 -1.78045 -0.432355 -0.105149
20.8904 17.0051 20.3215 -0.0567357 -1.22056 0.659376
20.7259 19.2489 18.7839 1.26285 -0.252634 -0.932613
23.708 19.6896 19.1333 0.732477 0.542496 0.384019
22.2519 19.438 16.6119 -0.729933 0.282393 0.888364
17.3449 23.2288 20.4484 1.18668 0.991629 0.843082
18.9749 21.2845 19.6135 0.627521 0.556896 0.120721
16.3312 21.0086 19.2514 0.425264 0.647933 -0.76046
18.5427 23.4388 18.1734 -1.39253 -0.10651 -0.0330425
17.896 21.1726 17.1341 0.39629 0.963491 -0.414101
23.2459 21.8626 17.5076 1.60092 0.69786 -1.27493
21.3717 24.117 18.0785 1.84195 -0.30853 0.181066
21.7499 21.83 19.6442 0.287801 2.82552 -0.622417
24.4568 22.1564 20.0262 1.98274 -1.19482 -0.104288
20.5696 21.8092 17.0466 0.592119 0.25872 0.141026
23.9506 24.2086 18.356 0.830872 1.24707 -1.16427
17.3327 18.7007 23.3235 -0.577838 -0.00850846 1.2676
18.9227 18.9442 21.1422 -1.52187 0.650413 1.08342
19.3863 16.5868 22.5194 0.0182738 -1.48351 -0.645418
16.8851 16.6383 21.6554 -0.389824 -0.143714 0.911148
16.3416 18.6886 20.695 -0.168841 -0.289435 0.66785
20.0628 19.1093 23.6966 -0.955576 -1.2962 0.758177
24.3455 19.9231 21.6501 -0.446391 -0.0710185 0.40602
22.7638 19.679 23.8811 -0.273103 0.109238 -1.65624
21.9447 17.3701 22.9953 1.56323 1.5707 -1.01666
21.8647 19.5383 21.3289 -1.60976 -1.17074 -0.326029
23.4703 17.4681 20.7773 0.484991 1.57791 0.0950987
19.8988 23.9815 20.4183 -0.286471 1.00684 0.0574061
18.4834 23.285 22.8172 1.13903 -0.975318 1.22315
18.3303 21.0078 24.27 -0.164458 -0.725592 -1.7492
20.0603 21.4601 21.9921 0.0793058 -0.415645 -1.21508
17.1495 20.9971 21.9879 -0.65651 -1.5052 -1.25087
21.1487 23.745 22.9316 0.382544 1.21934 0.593736
21.0649 21.6074 24.4213 -0.753734 -0.289559 0.772202
22.9455 22.0141 22.4124 -1.24184 1.58895 0.633076
22.6181 24.2239 20.5677 -1.04851 -0.730047 0.368726
ITEM: TIMESTEP
3000
ITEM: NUMBER OF ATOMS
40
ITEM: BOX BOUNDS ss ss ss
1.6240529051279083e+01 2.4549219241143344e+01
1.6461015573796647e+01 2.4328262401045826e+01
1.6243834639275800e+01 2.4545794648392725e+01
ITEM: ATOMS x y z vx vy vz
19.787 19.2842 16.3085 -2.55108 -0.591503 0.537698
17.9779 18.8953 18.2979 -0.802516 -0.032606 0.0848799
18.4345 16.729 19.8912 0.384814 0.0145724 -0.215205
19.9642 17.06 17.5015 1.62782 1.81288 0.697358
22.5744 17.4066 18.0408 -1.67398 -1.52379 -0.0572331
20.9235 16.9511 20.176 0.142499 0.041006 0.862549
20.7767 19.371 18.8086 1.18513 -0.507711 -0.966758
23.6 19.6934 19.1425 -1.22357 0.734717 2.28155
22.2794 19.5061 16.5338 0.0893548 0.806681 -0.457291
17.059 23.2028 20.0272 0.674413 -0.254307 -1.39979
18.9745 21.3518 19.5332 -0.831817 0.639809 1.815
16.3692 20.8828 19.1721 0.687402 1.45268 -0.653462
18.5108 23.6409 18.0389 -0.447784 0.976624 0.084307
17.9759 21.2087 17.0212 0.294246 0.242657 -2.12425
23.2525 21.8036 17.4943 -0.0417285 -0.137402 -0.177923
21.1905 24.142 18.2559 1.1637 0.868586 1.1948
21.8151 21.8709 19.7424 0.310282 -0.606207 0.857669
24.5061 21.8193 20.1298 0.706009 0.532649 0.381107
20.6367 21.818 17.134 -1.27592 -1.44313 0.522551
23.8172 23.869 18.8385 -0.913655 -0.984288 0.614308
17.5924 19.0013 23.4412 -0.324996 0.297827 0.860327
18.9289 18.9488 21.1567 0.443517 0.617421 -1.1071
19.4392 16.781 22.6153 1.82331 0.749035 -0.632224
17.1256 16.6526 22.0804 -0.0981841 0.161755 0.819019
16.3373 18.7435 20.7061 0.761596 -0.523614 -0.245041
20.2296 19.141 23.6857 0.863717 0.159713 0.419954
24.4109 19.5675 21.7271 -0.559749 -0.0743097 -1.19904
22.875 19.4043 23.8032 0.685943 -1.50547 0.199549
22.1296 17.2372 22.757 -0.971342 -0.418002 0.661311
21.8162 19.4437 21.3242 0.440546 -1.94778 -0.19775
23.6153 17.4539 20.5081 1.98805 0.769669 -0.325611
19.7195 23.9537 20.451 0.154996 -0.23148 -0.154684
18.1217 23.4176 22.5289 -0.683081 -0.465461 -1.70477
18.6886 21.5702 24.2268 -0.102756 0.677492 -0.283384
20.0173 21.4787 21.9291 1.18947 -0.838766 -2.23327
16.9776 21.0916 21.8563 -0.792048 0.411341 1.17355
20.8508 23.7584 23.0913 -2.29882 0.129592 2.12494
21.3209 21.5703 24.4842 0.952997 0.832202 -1.1429
22.9075 21.849 22.4326 -0.966782 -1.12905 -0.760013
22.271 24.2289 20.9064 -0.0100068 0.285977 -0.154725
ITEM: TIMESTEP
4000
ITEM: NUMBER OF ATOMS
40
ITEM: BOX BOUNDS ss ss ss
1.6240529051279083e+01 2.4549219241143344e+01
1.6461015573796647e+01 2.4328262401045826e+01
1.6243834639275800e+01 2.4545794648392725e+01
ITEM: ATOMS x y z vx vy vz
19.6641 19.3617 16.3663 -0.733654 -0.763766 -0.250376
17.8916 18.7158 18.4555 -0.629942 0.542372 1.18335
18.2737 16.5044 20.0307 -1.07792 0.706765 -1.7792
19.8705 17.0452 17.711 1.04916 0.974149 0.83718
22.5982 17.4911 17.9698 -1.28583 -1.98336 -0.137755
21.001 16.7997 20.1088 0.306234 0.905019 -0.599379
20.6487 19.3411 18.8088 1.23303 -0.466433 -1.23809
23.4785 19.7357 18.9859 -0.694165 0.900319 0.836663
22.1835 19.7177 16.4777 0.740496 0.890754 -0.804304
17.0775 23.1662 19.9127 0.189644 1.30416 1.31116
18.9063 21.3717 19.4798 -0.249301 1.5549 1.17136
16.159 20.8174 19.2648 -0.123502 -0.0255831 0.040618
18.8774 23.6009 18.0061 0.758836 -1.38163 0.344319
17.7849 21.0273 17.1221 2.39425 -0.759934 1.05407
23.3746 21.9607 17.4764 -0.459001 1.63704 0.0504336
21.5983 24.1342 18.1901 0.285478 -1.21444 1.55548
21.8622 21.9505 19.6784 -0.466176 -1.91162 0.111668
24.5319 21.9654 20.378 0.377883 0.546896 0.679496
20.5368 21.8309 17.1291 -1.77034 -0.602886 -0.771556
24.0418 23.9562 19.0228 0.240769 -0.0446671 -0.453955
17.5745 18.8178 23.2216 -0.414953 0.900382 0.274042
19.0729 18.9732 21.1387 0.040017 0.46165 -0.819564
19.5334 16.6794 22.4301 -0.269342 -0.0773722 0.257627
16.9972 16.578 22.4146 -0.262513 -0.320176 0.789829
16.4227 18.6138 20.7169 0.683616 -2.02409 -0.847058
20.1785 19.269 23.7909 0.108313 0.0174763 -0.600862
24.3307 19.4415 21.7778 -0.255425 -0.045741 -0.797867
22.8026 19.6211 23.8366 -1.10966 0.166375 0.70271
22.1615 17.2452 22.5338 -0.890108 0.914016 0.589106
21.7941 19.4407 21.388 0.420745 -0.507982 1.21913
23.5217 17.3911 20.3121 0.309252 -0.268619 -0.553386
19.8447 24.0293 20.3571 0.423886 -0.210873 0.469648
18.1184 23.5999 22.4034 -0.314146 -0.754917 0.240471
18.5982 21.5307 24.0458 -2.04501 -1.1335 -0.806319
20.0744 21.5532 21.8655 -0.789603 0.409958 -0.607029
17.1687 21.0258 21.8176 1.42674 -1.84444 0.903081
20.7037 23.7981 23.06 1.16756 1.46403 -1.26595
21.3139 21.5396 24.6283 0.27094 1.2894 -1.80281
22.8245 21.8967 22.5047 0.540833 0.0780519 -0.958647
22.4032 24.2621 20.9819 0.872905 0.678312 0.47267
ITEM: TIMESTEP
5000
ITEM: NUMBER OF ATOMS
40
ITEM: BOX BOUNDS ss ss ss
1.6240529051279083e+01 2.4549219241143344e+01
1.6461015573796647e+01 2.4328262401045826e+01
1.6243834639275800e+01 2.4545794648392725e+01
ITEM: ATOMS x y z vx vy vz
19.5844 19.117 16.2531 -0.0738502 -0.202085 -1.07091
18.0399 18.8108 18.3516 0.64486 -0.964541 -0.328272
18.329 16.6139 19.6423 0.22324 0.514534 -1.38237
20.1789 16.9652 17.5577 0.227371 -0.0514041 -0.330568
22.7475 17.4296 18.5325 -0.407286 -1.84863 0.503465
20.993 16.7355 20.3087 -0.297198 -0.490608 -0.293364
20.7568 19.2463 18.7381 0.664199 1.17238 -0.755673
23.7201 19.7249 19.0064 0.16466 -0.419682 -0.0430517
22.2391 19.4634 16.5561 -1.097 1.04326 2.03631
17.1981 23.4166 20.5403 0.625846 -1.24195 -0.835853
18.939 21.4295 19.5704 -0.480833 0.894794 0.0832434
16.4151 21.3057 19.0904 -1.5723 -1.21712 0.372078
18.493 23.6315 18.1532 -1.52 0.362462 -0.790224
17.8282 21.1254 16.9656 -0.399195 -0.359169 0.493629
22.9964 21.8388 17.4761 -1.40791 0.0325839 0.114458
21.131 23.8586 18.1294 -0.61511 0.0417444 0.317521
21.7465 21.8577 19.8977 0.444709 0.298701 0.0141922
24.3959 22.1745 20.0052 0.217976 0.880546 -1.60941
20.4433 21.5926 17.1765 0.0848624 0.558759 0.628801
23.6861 24.0963 18.4284 0.138018 -1.49588 0.167664
17.3792 18.6805 23.279 -0.251894 0.0264655 0.0344299
18.9821 18.8782 21.0501 2.03933 0.118425 -0.648069
19.3331 16.6102 22.5666 -1.05092 1.76281 0.141851
16.993 16.7288 21.6405 1.16009 0.708954 -0.981311
16.2854 19.0222 20.4139 -0.464842 2.19206 0.71279
20.149 19.0987 23.6087 -1.61483 1.16838 0.705197
24.54 20.0287 21.7954 0.805423 0.0824788 -1.07906
22.6513 19.5799 23.6969 0.0782988 -0.00980151 -0.412284
21.7813 17.127 22.7256 0.543437 -1.71326 0.214226
21.9175 19.3473 21.2838 0.342401 -0.605011 0.879184
23.7262 17.6351 21.025 0.966244 1.01106 1.28684
19.9385 23.9629 20.488 0.54075 -0.885471 -1.53874
18.4944 23.4847 22.8217 -1.44702 0.336505 -0.320072
18.557 20.9954 24.3653 0.618246 -0.57869 0.323965
20.0459 21.4636 22.0227 -0.250492 -0.182216 0.123297
17.2005 21.0876 21.9074 0.425279 0.591553 -0.590185
21.1247 23.8363 22.9004 2.02681 -0.209375 -0.294346
21.2304 21.6334 24.5044 0.251796 -1.02592 0.0110088
22.945 21.9474 22.5136 0.972384 0.542714 2.66932
22.6643 24.2184 20.8115 -1.25554 -0.840358 1.47029
ITEM: TIMESTEP
6000
ITEM: NUMBER OF ATOMS
40
ITEM: BOX BOUNDS ss ss ss
1.6240529051279083e+01 2.4549219241143344e+01
1.6461015573796647e+01 2.4328262401045826e+01
1.6243834639275800e+01 2.4545794648392725e+01
ITEM: ATOMS x y z vx vy vz
19.7599 19.2922 16.206 0.113289 -0.818687 -0.97728
18.0198 18.8478 18.1885 -1.07319 -0.243599 0.292634
18.3005 16.7915 19.8861 -0.913901 -0.456999 0.970625
19.8955 17.0798 17.5904 -0.754182 1.70964 -1.85339
22.5935 17.2829 18.0669 -0.265595 -0.0372993 0.670438
20.9559 16.9369 20.2212 -0.622182 -0.472207 0.186755
20.7488 19.219 18.6881 1.21896 -1.13448 0.0510655
23.6578 19.7035 19.0464 1.27163 0.310032 -1.47175
22.4491 19.3881 16.5471 1.34258 1.63451 -1.35345
16.9341 23.3271 20.262 0.7647 -0.755131 -1.49528
18.9884 21.3085 19.4372 -0.0175827 -0.87045 -0.703119
16.3719 21.0864 19.0434 0.992014 -0.225683 2.03163
18.3068 23.4152 18.0369 0.0133244 -1.03708 -0.251536
17.9839 21.1626 16.7505 0.647959 0.0814697 -0.839785
23.2311 21.9148 17.3848 -0.939844 0.674388 0.94532
21.0985 23.8636 18.4049 -0.38979 -0.377411 0.248516
21.8096 21.7042 19.8778 0.15193 0.12027 0.470491
24.3295 22.054 20.2047 1.03191 1.12177 0.186156
20.6638 21.5273 17.0723 -0.854778 0.579712 -0.463231
23.621 24.0138 18.8153 1.35671 0.358701 0.429536
17.8889 19.076 23.4885 0.576631 1.3278 0.848963
19.0045 19.0213 21.0074 -0.158958 -2.10519 -0.339217
19.4469 16.6581 22.4691 -0.453427 0.532879 -1.10955
16.99 17.1035 22.2414 -1.93832 -1.61536 1.47172
16.3846 18.7983 20.4358 0.241111 0.935531 0.555503
20.3642 19.0935 23.6977 0.470465 0.934397 0.736079
24.3674 19.646 21.6204 0.398168 -2.42987 -1.00299
22.8794 19.5599 23.9208 0.373182 0.806618 0.720836
22.2506 17.1865 22.6954 0.613306 0.931753 0.662622
21.8272 19.3704 21.3805 -0.230799 1.48733 0.909437
23.6305 17.5007 20.417 -1.46461 -0.736362 -1.06889
19.7388 23.8095 20.5605 0.423654 0.0220657 -0.540785
18.1682 23.6626 22.6587 0.35458 -0.735043 0.258331
18.5287 21.5291 24.1111 -1.59626 0.239835 0.0540888
20.0606 21.4916 22.103 0.724329 0.429896 -2.17968
17.2426 21.1879 21.7072 0.256826 -0.928737 0.40355
20.904 23.8293 23.2757 0.112497 -1.33863 0.938168
21.2362 21.5231 24.7261 -0.199731 0.166428 0.517726
22.8466 21.7186 22.4596 -1.59316 1.28992 1.48012
22.3205 24.1149 21.0936 0.0165636 0.623261 -0.390397
ITEM: TIMESTEP
7000
ITEM: NUMBER OF ATOMS
40
ITEM: BOX BOUNDS ss ss ss
1.6240529051279083e+01 2.4549219241143344e+01
1.6461015573796647e+01 2.4328262401045826e+01
1.6243834639275800e+01 2.4545794648392725e+01
ITEM: ATOMS x y z vx vy vz
19.6789 19.3108 16.3812 -0.514705 0.0510508 1.46038
17.8355 18.7043 18.4462 0.685197 1.43587 -1.22981
18.0205 16.6006 19.9557 -0.636303 -0.194888 -0.980424
19.8263 16.9448 17.741 0.947742 0.422501 -0.862268
22.359 17.351 17.947 0.580453 0.277736 0.976269
20.9067 16.9989 20.2915 0.482779 1.77033 -1.12804
20.7479 19.4375 18.7279 -0.0615913 0.411067 1.44286
23.7149 19.6699 18.9965 0.792419 -0.704255 0.418319
22.2384 19.7561 16.6589 0.0392018 -0.889772 -1.03914
17.1473 23.2469 19.9598 0.878443 1.47685 -1.50238
19.0128 21.3576 19.4966 -2.42089 -0.278409 -0.873351
16.4579 20.8348 19.1198 0.780439 -0.128959 -0.0837898
18.67 23.5463 17.9106 -0.363643 -0.13969 0.338064
17.9785 21.1478 17.0169 -1.25859 0.668207 0.504323
23.3402 22.0049 17.6384 1.69101 0.683179 0.780203
21.522 24.0668 18.3641 -0.943173 0.212248 -1.64048
21.7222 21.8823 19.807 0.701712 -2.15 1.06288
24.4656 22.1268 20.1528 -1.49563 0.769766 0.551789
20.6267 21.7262 17.0332 -1.85553 1.44616 -1.83975
24.1898 24.1672 18.8123 0.211535 -0.404739 -1.90814
17.5946 18.9425 23.2508 -0.391928 1.81476 0.41644
18.9726 18.9442 21.0749 -0.200139 -2.41578 -1.00198
19.5632 16.7758 22.5876 -0.633997 0.309248 1.09151
16.8473 16.6535 22.2973 0.457607 -1.59312 -1.05254
16.2865 18.5887 20.8098 1.1056 -0.555451 0.08002
20.2882 19.1098 23.6368 1.07658 0.979099 0.558838
24.38 19.8574 21.5521 -0.211591 0.875557 0.860111
22.8666 19.642 23.7038 -0.064384 1.15728 0.316006
22.1586 17.3041 22.6881 -1.22485 -1.72606 0.869521
21.8284 19.5249 21.2394 0.707773 1.14248 -0.805187
23.4639 17.4338 20.43 -0.682066 -1.12248 0.0785737
19.7911 23.8562 20.4232 1.03722 -2.74144 1.15129
18.231 23.2986 22.4982 0.826385 -0.95168 0.700412
18.5118 21.2336 24.2553 0.651882 -0.486182 1.79601
20.0348 21.3298 22.0756 -1.17177 -0.35853 -0.201868
17.076 21.0062 21.6839 0.867281 0.911377 0.615032
20.8204 23.7135 22.9831 -0.367462 -0.369235 -0.561476
21.1115 21.5712 24.6448 0.91106 1.54358 0.0812215
22.8085 21.9496 22.4943 -1.22297 -1.4146 0.0324521
22.7036 24.1833 21.0134 0.288882 0.26693 0.528121
ITEM: TIMESTEP
8000
ITEM: NUMBER OF ATOMS
40
ITEM: BOX BOUNDS ss ss ss
1.6240529051279083e+01 2.4549219241143344e+01
1.6461015573796647e+01 2.4328262401045826e+01
1.6243834639275800e+01 2.4545794648392725e+01
ITEM: ATOMS x y z vx vy vz
19.4413 19.2146 16.4185 -0.409748 0.978819 1.96019
17.8691 19.0674 18.4146 0.104813 1.12391 -0.481182
18.5102 16.7203 19.6104 -0.290745 -1.17595 -0.0546513
20.3176 17.1228 17.6119 -0.230622 -1.3674 -0.658666
22.8206 17.3251 18.3019 -0.354916 1.57068 0.247126
21.196 16.9101 20.2283 -0.5036 -1.46963 1.10893
20.9139 19.383 18.8115 2.42853 1.10026 -0.304504
23.7228 19.7033 19.1245 0.512376 0.943362 -0.7296
22.2773 19.1048 16.6806 -0.126983 0.782497 -1.18987
17.2353 23.513 20.3924 -0.832202 -0.45446 0.104824
18.9389 21.3591 19.4536 -0.744864 0.828304 -1.36957
16.2364 21.3858 19.0978 1.46632 0.402262 1.1029
18.4469 23.3802 18.0577 0.27372 -0.672755 2.51601
17.6779 21.3578 16.9931 -0.785363 -1.22895 0.763292
23.1176 21.5596 17.3343 -1.26633 -1.44238 -0.0498377
21.0453 23.8913 18.1179 -1.05509 -0.845725 -0.25955
21.7231 21.8559 19.7133 -0.30345 -2.533 -0.652152
24.4573 22.0389 20.1629 0.304806 1.1829 -0.607268
20.4402 21.5347 16.9667 1.34134 -0.224477 -0.449082
23.4633 23.8632 18.4247 0.347526 0.125293 -0.160922
17.466 18.8475 22.9968 1.0088 1.78622 0.788857
19.1504 19.0687 20.9892 0.0601105 0.824862 -0.227738
19.4242 16.9388 22.5001 0.0652507 -0.104323 -0.965166
16.8637 16.8577 21.5125 0.33026 0.0705618 -1.0376
16.2952 19.0622 20.4206 1.53916 -0.668698 -1.20382
20.2576 19.044 23.7892 -0.987379 1.95172 -0.761267
24.5226 19.8696 21.6978 -0.306617 -0.967063 0.71646
22.9539 19.5297 23.853 -1.07471 0.432878 1.66961
22.1527 17.2788 22.9678 -1.10377 -0.420032 -0.643452
21.8351 19.3924 21.4123 -1.02206 0.749104 0.794293
23.7348 17.5321 20.9084 0.247308 0.245548 0.317748
19.8041 23.8765 20.6505 1.34977 -0.136519 0.270943
18.2938 23.3231 22.9661 0.562417 -0.00957352 -0.846402
18.415 20.9979 24.378 0.856777 0.115354 -0.537166
19.989 21.3416 22.1564 -0.158248 0.124066 -0.286854
17.1975 21.2765 21.8506 2.18074 -0.00187378 1.16051
20.9499 23.6724 23.1085 -0.00823833 -0.525071 -0.794962
21.1387 21.4955 24.5073 -0.0699252 -0.743061 0.880826
22.9915 21.8745 22.4678 -1.61386 -1.48478 -0.37517
22.5134 24.2297 20.7506 -1.73132 1.13712 0.24393
ITEM: TIMESTEP
9000
ITEM: NUMBER OF ATOMS
40
ITEM: BOX BOUNDS ss ss ss
1.6240529051279083e+01 2.4549219241143344e+01
1.6461015573796647e+01 2.4328262401045826e+01
1.6243834639275800e+01 2.4545794648392725e+01
ITEM: ATOMS x y z vx vy vz
19.7553 19.1522 16.2979 -0.15648 0.282087 1.09414
17.8784 18.9901 18.3953 -0.390612 -2.39737 0.0484005
18.2194 16.5077 19.9055 0.209655 -1.37761 0.130791
19.873 16.8704 17.8429 -2.72523 0.327296 1.3313
22.4643 17.2356 18.1132 -0.324107 0.983599 1.4526
20.845 16.8439 20.3745 -0.0904789 0.0476196 0.429479
20.8092 19.268 18.7437 -0.282357 1.2987 1.41773
23.6419 19.6779 19.0178 -1.98978 0.354919 0.980594
22.2853 19.6512 16.6422 0.122501 2.49025 -0.771577
17.2159 23.4197 20.2816 -1.61652 -0.600528 -1.01718
18.8211 21.4171 19.4221 0.255193 -0.586724 -0.473332
16.333 21.0708 19.1443 0.379547 0.72176 -0.890105
18.7433 23.6633 18.0193 0.250659 0.0227132 0.407112
18.0141 21.4804 16.8112 0.460848 0.0529934 2.06817
23.3288 22.0146 17.3967 1.81617 0.35237 -0.305234
21.3579 24.0249 18.2857 1.56191 -1.10199 0.851769
21.6665 21.7525 19.6957 -0.820449 -1.33871 -1.10215
24.3596 22.0398 20.1811 0.91984 0.240321 0.553368
20.5502 21.7242 16.8777 0.926267 0.728812 -0.0220207
23.8812 24.2215 18.713 0.496201 0.774658 -0.115969
17.5712 18.7589 23.243 -0.0171667 1.56988 0.312999
19.1146 18.8892 20.9864 0.398175 -0.525484 -0.836601
19.4243 16.7834 22.6926 1.00352 -0.17866 -1.60719
16.7729 16.7437 22.1935 1.21262 -0.0187931 0.717137
16.337 18.6762 20.5291 0.828829 -1.14528 0.915505
20.4248 19.0279 23.6862 -0.0725295 0.361127 -1.59415
24.47 19.7811 21.6643 0.64059 -0.643622 -0.871862
23.0829 19.7182 23.8996 -0.021561 -0.679336 -0.345809
22.421 17.3262 22.8629 -0.0838229 -1.30713 -0.927179
21.808 19.3905 21.3807 -1.43047 -0.428676 -0.594748
23.5049 17.4754 20.5531 -0.10368 -0.64872 0.730156
19.8446 23.925 20.5139 -1.5969 1.00142 -0.349167
18.0921 23.4711 22.6637 -1.62264 1.1574 -0.358121
18.3594 21.2665 24.1854 0.501113 0.823861 -1.67806
20.0886 21.4677 22.0258 0.844921 0.855568 1.22691
17.2391 21.02 21.75 0.136172 -1.4298 -0.0130456
20.7183 23.6451 23.0939 1.96652 0.885128 -0.559218
21.0404 21.4055 24.4759 -0.196566 -0.855573 -0.456148
22.8878 21.9728 22.3966 -1.94874 -0.0920793 0.123171
22.5549 24.0296 20.8418 0.558837 0.0236002 0.0975547
ITEM: TIMESTEP
10000
ITEM: NUMBER OF ATOMS
40
ITEM: BOX BOUNDS ss ss ss
1.6240529051279083e+01 2.4549219241143344e+01
1.6461015573796647e+01 2.4328262401045826e+01
1.6243834639275800e+01 2.4545794648392725e+01
ITEM: ATOMS x y z vx vy vz
19.6666 19.182 16.2458 0.889068 -1.33153 -1.66582
17.8505 19.0151 18.3105 -1.6913 -1.14307 -0.5864
18.3463 16.5366 19.9249 -0.141191 -1.31756 -0.24415
19.7975 17.0822 17.8968 -0.263678 0.185178 -1.00664
22.3993 17.2874 18.0617 0.0214378 -0.232284 1.06312
21.0029 16.6118 20.3276 0.179958 -1.81181 0.16349
20.8088 19.3792 18.7197 0.394085 -0.0230461 0.22966
23.8497 19.6438 19.0595 -0.109848 -0.547427 1.97167
22.2195 19.5209 16.3776 -0.114544 -0.748924 -0.654389
17.1922 23.2695 20.2218 -0.959187 -0.119547 1.22509
18.9434 21.4025 19.3047 -0.353277 -0.467241 -1.56121
16.2189 21.0027 19.0287 0.690134 2.78996 -0.705396
18.74 23.717 17.9908 -0.839209 0.630404 0.0593311
18.0742 21.3232 16.9112 -0.462528 0.782284 -0.295259
23.3502 21.7102 17.4385 -0.869837 -1.07914 -1.38867
21.2909 24.2519 18.4245 -0.496262 0.257608 1.1902
21.6355 21.8238 19.6169 -0.747197 1.04477 0.978069
24.32 21.9624 20.2408 -0.387921 -0.658477 -0.456685
20.6535 21.7294 16.9938 0.377878 0.620516 -0.236801
23.7567 23.9005 18.757 -0.161919 -0.201525 1.15118
17.7381 18.9612 23.344 -1.75967 -0.884395 -2.43044
19.1267 18.9305 20.8692 0.167222 0.212885 0.470563
19.4959 16.9059 22.6591 -0.34917 1.26251 0.464886
16.922 16.7239 22.2144 0.626875 -0.609534 1.42658
16.3611 18.6013 20.6662 0.92128 -0.217408 -0.583419
20.3104 19.2102 23.7476 -0.0320846 0.00576754 -0.356473
24.5408 19.7448 21.6521 0.922746 0.484087 0.30464
22.982 19.5325 23.752 -1.11051 1.13882 -0.0434143
22.1723 17.1569 22.9005 0.164201 0.907366 -1.57199
21.913 19.4062 21.3072 0.0669112 -0.873726 -0.256432
23.6148 17.4557 20.4489 2.25601 -0.799156 0.896251
19.6516 24.0317 20.5146 -0.107721 -1.44227 1.19094
18.1661 23.4911 22.7079 1.19995 -0.285836 1.65052
18.6862 21.3424 24.1119 1.12637 -0.264865 0.378624
19.9395 21.5762 21.9621 0.637708 1.06026 -0.59399
17.1723 20.979 21.505 -0.445188 1.90836 0.465171
20.6387 23.8872 23.2928 -0.400492 -0.462714 -1.24778
21.1448 21.5892 24.5682 0.960716 0.876736 0.896509
22.7321 21.927 22.585 0.200878 -0.365925 0.309613
22.375 23.9947 21.1383 -0.000692622 1.71989 -0.60075
ITEM: TIMESTEP
11000
ITEM: NUMBER OF ATOMS
40
ITEM: BOX BOUNDS ss ss ss
1.6240529051279083e+01 2.4549219241143344e+01
1.6461015573796647e+01 2.4328262401045826e+01
1.6243834639275800e+01 2.4545794648392725e+01
ITEM: ATOMS x y z vx vy vz
19.4163 19.1268 16.1737 1.36911 0.152506 1.41863
17.6739 18.8172 18.0983 -0.373551 -0.116582 0.510719
18.5545 16.5547 19.6329 -1.93484 -0.335467 -0.914492
20.2157 17.0259 17.5847 0.322535 0.201548 -0.822074
22.7458 17.4549 18.4357 -1.34228 -0.415759 1.45681
21.1192 16.7634 20.4463 0.0858341 0.0771348 -0.0880358
20.6462 19.1847 18.7587 -0.872332 1.131 -0.840738
23.5631 19.7756 19.1181 0.233327 -0.162818 -0.851913
22.0792 19.2009 16.6162 0.144354 1.18734 -0.567545
17.3114 23.5145 20.5228 -1.20618 1.98137 0.52507
19.0022 21.1999 19.501 -0.0124583 0.0235391 -1.85135
16.514 21.3898 19.0505 -1.06239 -1.60002 0.341924
18.4434 23.4916 18.1762 0.446496 -1.08948 -0.893191
18.0082 21.1523 16.8647 0.265 -1.1971 0.0984453
23.0915 21.7244 17.3665 0.644743 -0.179588 -0.174675
21.2283 23.947 18.2336 0.213174 1.35394 -0.0535243
21.7599 21.7758 19.6454 -0.788705 0.200648 -0.349126
24.3521 22.2113 20.0741 -0.528781 -1.65963 -1.37986
20.4591 21.4732 17.1047 0.416054 -0.396338 -0.0961983
23.7522 24.136 18.4861 1.77026 -0.0595906 1.09236
17.4602 19.024 23.1712 -2.26276 -0.238603 0.713063
19.0439 18.886 21.043 0.189681 -1.43456 0.128771
19.2885 16.6711 22.4429 -0.230734 -1.58223 -0.950431
16.9023 16.7795 21.8088 0.0350451 -0.353241 -0.117035
16.4605 19.0442 20.3553 -0.539544 0.348341 0.133493
20.0993 19.0615 23.7724 0.430402 -1.61289 0.653151
24.52 20.0396 21.7538 0.329979 1.83248 -0.765245
22.7916 19.5388 23.6869 1.61655 2.5615 1.63225
22.0603 17.1659 22.8085 0.349843 -1.12164 -0.300192
21.825 19.449 21.2782 1.93566 -0.0699714 0.703864
23.8152 17.6197 20.9292 0.695304 0.182432 1.04431
19.8512 23.7621 20.5654 -1.06981 0.434768 0.628339
18.3796 23.3411 23.0661 1.50927 0.175437 -0.214178
18.4841 21.2378 24.3795 0.732665 1.72217 0.819991
20.0938 21.3627 22.2296 -2.3142 -1.81213 -0.477873
17.267 21.1756 21.7287 -0.191342 1.55312 -0.1006
20.9247 23.8333 23.1842 0.289098 -0.710312 1.97884
21.2548 21.6137 24.5047 -1.71531 -1.10217 -0.0284545
22.8009 22.0179 22.3185 2.03889 0.470709 -1.08235
22.5408 24.2566 20.8828 0.381958 1.66015 -0.960946
ITEM: TIMESTEP
12000
ITEM: NUMBER OF ATOMS
40
ITEM: BOX BOUNDS ss ss ss
1.6240529051279083e+01 2.4549219241143344e+01
1.6461015573796647e+01 2.4328262401045826e+01
1.6243834639275800e+01 2.4545794648392725e+01
ITEM: ATOMS x y z vx vy vz
19.693 19.2192 16.2954 1.24734 1.56497 0.515631
17.8974 18.7486 18.283 -1.22842 -1.0941 1.12773
17.957 16.5628 20.1185 -0.0625524 -0.936881 0.806321
19.6488 16.9819 17.9414 -0.833698 -1.39719 -1.15929
22.395 17.4927 18.0327 -1.03665 0.451077 1.25167
20.8361 17.0228 20.2134 1.289 0.471628 -1.91016
20.8008 19.4182 18.6637 1.15454 0.58041 0.226336
23.7412 19.6598 18.8486 1.90624 -0.171032 -1.90021
22.3911 19.7091 16.6061 0.473036 -0.761258 -1.0558
17.2412 23.1712 19.8233 -0.896919 0.723071 -0.166408
19.0547 21.3472 19.4373 -1.38966 -1.23881 -0.00929115
16.4215 20.8085 19.0573 0.0249081 -0.240465 1.95201
18.8193 23.5902 17.7744 2.0317 0.423038 0.983447
17.9457 21.1633 17.019 0.826458 0.532687 -0.869442
23.3069 22.1336 17.458 0.134409 0.0873103 -1.2379
21.415 24.15 18.356 0.751631 -0.972701 -0.610424
21.7155 21.785 19.7051 0.682347 -0.723568 0.379814
24.3302 21.9381 20.2291 -0.468647 -0.554672 1.51089
20.6114 21.7957 16.9729 1.30303 -1.44866 0.0992095
24.0223 24.0322 19.0082 -0.716495 0.707509 -0.882005
17.4807 19.0857 23.4663 -0.901572 0.96848 1.40391
19.1485 18.9385 20.8522 0.648398 0.921884 0.317604
19.5579 16.5691 22.4247 -0.0303257 -0.474879 0.819124
17.0456 16.763 22.4959 1.40122 -1.24335 -0.0692744
16.4525 18.6774 20.9568 -0.565737 2.05384 -0.0169756
20.2078 19.12 23.525 0.64391 0.800279 -1.63839
24.5076 19.7113 21.6401 -0.815373 -0.433303 -1.31187
22.9617 19.6499 23.7385 -0.207578 -0.0661563 -0.199748
22.1456 17.4755 22.8338 0.541481 0.519864 0.714216
21.7817 19.5718 21.1946 -0.0792686 0.788549 0.31929
23.4254 17.4875 20.5007 -0.406418 -0.263129 -1.48988
19.8056 23.7909 20.3689 -0.244363 0.423888 -1.03192
18.2281 23.4515 22.5076 -1.07102 -0.122993 -0.170489
18.5876 21.3057 24.2614 -0.801878 -0.707402 1.24346
20.0322 21.4894 22.0447 -0.20563 0.501901 1.37931
17.2592 21.006 21.7061 -0.369903 1.16858 -0.454777
20.7267 23.6169 23.2977 -2.09057 -1.09284 1.64867
21.145 21.2853 24.5634 -0.879849 0.62937 -1.42973
22.8151 22.0055 22.5353 0.158907 -1.03421 0.150159
22.2412 24.0691 21.0426 0.0839782 0.659271 0.765164
ITEM: TIMESTEP
13000
ITEM: NUMBER OF ATOMS
40
ITEM: BOX BOUNDS ss ss ss
1.6240529051279083e+01 2.4549219241143344e+01
1.6461015573796647e+01 2.4328262401045826e+01
1.6243834639275800e+01 2.4545794648392725e+01
ITEM: ATOMS x y z vx vy vz
19.6607 19.3626 16.1929 0.171366 1.2158 1.61782