ITEM: TIMESTEP
0
ITEM: NUMBER OF ATOMS
42
ITEM: BOX BOUNDS ss ss ss
1.5018164562272911e+01 2.5771835437727088e+01
1.5128822386838578e+01 2.5661177613161421e+01
1.5107410961039818e+01 2.5682589038960181e+01
ITEM: ATOMS x y z vx vy vz
19.8102 15.1329 18.1013 1.67403 -0.921103 -0.2597
15.0222 18.3239 20.025 -0.395402 1.90629 -1.82993
18.0919 20.1245 15.1115 1.1817 0.938575 0.210484
17.4162 16.7284 19.0631 -3.21537 -1.89765 -0.379549
18.951 17.6287 16.6064 -2.44475 -0.55519 -0.406882
16.5571 19.2242 17.5682 -2.04375 0.405098 -0.433542
23.9829 19.0468 16.082 -1.45049 0.87516 1.05158
24.2685 17.8134 18.8387 -1.02267 1.91288 -2.41889
21.8966 17.0898 17.0917 -1.42962 0.113025 0.615115
21.0374 19.5856 15.5968 -0.179594 -0.0470065 1.69674
22.1822 15.8565 19.8483 0.880779 -0.749837 -1.05617
16.2359 24.2099 19.1946 -1.40895 -0.296493 0.152026
19.0049 24.4333 17.9762 1.2155 0.461283 0.903724
15.6291 21.2669 19.6098 0.736157 -0.86889 1.55069
17.1639 22.1672 17.1531 1.8645 -0.751848 -0.251999
19.9329 22.3906 15.9346 1.26706 1.45557 -2.13949
21.7739 24.6567 16.7578 -1.58294 1.14917 0.231415
23.7708 23.5614 18.7614 0.175244 -0.488871 1.13738
21.3769 25.1569 19.7232 0.570474 -0.12889 -0.628712
24.8753 20.7564 18.4235 0.918796 -1.12092 1.22895
22.8784 21.8517 16.4199 0.05767 -0.862765 0.44885
19.0161 16.1333 24.0322 1.07527 0.672764 0.554957
19.4131 15.6331 21.0668 -2.20955 -1.24802 1.31823
17.0192 17.2286 22.0286 0.892664 -0.28889 0.259043
15.9147 20.0336 22.3665 2.37151 -0.960526 -0.808267
17.9116 18.9383 24.3701 0.0123462 -1.81438 0.0822736
24.5541 16.5801 21.5954 -0.370209 0.412199 0.386179
25.1609 19.5231 21.1802 2.02121 -0.598786 0.654972
23.6261 18.6228 23.6369 0.625195 0.433593 -0.89906
21.7851 16.3567 22.8138 0.48292 2.08052 -0.212686
20.8571 18.3994 24.8554 -0.887849 0.395886 2.18686
16.8071 21.7432 24.708 0.674386 0.0167538 -0.397926
18.6078 24.9335 20.9417 -0.587488 0.0408166 -0.526647
18.8934 23.7002 23.6983 -1.61862 -0.561828 -2.55654
19.7526 21.2044 25.1932 -0.187749 0.470883 1.15079
16.5215 22.9766 21.9513 -0.540757 -1.13345 -0.368666
25.7678 22.4661 20.765 1.12409 0.180961 1.05151
20.9798 25.6571 22.6887 1.00921 0.215905 -0.325957
22.6981 20.6655 25.6785 0.196699 0.557514 -1.13324
23.3738 24.0616 21.7269 0.820006 -0.156694 0.485594
24.2329 21.5658 23.2218 -1.26235 0.926716 -1.02346
21.839 23.1613 24.1836 0.990695 -0.169527 0.699948
ITEM: TIMESTEP
1000
ITEM: NUMBER OF ATOMS
42
ITEM: BOX BOUNDS ss ss ss
1.5434754660218172e+01 2.5265705509121165e+01
1.5568420060207446e+01 2.5828257535638304e+01
1.5594106266661745e+01 2.5119246153570785e+01
ITEM: ATOMS x y z vx vy vz
19.7057 15.5344 17.6752 0.93249 -3.27425 -2.01768
15.9656 18.9519 20.2506 7.2216 -0.70164 0.825363
17.1817 20.2519 16.1473 -4.22473 2.85854 -0.723137
18.4309 18.124 19.482 0.418035 -2.28553 -2.01502
19.0966 18.1005 17.3635 3.84981 -1.09742 0.168438
16.0602 18.9594 17.7448 -0.474281 3.75307 4.59589
22.8559 20.0353 17.9298 -7.23462 -0.516382 5.68284
22.9518 16.1339 19.7902 -1.55235 -4.18865 1.31106
21.5139 17.5483 17.6531 0.770902 3.2844 -2.94868
20.5387 18.7834 15.2583 -0.973521 -1.3944 -3.14579
20.0022 16.6493 19.413 -1.74385 -1.81711 3.51318
17.699 25.2775 21.2117 5.67678 -0.652711 2.71401
19.6552 23.3175 18.3855 -0.887872 -1.15394 3.67411
15.92 21.3662 19.8517 2.57785 0.798062 -1.58714
18.2922 20.9572 18.4581 -0.755487 3.10703 -5.44969
20.2458 20.5979 16.9492 1.28573 -4.97684 3.52698
22.498 25.6536 17.1659 0.359719 1.11695 -0.283241
22.8056 24.2753 18.8112 -0.145458 1.00485 1.67999
20.5712 25.8204 18.8227 -4.03858 -1.39434 -1.63094
24.5819 21.2882 18.4455 0.0408856 0.219194 1.48793
22.6968 22.2822 16.7145 1.79061 2.31176 -1.59934
18.3191 16.5178 24.3905 -0.571298 -0.896292 0.801963
20.7297 15.9097 24.0231 1.54018 5.10138 -0.577448
20.3282 17.6326 21.8989 2.66158 1.17464 3.61516
18.3114 19.6237 21.3016 -1.49724 -2.35056 9.56146
17.5059 17.9129 23.042 -0.0551387 0.568039 -5.01645
24.2098 17.433 21.3245 -0.766388 -0.692168 -7.89853
23.9484 20.578 20.861 -3.73609 1.99423 0.484341
23.1676 18.2862 23.0244 -3.69495 0.437333 1.33587
22.1221 19.8485 20.964 1.34575 5.04235 0.0918587
20.8338 18.2276 23.9935 0.035284 -2.14081 -1.16139
16.6158 20.6597 23.1235 1.18228 -4.89056 -3.25991
17.7927 23.4738 19.2737 -0.579619 -6.05692 -4.05999
19.2435 21.4682 22.0668 3.93352 2.37312 -5.00438
18.7702 20.0747 24.0495 -5.07068 -4.16896 -0.879865
17.0016 23.4116 21.6891 -0.882881 7.70892 -0.997989
24.3534 23.3114 20.3987 3.52191 0.0145999 -4.34157
22.8236 24.1351 21.5793 -0.668973 -0.518558 3.66525
21.7711 20.6051 25.3221 -0.0904411 5.90451 1.36098
25.2295 23.1165 23.6971 -2.43854 -3.26883 0.0495632
23.0668 21.9696 23.8743 1.33222 1.50896 2.58216
21.1768 22.4856 23.1685 1.60584 -1.84508 1.86978
ITEM: TIMESTEP
2000
ITEM: NUMBER OF ATOMS
42
ITEM: BOX BOUNDS ss ss ss
1.5029823693394510e+01 2.5207207872915497e+01
1.4596301745358776e+01 2.6160165557162781e+01
1.4636523750498650e+01 2.6737128401862673e+01
ITEM: ATOMS x y z vx vy vz
19.4942 16.4307 18.5133 2.55191 -3.40711 0.302183
16.284 20.5722 18.5215 -0.0316611 6.31812 2.96273
18.1754 18.7228 19.0946 -3.81439 -4.47009 0.653034
18.7617 18.9486 16.1494 -2.15152 -1.97952 3.61417
16.226 18.2391 20.8019 4.18822 -3.82597 -1.71952
18.4356 17.0234 16.4009 -3.48567 1.07342 3.84213
17.8254 14.5695 17.9629 -2.53246 -0.372629 -5.90228
20.9854 19.3427 14.5916 1.32727 -1.69625 -0.7751
21.6242 20.7983 21.5958 -2.42007 9.53113 -3.05065
22.666 15.8256 18.6794 -0.813447 3.74331 -4.93573
21.3402 18.5435 16.4047 -1.62314 3.13571 -1.50755
22.2866 22.0241 19.1806 3.59296 4.57955 5.0819
17.3266 22.0814 20.2825 -0.916067 2.01149 -3.90187
19.7882 20.4835 18.6871 3.06524 -3.50218 2.58501
20.193 22.8582 17.3478 6.02016 0.569709 -1.42222
18.2802 22.2036 17.8955 3.31539 -4.64435 1.76234
22.2417 24.1224 20.2872 -1.22443 0.700421 4.2126
24.0262 21.2591 21.1181 4.66942 -3.18995 3.51124
24.7201 19.9073 19.1832 4.42229 -6.67591 -2.17529
24.7451 20.894 17.5426 0.128651 -2.72925 -2.71167
24.4464 24.7697 18.5134 -2.90163 2.87323 -2.4666
17.9499 15.5827 20.086 4.43646 0.791182 2.11436
21.7333 17.8934 23.2629 3.08449 -4.13427 1.397
20.5216 17.8472 20.1726 0.600474 1.69042 0.872231
18.9897 20.303 21.0614 0.639947 -0.794603 0.487738
18.3741 18.1819 21.9334 -5.42761 5.02999 -0.958794
17.4063 20.6666 22.9147 2.05249 -0.152806 1.48911
14.8976 18.4021 22.1236 -3.43664 -0.43469 -2.0816
22.6117 16.6015 20.7125 -0.877394 -4.94265 -1.78558
22.0313 19.3109 18.437 1.51427 -1.15487 -1.64087
23.7231 19.8165 23.4434 1.1451 6.1038 0.524181
19.3926 21.5225 23.3176 1.53311 2.03204 0.412491
21.2909 21.0056 24.7546 1.05333 4.20682 -0.48624
20.5252 24.5354 22.5096 -0.840608 -2.91834 -3.13386
19.7859 22.637 20.5458 -3.57645 -0.455619 2.18979
18.0803 24.3588 23.0845 1.90368 -2.5056 4.60334
22.9498 18.6686 21.1013 -3.48753 -0.156552 0.775069
19.4455 23.7327 25.1749 -2.81148 -3.1259 -3.91735
21.2136 22.6268 26.2558 -1.36935 1.96475 -6.55529
24.6728 23.5351 20.1058 -5.12684 -4.27647 -0.869195
21.9432 23.3972 23.9948 0.497582 -0.655323 7.765
19.1795 26.3449 22.8439 -2.87407 5.84581 0.839613
ITEM: TIMESTEP
3000
ITEM: NUMBER OF ATOMS
42
ITEM: BOX BOUNDS ss ss ss
1.5749035692255648e+01 2.7310612383650156e+01
1.4271692061589615e+01 2.6922759017872711e+01
1.4632565689757858e+01 2.6275455431760228e+01
ITEM: ATOMS x y z vx vy vz
16.868 17.1685 17.5677 -2.15855 -3.85607 3.90666
17.6356 15.2597 19.4772 -0.219551 -2.46639 1.34292
18.0445 20.3048 16.9567 -8.73618 -2.04049 2.22263
18.1858 23.6781 18.9108 2.46287 3.0102 -0.0409943
19.9156 19.8293 14.8947 0.0789439 5.52886 2.16569
17.9965 18.3792 15.5699 0.700738 -0.929135 -1.88476
24.7496 18.6586 18.5567 -2.17321 -1.01379 -2.9988
21.0651 21.435 15.2633 3.14601 -3.92077 0.703177
21.5795 14.997 18.4957 6.63372 2.57891 1.54367
16.0529 17.3734 19.6834 0.0993377 -1.40548 1.90545
19.751 14.2861 19.6701 0.745435 0.521999 0.735893
18.3478 16.0401 21.3623 0.330297 -3.25503 -3.72333
15.9688 19.5656 20.108 2.11035 1.99862 -2.83555
22.5347 17.1481 18.6483 1.02074 -1.53856 -2.63177
20.0379 18.7168 21.3494 2.33908 -8.14665 -2.60083
21.3428 16.3275 20.8719 1.24707 -1.47421 -2.48773
18.7024 19.889 19.332 1.39634 0.213919 -0.61054
19.4441 17.5014 18.8315 9.50632 0.922396 0.139828
16.7267 21.6223 19.0971 2.79721 0.396316 -2.65868
18.7969 21.8841 20.6665 -2.48634 3.73373 0.146457
22.4118 24.4847 22.1882 -3.64015 2.29254 3.63385
22.4118 20.5917 18.8423 -1.01731 -0.672313 -2.10921
20.432 19.1892 17.4838 -1.00745 -0.522038 0.868531
27.296 20.0736 19.9268 0.743493 0.126037 -1.38409
26.942 18.1154 20.0038 0.0121402 -5.59277 6.44628
24.43 15.8733 18.9508 0.124603 -2.97308 -1.77958
21.3595 22.0733 21.0014 -0.277484 -2.90771 -4.16615
20.2553 23.9954 20.7467 -3.37698 0.565983 -0.988311
20.7093 27.1607 22.4984 -3.27086 -0.420791 0.344651
19.7643 21.5393 17.8727 -3.03744 3.32768 -2.78911
24.6779 20.5979 20.6888 -3.25213 -2.15252 4.38817
23.0183 19.1285 20.8538 -4.58333 4.66765 -3.43989
16.9642 21.44 22.1692 -1.07775 9.03645 1.12536
19.6717 23.15 23.1303 5.37361 3.28613 1.00337
24.2049 22.2707 22.4904 0.521949 -2.39294 -2.33961
18.691 20.344 22.4789 -2.7086 4.6231 4.43635
19.4349 25.549 23.3204 -2.14298 0.0786306 2.2518
18.4807 24.3269 25.7134 4.74123 -1.29632 1.80632
16.9521 25.7391 25.4313 -0.31101 1.28128 -0.441483
21.8381 25.0375 24.5193 1.2847 1.88038 0.323777
21.0426 23.3644 26.653 -1.66431 -2.28505 0.443666
21.8553 22.4808 24.313 -0.274584 1.19131 0.0259023
ITEM: TIMESTEP
4000
ITEM: NUMBER OF ATOMS
42
ITEM: BOX BOUNDS ss ss ss
1.5224461622583354e+01 2.5073155430638170e+01
1.3021115063275978e+01 2.6381289026725923e+01
1.6554589674249726e+01 2.5621685271430273e+01
ITEM: ATOMS x y z vx vy vz
19.3135 16.7716 18.7229 1.10717 -5.30247 3.3443
17.7388 17.8003 17.4717 2.47011 -3.16682 2.44929
23.3553 13.2634 17.3353 -1.81466 -5.69774 -3.22147
22.673 17.2182 16.5765 -0.480595 1.08858 -0.314712
16.5658 18.8385 19.0099 4.47864 4.00107 -2.73178
18.1579 20.6782 16.6 1.89593 -1.03879 -4.64176
22.9687 19.7536 17.1706 -0.491244 3.66168 -0.603253
20.5397 19.054 16.7104 0.72215 -3.71238 -1.01339
20.3748 21.5925 17.7021 -2.95988 0.541478 3.78317
24.3382 18.0468 18.3626 2.23326 0.807391 5.17442
22.8581 20.9814 20.3805 -1.62185 -1.66877 2.14017
19.1774 14.691 18.6731 3.48354 0.365441 -1.97674
17.5543 18.9291 21.1522 -0.5053 4.35875 3.6691
21.3225 12.8955 18.7881 2.05533 -2.16902 -2.41608
21.5378 15.6088 19.653 -0.972045 0.769531 -2.01169
20.6081 18.407 21.0022 4.34344 4.09923 -1.37103
23.8253 13.5525 19.7093 2.75529 -2.87272 -5.25874
20.7125 15.9854 16.8346 -3.36425 -3.80887 -2.2021
22.2733 17.2138 22.3556 -1.2014 0.239472 0.919332
23.7794 15.7435 18.697 0.188878 -5.71871 1.49876
17.8402 22.0185 21.4571 6.43688 -0.0532333 -1.96981
19.0629 19.7768 19.2194 -0.454186 -0.239443 6.67915
17.6978 22.3817 18.8034 1.7283 -1.31807 3.94541
16.351 24.8681 21.1611 -0.445088 2.25625 -1.40796
20.6215 22.6481 20.2539 0.355581 0.587405 -2.30801
15.2021 26.0995 22.0919 -1.31372 2.32376 1.13837
16.0561 22.7039 22.7955 -5.70848 1.97048 2.57028
23.3074 18.3212 20.9732 -6.95961 1.43533 2.41025
25.0796 20.0868 21.0684 -0.229668 4.55415 -2.10557
21.4632 18.4015 18.8405 -0.780019 2.5594 -0.520294
23.4512 22.6047 22.8357 -2.3482 4.07826 1.21388
18.7437 24.4024 19.8957 0.740675 3.35729 7.85076
19.4668 26.0626 21.4595 0.127707 1.20812 2.70903
21.7359 26.2477 22.8631 2.21605 -3.05729 1.65094
22.0445 23.7727 21.8494 -4.17564 -4.42025 -2.46797
23.6859 26.1665 23.0982 -0.892553 2.9097 -3.15397
19.0287 23.672 22.5752 6.15084 -4.72764 -5.11245
19.2767 25.5098 24.2464 -2.1274 -2.41409 1.82342
18.9399 23.0962 25.5041 -0.953007 3.79073 -1.5871
16.7817 24.7837 23.9225 0.785165 3.05967 0.347562
19.6028 21.8436 24.2174 -4.91247 -2.56992 -3.51822
21.4759 24.0971 24.5508 0.436328 -0.0669498 -3.40349
ITEM: TIMESTEP
5000
ITEM: NUMBER OF ATOMS
42
ITEM: BOX BOUNDS ss ss ss
1.5729771505653058e+01 2.4223380449882274e+01
1.2172566515229672e+01 2.6530499416775793e+01
1.5455569854973158e+01 2.4807982767275444e+01
ITEM: ATOMS x y z vx vy vz
18.0825 19.0227 19.6663 -0.31489 1.03737 2.84243
21.4876 13.5806 17.587 2.16584 0.0891575 2.45222
22.3458 12.4042 15.5145 -0.0695695 1.88193 0.345557
23.7894 13.0445 18.1368 1.07144 -0.736321 -3.14584
23.2365 16.1668 20.3183 1.05026 -0.75121 0.977442
24.0134 13.0667 15.5268 -0.176588 2.32301 0.816547
21.4407 15.1223 19.5153 4.26075 3.10821 3.67319
22.393 15.3045 16.4532 -1.58495 3.25236 0.728699
19.8167 17.2712 18.2927 -2.97458 -1.17176 0.962408
15.8376 19.8395 18.0977 3.60864 -2.83411 -0.889289
17.7337 18.7202 17.206 -0.00178595 2.93449 -5.53389
19.6534 21.0121 18.282 -0.829271 -4.12833 1.7801
23.0033 18.0514 18.1669 -2.16876 3.01664 -1.27475
22.195 20.25 17.932 0.0278769 0.734774 0.401395
21.6571 17.907 15.7341 -1.41506 4.89669 0.410536
20.3702 19.4269 16.611 -2.14558 0.390379 2.15502
23.0481 19.3363 21.2407 -2.78998 -3.11536 3.07212
19.5107 19.7974 22.1589 0.75126 -4.50512 5.43652
21.4234 21.0533 20.9868 -2.4562 -0.082019 0.533921
20.9912 17.5855 20.489 -2.04164 -1.34066 2.13195
18.0885 23.058 18.9429 -2.7683 -2.17376 -0.920555
19.5874 25.587 19.8021 4.09586 0.977215 5.98851
20.5597 23.2081 19.0202 0.909151 2.82696 -3.59182
20.0215 17.2913 22.8553 0.997592 2.04018 3.82045
17.965 17.9251 22.3022 -6.20712 -4.98065 -2.40183
18.3095 21.7835 20.8019 3.48333 -2.91904 2.34373
17.2581 21.2473 23.3975 -9.4691 1.72383 -1.1711
21.5655 19.1039 24.135 1.0864 -1.54395 -4.93886
23.8701 21.3925 23.6969 0.316607 3.62799 -1.46872
17.7349 24.6882 21.3254 1.54167 -0.38073 3.86676
16.3045 26.5907 22.1425 4.37006 0.687918 -5.27435
16.0841 24.197 22.885 4.24495 0.0522552 -2.37445
19.1427 26.7507 22.1769 -1.06558 3.29103 -1.58963
20.5154 23.8928 21.7261 -0.857947 -1.54594 0.865641
19.6942 24.0806 24.0059 -2.30275 -4.04473 -0.880304
18.2379 22.7463 24.7654 4.26625 0.0735503 -0.399221
17.8115 25.7516 24.1379 2.44395 -4.45603 -1.16246
23.0587 24.0636 22.5334 2.38108 0.865199 -3.22685
21.9138 25.3836 23.8229 -1.72618 -2.17891 -1.53345
22.4286 25.2485 20.4608 2.33967 -0.831716 0.615718
23.0859 22.7914 19.8801 -1.65349 0.388391 -2.58535
21.3233 21.8453 23.8577 -0.393322 3.50083 -1.85815
ITEM: TIMESTEP
6000
ITEM: NUMBER OF ATOMS
42
ITEM: BOX BOUNDS ss ss ss
1.5973593403606515e+01 2.4961585645841350e+01
1.4398056977492981e+01 2.7014411407764758e+01
1.6118224417255096e+01 2.5425305590540972e+01
ITEM: ATOMS x y z vx vy vz
21.6328 14.6502 18.3448 0.591374 5.35615 -3.45636
20.6018 15.5077 16.0766 -0.144357 -0.477033 0.801958
24.0954 15.2788 17.7728 -3.68356 3.68243 1.03272
22.7407 17.5465 15.9916 -2.78668 2.29247 -0.174394
20.8678 17.079 21.3943 0.535357 7.11122 0.739725
23.0331 16.6242 19.2204 3.09776 -1.10424 1.94877
17.5961 18.5332 21.2432 2.75767 -3.26064 1.95849
20.9867 17.5492 17.5377 1.29655 2.37603 1.48601
16.6331 20.1628 18.3714 -2.00325 -0.757498 2.59128
18.6652 18.3819 16.6159 -0.0166576 1.21858 1.36559
18.3849 20.8793 20.4555 0.42876 2.56046 4.52769
21.3953 18.8612 19.7375 2.17577 1.01411 0.327708
21.6 22.0914 19.0825 -5.93165 3.93487 0.95797
22.5662 19.7582 17.2604 0.828103 -3.88932 0.42664
19.1747 20.7867 17.9121 0.0430966 -1.47675 2.57973
17.0543 22.4557 18.5506 -2.76855 4.44818 -5.92455
20.697 25.1959 19.6294 -1.93539 -1.33236 -0.848715
20.1976 23.4088 17.712 5.76334 -1.17395 -5.1343
24.7473 22.6304 18.8106 -5.53556 -3.60949 1.66926
25.179 18.0309 17.3781 1.15277 -0.590098 -4.77923
17.9745 19.2604 24.658 -1.80856 -0.521814 -0.615965
19.2714 17.1586 23.7333 2.88442 5.75164 0.380775
17.6835 21.9714 23.0609 -3.57058 4.3224 1.19429
16.0947 20.4886 20.9579 -1.06733 -3.81911 4.00992
23.3553 18.62 21.0768 -1.00318 4.16072 1.31696
19.9795 19.4956 22.8526 0.634461 -0.651645 2.85582
19.1657 18.053 19.5117 1.9296 -0.459032 0.487673
21.2908 16.8482 24.1736 -0.0412075 0.128355 -6.64099
20.7916 18.8423 25.5015 -2.42418 2.03777 -0.430925
25.0094 19.5733 18.8163 1.31203 2.50167 3.61073
20.5777 21.1276 24.7252 0.85834 -3.25715 2.1061
18.9767 23.8315 20.6694 2.081 -1.10219 0.930842
19.031 26.9359 20.8466 -0.210081 -1.81225 0.845594
16.6192 23.7631 22.3888 -0.344747 -3.07497 -2.91815
20.1612 25.5714 22.5373 1.31592 -1.42942 -1.60554
19.379 23.6055 23.6222 -0.580448 -1.99027 0.904376
16.103 20.1487 23.587 -4.24487 -1.917 -1.81682
17.5553 25.8016 22.4348 2.4739 -0.646762 0.94359
20.377 22.0098 22.2267 -4.38399 -2.03397 -1.80858
23.8483 20.6741 20.8136 2.7938 -6.71892 0.409646
22.7888 23.2156 20.8231 3.58683 -4.49819 -3.04868
22.7074 24.1816 18.4753 5.94396 -1.29298 -3.20665
ITEM: TIMESTEP
7000
ITEM: NUMBER OF ATOMS
42
ITEM: BOX BOUNDS ss ss ss
1.4729499267378321e+01 2.5811083839610824e+01
1.5953676115915790e+01 2.5445136960010167e+01
1.5493303655158034e+01 2.5529166616170990e+01
ITEM: ATOMS x y z vx vy vz
18.5787 19.9279 17.959 -0.0716047 3.31487 3.72858
16.7056 19.3203 19.8823 -0.55347 -4.22065 2.61681
21.178 16.0728 19.5194 2.09858 -7.12855 -1.49893
21.3774 15.9292 16.6388 1.86633 -0.0584994 1.97716
23.033 17.8851 18.027 -0.698471 3.93224 4.34744
20.8436 18.2382 15.7061 1.93717 3.43457 0.443026
22.3734 18.8993 20.5384 -2.16677 1.20898 0.388296
19.9825 18.0164 17.665 -5.6769 -4.67991 3.30149
25.5664 17.8393 17.3926 2.68432 3.02074 -0.5625
15.1814 20.12 18.6745 -1.53979 5.2664 2.0609
18.6771 21.293 20.7439 -0.602618 5.60632 -3.76211
21.4711 20.1134 18.4571 -0.877291 -1.63642 -0.447705
17.6112 21.8526 18.1292 -1.08927 3.67563 1.9911
22.0344 21.97 20.8047 1.03994 6.18103 -3.5697
20.1004 22.8598 18.4957 -2.11862 -5.56279 -5.4686
22.9022 19.8361 16.7056 0.341541 -4.07533 1.37096
23.8497 21.0389 19.1187 0.76112 2.24365 -1.70773
25.0109 18.5904 20.0026 5.48617 -2.75014 2.95325
22.2399 22.4672 17.4343 -1.42182 -0.243866 -0.024784
17.2907 23.2559 20.3701 -2.92665 -0.256287 1.11594
21.7026 24.7617 19.4653 0.22192 -1.73446 -2.20574
23.5688 24.475 17.8078 0.587083 4.41568 1.73322
17.9409 18.5225 22.4716 -1.20076 -4.89748 -2.72263
19.8138 17.0621 23.6382 0.40165 3.02761 -4.45916
19.3354 17.8195 20.2508 -5.19699 0.702115 -0.803013
23.3272 21.2025 22.6491 -0.722878 3.72082 0.870928
21.3034 17.0539 21.6847 -3.6757 2.51806 2.99031
17.1238 18.7324 25.3283 2.65331 -1.8583 -3.65162
17.2202 21.6761 22.955 1.22063 1.1656 3.09665
14.7554 19.4023 21.7818 0.752212 1.3543 0.559807
20.1775 19.6862 22.0307 -1.33227 -0.600721 -1.84807
18.9095 20.2442 24.4673 0.280816 -1.21291 -0.570779
15.5837 18.6286 23.7395 1.07066 2.3248 -3.21631
21.4396 21.4159 24.9169 1.28465 4.61635 -1.31107
21.2235 18.8381 24.4487 4.22287 -5.33629 0.0993893
25.8203 21.3018 20.3901 -0.360209 -1.34499 1.37245
19.2415 25.1966 18.7719 0.681589 -4.91451 1.05137
15.0534 21.5677 21.05 -1.11272 -0.168596 -1.63226
22.4245 23.6525 22.688 3.82043 -4.88606 1.21765
20.2941 22.3034 22.9798 0.725533 -0.675668 0.513779
20.0261 23.9963 21.375 -1.71095 -3.8864 -2.01942
24.2972 23.5248 19.4347 0.917205 0.399059 1.68162
ITEM: TIMESTEP
8000
ITEM: NUMBER OF ATOMS
42
ITEM: BOX BOUNDS ss ss ss
1.4537355299246796e+01 2.6136184321732024e+01
1.5534162175962310e+01 2.4976060400529182e+01
1.5668699791056492e+01 2.5922193621386796e+01
ITEM: ATOMS x y z vx vy vz
19.0979 18.6032 17.7827 -3.25464 -3.25732 -0.103628
16.3887 19.627 20.6768 -2.36314 -0.0194982 2.56691
20.5975 16.7778 16.5595 -0.667211 -3.35588 -0.956154
18.8253 16.5012 18.5867 2.92086 1.3951 -1.93549
21.122 15.557 18.4629 3.62139 1.4113 -2.91448
23.2616 17.6898 17.1186 3.78175 2.98744 1.65766
23.2981 17.8022 20.1975 -1.71162 -0.516658 3.73164
20.9071 19.3986 15.6247 -0.745856 -0.304747 -0.308388
24.4832 19.6842 18.3224 -1.18748 -3.67339 -1.43546
20.5852 17.81 19.9315 -5.47154 -2.66054 0.955505
24.5808 20.1268 15.6457 -0.683519 -0.702476 -1.75529
26.2831 18.4253 20.7284 -0.503592 -0.0694721 -0.872997
16.5516 22.6522 19.298 -0.598254 -0.161553 0.332015
14.9002 24.1149 21.7454 4.67937 1.87882 1.67919
19.6739 21.2479 17.1495 -2.13006 4.62472 -3.74841
18.9531 23.3949 19.4822 -1.79388 2.54035 0.994268
21.847 19.6442 18.017 -0.263963 -2.33921 3.05812
23.8401 21.9242 16.5033 5.50459 0.00207094 -3.29439
21.6776 22.6646 17.6968 0.29986 -3.9966 -4.50044
23.5975 23.8617 18.9335 3.39552 0.73689 -1.1224
23.1428 21.4927 19.4631 -2.21673 -1.33941 -0.568988
15.9085 18.0603 22.8156 -1.58007 5.4633 -1.31429
18.2007 18.1793 21.4304 0.160653 5.06287 -4.85016
17.5581 18.4399 24.3727 -2.69113 -2.14538 -1.6564
14.8908 21.7434 21.4439 -0.682638 -0.503893 -2.01952
20.6935 19.2091 22.5362 1.47806 -0.0740773 -1.39356
19.808 19.1568 24.7708 3.01135 0.455638 1.06987
15.4955 20.1128 23.2017 3.10075 -0.940971 2.71181
23.6503 19.6391 22.0017 3.57549 -0.482095 1.38462
23.1971 17.2436 22.5489 2.54116 3.17963 0.149738
22.5278 20.1924 23.8788 -1.14453 1.13864 1.89582
18.3553 20.5258 19.6559 2.97324 -0.308983 0.736695
15.7515 25.0153 20.1792 -3.5366 0.179733 -1.2194
18.313 20.5473 23.0291 -4.25832 -1.3288 1.79654
17.04 22.5104 22.0244 1.6905 -4.19562 3.39604
19.097 24.698 21.6463 0.987725 -0.707467 3.36477
20.5201 21.748 20.9908 1.77007 -3.23595 0.166358
23.0271 22.7682 21.5326 -2.13964 6.56503 0.521807
21.1751 20.7161 25.951 -0.56545 -1.15538 -0.742143
25.8122 20.8604 20.4189 0.139263 -1.30209 3.22897
21.413 24.097 20.6664 -5.17806 1.69843 -0.467996
20.5411 22.1263 23.5685 -0.263674 -0.542514 1.78163
ITEM: TIMESTEP
9000
ITEM: NUMBER OF ATOMS
42
ITEM: BOX BOUNDS ss ss ss
1.5496596939180387e+01 2.5786749271656085e+01
1.6142736407254294e+01 2.4680075006988005e+01
1.6368623574084275e+01 2.4735918422796853e+01
ITEM: ATOMS x y z vx vy vz
17.9351 18.7116 16.8541 1.07466 -0.781272 -3.50967
18.3831 17.1526 18.808 -2.62784 3.39073 -2.38733
20.4372 16.1591 21.0133 2.44488 1.47474 4.84105
20.116 17.7323 16.4673 -2.79072 -1.00852 -1.6974
21.2219 16.5416 18.8948 1.08782 1.69984 4.45221
22.91 18.1624 18.3036 -1.49527 -5.00932 -0.80315
22.5829 17.4316 21.2614 -1.6631 0.226019 0.268816
21.0617 20.1068 16.3965 -2.4258 -2.14902 2.53674
25.7954 19.1598 18.9453 1.3358 -1.28339 2.19483
24.6148 19.9163 16.9998 3.47254 0.795879 -0.410254
25.5096 19.0501 21.0164 1.33973 2.9049 2.83135
20.3403 19.2777 18.5622 -1.1644 0.874611 -1.14835
15.9341 22.7859 18.4891 -2.55359 0.86927 0.529577
18.6989 20.8657 16.7964 -0.274972 -0.819266 1.34539
18.2209 22.9739 19.7193 0.541322 3.88631 -3.94591
16.4117 20.4151 18.4209 -1.97401 1.2885 2.03065
16.6014 23.9497 21.6448 1.90183 1.13651 6.36288
24.6433 22.0703 18.413 -0.953272 4.01129 0.863363
22.0142 21.9609 18.2428 1.45315 2.82583 -4.24127
22.7457 24.1636 19.2415 -0.979377 0.717419 0.0926643
22.8787 20.2531 19.835 -2.78949 0.428114 -1.23885
25.3168 21.9019 20.6486 4.85389 -4.38852 2.64654
20.7833 24.6851 17.447 1.20661 0.94464 -3.02637
15.885 21.6562 20.8897 1.59343 -1.46848 0.308433
15.8426 17.8073 21.8435 -0.801862 1.09131 0.760585
18.3141 18.1444 20.7057 2.60441 0.0503698 -0.537991
16.1827 17.8022 23.6872 0.0714995 -0.436118 -1.25565
21.8583 18.3238 23.7125 -0.760257 -0.122405 -3.21305
15.4863 20.3407 22.6996 -1.56097 0.49725 0.739836
20.7879 19.1654 21.2512 -0.728776 -1.79448 -0.183669
24.7882 22.0995 23.2089 -2.34803 0.736429 -1.46046
23.2913 20.1055 22.5869 1.02051 1.56635 -2.89404
22.8788 21.9415 24.3786 0.333421 0.967101 -0.598242
18.9195 23.2951 22.1199 5.81719 -1.11707 -0.281149
17.1339 22.1076 23.6697 -2.42962 -2.11442 3.32916
18.9147 18.3599 23.223 1.01327 -2.92643 -1.81895
18.3743 20.5981 21.8268 -2.76357 -6.76366 -3.43309
20.4141 24.1833 19.4832 0.930656 -1.9985 -2.42844
19.7664 21.1437 19.9537 1.44277 -4.48698 -0.601197
22.2963 22.3784 21.3064 -2.83645 3.95174 6.88215
19.832 20.4058 24.7144 -0.462028 2.20621 -1.72713
20.4665 21.3045 22.9081 0.843998 0.126515 -0.17462
ITEM: TIMESTEP
10000
ITEM: NUMBER OF ATOMS
42
ITEM: BOX BOUNDS ss ss ss
1.5378898835036718e+01 2.5158902923656306e+01
1.5755094635744284e+01 2.4671656002667699e+01
1.6379437343533514e+01 2.5175295808900739e+01
ITEM: ATOMS x y z vx vy vz
19.3711 19.7747 16.9027 1.35355 4.74891 -1.72895
17.5909 18.548 18.0581 -0.889042 -0.778947 0.190453
19.4518 16.8848 16.9221 -3.1108 -0.39878 -0.726709
20.1262 18.308 19.0739 -1.97286 -5.99191 -0.0741315
20.8056 15.8116 20.1006 1.05085 2.97777 -0.620456
21.6514 16.2954 17.2652 -4.00637 -2.34654 0.755214
21.7348 18.3982 16.4816 -1.59381 -4.89215 -1.51566
24.8764 18.9623 20.0745 1.83469 0.283768 -3.24083
24.4461 21.5365 16.8929 3.69108 2.1205 0.572994
22.9997 19.6769 18.1423 2.24714 -0.612027 -1.39996
15.5391 20.9421 19.7515 0.681471 1.25109 4.09951
19.3083 22.1437 16.9187 0.394785 1.03702 -2.6355
18.2149 23.6995 18.982 -1.00175 0.451996 2.88771
17.2522 21.0942 18.0049 2.71453 3.31785 -1.56219
20.4778 24.3177 18.4909 5.08319 -2.33088 0.00424498
19.9225 21.1233 19.2095 1.50951 0.77764 -0.689908
24.8589 21.4845 19.4978 -0.133476 3.43049 2.94856
22.0851 22.1221 17.9075 -4.71583 -0.122094 3.18808
22.3921 24.67 20.0975 -2.08518 0.969887 -1.6207
23.3081 23.8826 17.7444 1.65534 -4.00218 0.840726
22.0858 17.548 23.468 1.98486 2.63432 2.10714
15.9837 18.7122 20.0124 -1.62543 2.2074 -1.66963
18.4149 17.8756 21.28 1.13983 0.291463 0.309658
17.4741 18.1919 24.3402 4.58299 -1.04743 -0.999738
15.1239 21.6313 22.2171 -4.099 0.325108 -4.67394
20.0936 16.5169 22.3683 1.57645 -3.23232 -0.319462
17.1285 19.6242 22.5255 -2.53464 -1.47855 0.329716
20.1117 18.8428 23.922 -2.68368 -0.683939 5.12214
22.4088 17.6458 19.4637 1.00352 1.66352 2.80012
23.9672 18.9303 22.1543 -0.966489 3.08616 1.08452
22.3705 20.2402 24.3033 1.91531 0.00814163 1.33387
20.4907 19.4012 21.514 2.01622 1.66221 0.638245
22.4542 21.1452 20.4749 1.99497 2.07222 -4.90041
17.2247 22.478 24.0659 3.25252 1.96905 3.93952
18.0502 22.0311 20.7323 -4.40936 1.64082 -2.36105
18.495 24.7014 21.4025 -2.73752 -0.176512 -2.64754
18.2173 20.3977 25.3331 2.49419 -2.62569 -0.40313
24.8277 21.0796 21.9412 -3.4477 -2.53037 1.69676
23.6724 23.3089 21.3996 -0.384054 -1.11362 -2.04666
21.9758 22.2287 23.0433 1.55018 2.9592 0.861601
20.3615 23.0574 20.8037 -1.00138 -1.03748 2.22653
19.2447 21.3255 23.306 -2.32882 -6.48511 -2.10075
ITEM: TIMESTEP
11000
ITEM: NUMBER OF ATOMS
42
ITEM: BOX BOUNDS ss ss ss
1.5188227181332564e+01 2.4795954330859178e+01
1.5982512893585071e+01 2.5602270330862446e+01
1.6671906165732388e+01 2.4501522882474635e+01
ITEM: ATOMS x y z vx vy vz
20.4361 20.4073 17.4088 -1.94391 -1.90107 -2.17132
17.2702 18.1054 18.6478 -0.134254 -1.4686 0.973028
18.7943 18.4741 16.7415 1.53003 2.88025 1.80068
15.7471 19.0276 22.0293 -4.82332 -0.749576 3.38596
21.7267 19.253 19.6022 1.33209 -1.84307 1.5663
20.6784 16.5109 19.651 -3.79002 0.862856 -0.403029
18.4246 16.0332 18.8106 2.1587 1.68213 1.88094
20.6761 17.2898 17.1839 -2.38892 3.72569 -2.32935
24.5693 19.2743 19.9875 -0.83606 -1.1365 2.60799
22.3933 18.8904 16.7064 -0.883175 -2.26155 -2.95613
23.2388 17.4588 18.4526 -2.22375 1.88238 -0.789987
16.4815 20.5168 19.1171 -1.71021 -1.66754 0.501327
20.1453 23.7616 17.3172 3.38607 2.67678 5.89176
18.1701 24.6693 18.6108 0.941139 -2.38838 -1.11458
18.1518 21.7158 17.7421 2.73792 0.974371 0.632895
18.8995 19.7429 19.6847 0.894849 -0.39925 -3.3707
17.6657 22.5264 20.107 1.73177 1.19664 3.13432
24.3517 20.0718 17.6528 -0.926368 -1.09335 -1.5946
21.3411 25.5322 17.8724 -3.01839 -1.99345 1.64062
24.6725 21.636 20.1122 -2.6516 2.27159 1.43966
22.2887 21.771 17.1886 2.2799 2.12681 -0.164283
20.6842 25.1211 20.1766 0.54224 0.623796 -1.01796
22.7198 23.2743 19.4935 0.130989 -1.479 -1.19877
22.4056 21.2975 21.1062 1.38689 0.753282 1.77148
20.3916 22.3002 19.3124 3.14639 -2.49686 0.842549
18.3748 17.4945 21.4869 -0.245617 -0.14364 0.654107
17.3497 18.3969 23.9407 1.82024 1.66969 -0.561543
16.3234 20.5515 24.4824 -2.85035 -0.0207135 0.175944
23.0749 17.4325 23.6424 2.92512 -0.71213 -0.762452
20.7259 16.5969 22.2713 4.40669 -6.75173 0.403678
20.9294 18.1954 24.4604 -1.4018 -0.310433 -1.31309
23.7282 19.4663 22.3286 -4.34015 -1.35711 -0.52773
22.2671 20.8195 24.2195 0.253305 4.83881 3.0672
22.9656 17.2932 21.1747 -1.89046 -5.36975 1.2686
15.3118 21.8489 20.8905 3.6901 -3.02948 1.20501
17.7276 20.7587 22.1538 -0.0452309 -1.34044 -5.93447
17.9012 24.3644 21.7377 -2.96893 4.40294 -4.4162
19.3887 20.0413 24.3009 6.88139 2.40854 -4.72428
20.4887 19.7596 21.8809 -0.726815 -1.01647 -0.579589
24.5956 22.0492 22.8705 1.10475 2.84612 -0.0883229
23.0319 23.9049 21.9162 -0.561808 1.25571 1.35123
20.0816 22.9548 22.1172 -2.91941 1.8517 -0.176923
ITEM: TIMESTEP
12000
ITEM: NUMBER OF ATOMS
42
ITEM: BOX BOUNDS ss ss ss
1.6066368062328749e+01 2.4194989948014626e+01
1.5767771336714382e+01 2.5601743911066531e+01
1.6599802980827260e+01 2.4831491363603163e+01
ITEM: ATOMS x y z vx vy vz
16.8621 17.1201 19.8373 0.400656 1.70228 2.88807
16.3809 18.6077 17.6581 4.74573 -1.74943 0.642794
17.9623 16.783 17.5631 -1.83675 -0.316834 1.69402
17.4809 21.5414 19.3681 -1.66339 -0.355257 0.802537
18.669 19.0768 18.8732 6.56978 -2.7536 -1.6078
20.7248 20.9641 17.1079 -1.11028 -3.73282 3.15517
21.6923 19.6379 19.2716 -0.337862 -1.66078 0.0419
21.2704 16.9788 18.0944 -0.409576 0.338384 -4.27002
19.4581 18.6605 16.3175 0.239941 -0.27014 -3.85672
22.666 18.9981 21.9207 -3.16296 1.96727 1.94579
21.881 18.6227 16.6107 -1.0793 3.77088 -0.748642
23.44 17.8486 19.5552 -0.0801682 1.66487 3.87167
23.8851 20.5391 19.1784 -0.762836 2.15783 3.26026
18.9918 22.8205 17.5695 -0.733625 -1.11054 -2.46206
18.1879 20.6235 16.5234 2.31406 0.157603 0.91868
21.5514 23.313 17.3338 3.28628 1.91682 1.10154
21.0962 25.5918 18.0353 -2.087 1.20362 -1.55178
22.7598 22.7951 19.8756 0.668204 1.67385 2.96363
23.0089 21.1811 16.6147 -2.71937 -2.62587 -1.6615
20.1348 23.8728 20.2927 -2.67664 0.0659001 -0.954063
22.8622 25.0331 19.5173 -1.57275 1.89798 0.292398
20.0679 21.7109 19.7248 1.62351 2.96762 1.88527
17.3574 19.2529 21.0386 -1.07754 1.07986 1.2891
19.4737 16.325 20.2813 -0.261723 -1.84612 2.56894
18.2823 17.6039 22.9798 -0.110391 -3.07789 -2.99612
17.4809 19.6943 24.0535 -2.7204 -2.93238 0.106098
19.1119 21.318 22.5467 3.83685 -1.33967 -1.66356
20.2042 20.2446 24.3285 0.830595 -0.905915 -2.46678
23.0573 17.3676 23.2805 -1.04902 1.20373 -1.70819
20.8599 16.1276 23.1302 -2.19853 3.82981 0.165614
20.7588 18.0242 24.5009 -5.85432 -3.15687 0.550699
22.974 20.1639 24.3622 6.57405 0.240789 -1.63178
21.7319 16.589 20.7009 -1.32939 0.340099 -2.053
20.1277 18.7093 21.5951 -5.99159 -0.419324 -0.153939
17.9277 23.2461 21.5708 2.57461 0.580936 1.04125