ITEM: TIMESTEP
0
ITEM: NUMBER OF ATOMS
42
ITEM: BOX BOUNDS ss ss ss
1.5149883912097811e+01 2.4770531710479741e+01
1.4860280281689331e+01 2.5887820871339631e+01
1.5156513883418128e+01 2.5633485903145576e+01
ITEM: ATOMS x y z vx vy vz
19.156 19.9716 15.5801 0.545038 -0.18022 -0.183307
18.7304 16.0353 18.6169 1.64045 -0.737873 -0.13518
18.4593 17.2063 15.9997 2.28708 -1.12591 -0.681651
17.0778 18.1813 19.7482 1.01953 1.58069 -1.96008
16.8066 19.3522 17.131 -0.777015 0.302427 2.2138
24.3361 17.7684 18.8115 1.04932 -0.410465 -0.00610231
24.065 18.9393 16.1943 -1.55182 0.479622 0.228791
21.5333 16.9018 18.7142 1.03363 -0.57931 -1.44297
21.2622 18.0728 16.097 0.583308 2.18526 -0.522467
19.8527 22.7369 15.1606 0.58096 0.307824 -0.0467459
17.5033 22.1175 16.7115 -0.494803 1.74578 -1.54251
19.2848 24.3103 17.508 0.18552 0.533767 -1.02612
15.154 21.4982 18.2623 0.220179 -0.0537928 -0.210294
16.9354 23.691 19.0589 0.735206 -0.835358 1.34324
18.7169 25.8837 19.8554 0.723684 0.452604 -0.828684
22.0384 23.5196 16.8689 1.19457 0.594756 0.458142
21.9589 20.8381 15.6775 -0.368361 0.717958 0.044239
21.4705 25.093 19.2163 0.837911 0.5372 1.19743
24.2242 24.3023 18.5773 -0.731595 -1.26578 -0.189553
24.4157 20.4498 20.003 -2.45273 -0.4149 -0.639899
24.1446 21.6208 17.3858 -2.22415 0.472047 -0.477745
18.3168 18.6047 24.5631 2.03824 -1.00839 -0.403584
15.6962 19.1563 23.4968 0.845201 -0.220628 0.695554
15.4251 20.3272 20.8795 -0.00265135 -0.342734 1.36032
19.0016 14.8644 21.2341 0.769261 -1.09591 1.62932
17.3489 17.0103 22.3654 0.338428 -2.16962 0.140257
20.9373 18.0531 25.6294 1.29673 0.25847 0.852288
22.8519 20.0067 24.7205 1.21004 0.928336 0.155147
22.7723 17.3253 23.5291 -1.35175 1.1335 0.677059
19.9694 16.4587 23.4318 -1.43757 -0.537908 0.334506
24.6869 19.2789 22.6202 -2.96758 -1.99366 -0.643952
24.6073 16.5974 21.4287 -1.87012 -1.29626 0.860317
21.8044 15.7309 21.3314 -0.205347 0.154395 1.43257
17.4777 21.3491 24.2933 -1.0554 0.837202 -0.943856
17.2065 22.52 21.6761 1.01812 -0.324498 0.961658
19.2591 23.5418 25.0898 0.0296546 -0.750279 0.566985
18.988 24.7128 22.4726 2.12108 -0.488231 0.654942
20.0982 20.7975 25.3596 -1.67785 1.19195 0.373459
22.0128 22.7511 24.4507 -0.800005 2.03756 -2.63713
21.7417 23.9221 21.8335 -0.752602 -0.0904527 -0.242927
24.7665 21.9604 23.8117 -1.52079 -0.80846 -2.51599
24.4953 23.1313 21.1945 -0.0610218 0.279299 1.10073
ITEM: TIMESTEP
1000
ITEM: NUMBER OF ATOMS
42
ITEM: BOX BOUNDS ss ss ss
1.5519786822584491e+01 2.4592779887507259e+01
1.4517099813018186e+01 2.4580200104219315e+01
1.5605780505408017e+01 2.5504229645358251e+01
ITEM: ATOMS x y z vx vy vz
16.7482 20.6548 15.9424 -5.00623 0.706262 0.25473
21.24 20.1885 19.4439 1.531 -0.311343 -2.94542
19.3628 17.0972 19.9449 2.42902 -5.21599 2.28143
15.5025 17.0699 19.8707 -2.19753 1.01709 -1.29355
18.6095 20.6523 18.313 -2.14447 -2.28271 -1.59499
24.5176 17.3041 19.8331 3.87574 -1.51217 0.0702069
23.5242 19.7549 18.1285 -1.63561 3.19167 2.20007
22.167 18.2507 18.7443 4.85337 3.6323 0.435943
20.6438 19.5416 16.7013 0.786062 0.101626 -1.72307
18.8846 22.2578 15.8146 3.35248 -3.71615 -2.97956
16.854 22.5072 17.4026 -2.52897 3.42515 3.67408
19.6332 24.5441 17.2781 -0.46288 3.76357 -2.34529
16.9888 21.8543 19.7737 0.530089 -4.11703 2.7428
20.7862 22.3815 17.7376 6.54191 -2.12209 5.07013
17.3634 24.1756 19.0945 -3.56895 -2.30507 -2.76853
21.6228 24.6411 15.8589 -0.887442 4.04202 -3.21136
21.6167 21.4468 15.6178 -0.148925 0.768426 0.592289
22.8025 24.5063 18.4214 -1.14871 0.186685 2.87201
23.9701 24.1203 16.2307 2.68395 -6.10666 -1.76334
22.2888 21.6532 21.3442 1.91749 -0.0367668 -1.01043
23.7903 22.3618 17.8225 -1.82273 1.48052 -0.9361
19.7272 18.3144 22.4526 0.0920765 -1.89746 -5.60501
16.1686 17.7956 22.5552 -2.16937 -1.2607 2.17716
17.3839 18.3034 20.8386 -9.51149 -1.08238 -1.99636
15.478 15.8139 21.6923 -2.83272 1.0177 1.94986
18.1216 14.5095 20.5594 -4.65193 -0.122725 -1.48686
20.3695 18.2621 25.5935 2.01866 -2.17888 5.88451
22.9089 20.4029 24.7874 3.47651 7.21552 1.21272
22.4862 17.6927 24.9606 1.22994 0.346606 -0.500319
21.1031 16.1589 23.6563 2.61027 5.89028 -4.84197
22.2635 19.2661 22.55 -1.51284 -1.4311 0.756279
24.095 17.2179 22.143 1.62127 4.88083 2.62744
22.7935 16.0037 20.406 3.72906 -1.4665 -3.65734
17.8035 21.5323 22.881 -0.209399 -0.553657 -6.78002
17.3606 23.9454 22.261 0.322729 4.82374 3.66756
19.8122 23.6749 22.8492 6.07137 0.582814 -5.04539
19.4672 21.2399 20.9089 1.56595 0.833767 6.09349
19.3532 20.3396 24.4448 -6.71058 -4.60176 0.737728
21.0784 21.7598 23.8121 0.154914 2.36181 2.06556
21.9653 23.8694 21.9135 0.690033 -3.50247 3.59334
24.5859 20.5424 22.1141 -0.639132 -3.89115 -0.704783
23.3476 22.9813 23.8918 -2.29398 -0.553622 2.23038
ITEM: TIMESTEP
2000
ITEM: NUMBER OF ATOMS
42
ITEM: BOX BOUNDS ss ss ss
1.3925898247672434e+01 2.4751697780096180e+01
1.5620747928692396e+01 2.6895520955169985e+01
1.5298079982266787e+01 2.5402796274366292e+01
ITEM: ATOMS x y z vx vy vz
18.2605 15.686 22.4539 -0.075855 1.60629 3.28661
14.5144 16.2894 20.2491 0.550403 1.71442 5.23103
15.7025 20.5716 21.3792 3.62773 2.05749 4.17575
18.5598 16.4893 20.2137 1.33901 -5.11363 -4.44886
24.1999 18.3376 20.5933 0.815347 1.61306 -3.79793
22.4284 17.3706 18.6938 -5.63572 -0.0358529 0.204747
21.9615 19.4633 17.1701 0.967607 1.98318 1.35378
23.2109 16.0466 21.7211 -0.748656 1.55919 1.33795
18.1532 21.5214 16.2669 2.10905 -2.66208 0.669419
19.3408 19.8625 18.0437 1.56535 2.3129 2.3037
20.8632 22.0081 15.5936 0.954829 -2.34162 0.984955
15.9618 21.9606 19.2698 -4.94154 0.689144 0.757847
18.2999 23.3338 17.8583 5.04916 1.08122 5.8932
14.0074 21.6141 21.3817 -0.995187 -1.5388 0.450598
20.1468 24.1905 19.7494 5.44898 -2.86214 -3.11879
21.0056 19.3997 19.7635 -4.0347 -1.64786 -1.62594
24.33 18.6116 17.7839 1.56723 1.20775 -1.2129
20.5388 21.7648 18.5374 2.45554 1.23377 -6.83967
23.4852 24.4176 16.9151 -5.60342 -6.43134 6.05528
23.2413 21.8251 17.5725 3.24534 2.34471 -1.43151
20.9962 24.0718 17.1376 -4.45082 -1.68988 -1.77257
22.8239 22.678 15.4194 3.59543 -0.417368 -0.281912
22.3899 25.1985 19.2893 0.475758 -0.73436 -0.249033
18.2176 18.7968 20.1902 2.87961 2.38532 0.758259
15.6181 16.9107 22.4665 -1.8114 -4.1333 0.301252
13.6279 17.2594 22.3308 -2.2881 1.13564 -4.33093
20.4092 18.6939 22.2198 -0.964429 2.82005 -1.45052
23.0225 18.7599 24.301 2.61094 -2.30407 0.849287
24.5864 19.1803 22.6279 0.736542 3.51853 -4.64145
20.5075 16.2636 20.9756 -2.10047 -2.88841 1.18032
22.236 19.9785 21.9812 2.55913 5.75353 -2.21744
21.3576 16.3595 22.9826 -4.88592 2.34104 -0.549957
17.942 19.4374 22.5254 3.1609 -2.54672 -3.6172
17.9703 21.2266 20.601 -1.39971 -0.386542 -5.9318
22.5506 27.1121 19.9808 0.515929 2.87422 0.116861
20.3352 21.7445 20.9226 -1.51699 0.00371027 3.02397
22.9295 21.8545 20.1936 0.184496 -1.08716 0.859716
23.5959 21.0798 24.7848 0.169694 -0.395548 0.664212
21.5064 19.9419 25.8059 3.14276 -5.8733 4.2471
20.987 24.7371 21.8856 -1.21343 -0.123195 -0.468101
23.7192 22.5525 22.8882 -5.63664 0.778872 3.16099
21.0493 21.9884 23.8702 -1.42376 4.19913 0.119697
ITEM: TIMESTEP
3000
ITEM: NUMBER OF ATOMS
42
ITEM: BOX BOUNDS ss ss ss
1.5054320953737598e+01 2.5307258430965224e+01
1.5707868858670157e+01 2.5108041220276192e+01
1.5865641817328010e+01 2.5058008000641308e+01
ITEM: ATOMS x y z vx vy vz
15.8123 16.0349 20.8625 0.0195053 -3.53426 0.873165
17.5668 15.7132 22.0835 -1.0939 1.30835 2.69508
17.2152 18.1521 19.557 2.48457 -4.32299 -1.99361
22.8704 20.5048 20.0091 -1.95487 -2.26384 6.47401
21.2464 17.013 18.5933 -2.69739 4.81995 1.88514
22.3805 19.9937 17.5824 4.5172 -4.18538 5.67443
20.1147 19.3351 19.2599 2.79999 1.90921 -0.996799
24.1472 20.6682 16.1739 -4.81561 3.16677 2.06885
17.3772 21.2918 15.8694 -1.05881 0.551862 -0.257436
18.039 19.7224 21.6794 -0.724977 -2.19058 1.95547
19.0531 23.3981 16.5885 -3.78653 0.940881 -2.76849
17.5136 20.2179 18.0914 -5.52336 0.62361 -5.91341
18.9736 18.5102 17.0107 -1.41691 -3.19933 -2.14576
20.3719 20.9749 16.0292 -0.83097 -0.240712 -3.30647
20.5173 22.2542 18.2784 -2.31962 1.1614 -1.5423
25.1237 20.6679 19.2205 3.26423 2.76521 -0.935281
23.3796 22.5153 17.2978 1.27961 6.09701 3.76983
23.8439 22.8887 20.4221 1.74462 -5.57907 -3.14477
19.0813 24.473 18.9296 -0.589789 2.74835 0.264604
21.5498 24.6527 17.9891 2.20058 -0.121834 0.139513
21.3299 23.4525 15.9002 0.559229 -0.030264 1.13256
24.6489 23.6383 22.7931 -2.10902 -4.99528 -1.22327
22.1842 25.1007 20.6785 -3.21983 -3.31184 2.39399
18.552 17.5075 23.5411 -1.83635 -2.02722 1.92037
15.5539 18.0117 23.8178 0.368119 3.3401 -2.88391
15.0603 18.3696 19.1669 1.84003 -0.703344 -3.29027
15.8547 20.2203 23.6117 -0.932259 1.5263 1.9983
22.9045 18.8236 22.0313 0.822731 -3.39475 3.11811
18.0306 19.5253 24.3893 -1.92426 2.74672 -3.02533
22.6663 16.8119 23.4458 -3.35361 2.9907 -1.0141
25.3064 18.6381 20.6712 3.16119 -6.12622 -3.54845
20.0147 17.6856 20.8377 0.784214 -4.76129 2.12669
21.2728 18.766 24.7633 2.16045 -3.0907 2.67538
20.747 20.1556 22.2042 8.59894 6.96142 -0.31074
15.4338 19.4384 21.2708 5.50643 0.915452 5.24434
20.4591 23.1668 20.906 -4.0302 6.33009 -2.0814
17.9642 22.4911 18.8729 0.407942 1.3955 -4.48199
25.1316 19.6586 23.0003 5.83778 -1.23687 -0.669723
23.2715 18.3437 25.0513 3.4981 1.61299 -2.60252
22.786 21.711 22.1896 -5.85968 -3.2012 1.80053
19.6813 21.8894 23.0196 -2.83247 0.865234 -3.55282
21.5587 24.2022 22.8995 1.05495 3.73987 3.47849
ITEM: TIMESTEP
4000
ITEM: NUMBER OF ATOMS
42
ITEM: BOX BOUNDS ss ss ss
1.6493097445405333e+01 2.5890797403867371e+01
1.6191543885034243e+01 2.5166191624095354e+01
1.5225233569149948e+01 2.5280846546762991e+01
ITEM: ATOMS x y z vx vy vz
19.7687 16.9214 18.5441 3.68054 2.20515 -3.73223
17.0767 22.3991 19.6461 0.0252757 -0.781549 -1.60206
18.6055 20.5689 17.7537 2.749 0.143058 3.52967
18.0647 17.8546 16.9224 -3.93533 2.74704 -1.02321
16.4371 17.0979 19.4838 -2.47088 -3.27517 -3.7218
19.1134 20.7618 20.2903 -4.23912 0.711818 3.48823
20.9799 19.161 18.8015 -0.617311 5.02783 -1.30812
18.62 21.0531 15.1157 1.10259 -0.162993 -1.16281
19.5644 23.1484 15.1647 -1.35467 2.23105 -3.09998
21.3978 19.7941 16.2972 5.46039 0.213159 -5.76726
19.9206 24.6575 17.808 4.58999 -0.478944 4.33929
17.7131 23.462 17.26 2.23395 -3.49295 4.55933
22.9607 21.1579 18.5566 2.76322 3.11376 -3.02351
20.1755 22.47 18.4091 3.78455 0.0685861 2.63357
23.7089 18.7846 17.2387 -0.939661 -3.38333 -0.0376528
22.1941 24.6361 20.3681 -6.29148 1.41489 1.07977
25.3169 20.4225 20.3134 0.125315 -6.79038 -0.174146
20.3954 23.3031 21.4883 0.464459 -4.08692 2.60051
21.7584 22.8743 16.5188 -0.308091 -0.713182 -1.40854
17.1222 16.8976 22.734 3.11005 -3.22578 3.2176
18.5852 16.1665 20.8789 -1.88654 -0.0656767 0.936417
17.5022 19.0075 21.4214 -5.35421 1.28675 -0.153494
21.3149 17.7321 25.4236 5.76137 -1.246 1.66628
18.6803 18.8223 23.5118 1.70952 4.43787 2.45952
16.9549 20.7064 23.8541 -1.91407 1.48141 0.284572
20.2836 17.9899 21.9762 3.19216 -1.17329 2.09804
16.7286 19.4436 18.9771 4.41787 -0.338664 -1.45881
23.5382 18.8257 20.0279 -2.51414 -2.03511 -2.20973
23.2218 18.0163 23.6271 -3.33898 1.74166 0.842272
18.8844 16.4902 23.9856 1.25411 -0.192228 2.17757
26.2703 18.4433 19.5341 5.56169 0.363586 -0.261442
22.5824 19.6658 25.2226 1.81294 1.073 0.628359
21.1456 20.2714 23.389 -3.74027 0.920382 -1.30715
25.3942 20.3859 17.3131 -8.38885 -1.18042 -4.5008
23.7582 20.964 22.5491 4.0108 1.17676 -3.4323
16.5517 21.7893 22.0046 -5.34026 3.92892 -5.08221
18.1083 25.2261 19.2213 0.729305 -0.619693 -6.09979
19.1651 21.7691 22.6111 -2.69571 -2.41034 4.1437
23.6688 23.2911 22.007 0.0688046 1.24962 0.62756
21.9127 21.5041 21.0592 0.261146 -0.042703 -0.992545
19.1946 20.4086 25.0283 -3.8919 -0.948644 3.32445
22.2499 22.2451 24.2524 0.352436 1.10766 6.92286
ITEM: TIMESTEP
5000
ITEM: NUMBER OF ATOMS
42
ITEM: BOX BOUNDS ss ss ss
1.6021774595506560e+01 2.4311375793618897e+01
1.5624337241146993e+01 2.5795188485795371e+01
1.5048786211124003e+01 2.5576863362306369e+01
ITEM: ATOMS x y z vx vy vz
19.6351 20.6115 19.7101 -3.03207 3.17937 1.48179
20.1907 19.4041 17.3065 -1.50152 -2.81607 -4.4957
18.2854 19.7983 15.3314 -0.629725 0.883991 -2.03166
18.8599 16.4877 18.381 -2.03244 -4.5675 1.8293
22.6124 18.5781 18.5338 -1.00727 -4.84553 4.95539
17.8022 19.606 18.5271 -0.0363908 -3.52125 -1.35848
22.5409 19.1299 15.1852 2.33545 -1.95138 -1.31541
21.4908 16.6637 16.8959 -5.01658 -3.34253 -2.48105
20.7076 18.3574 20.3819 -4.11018 3.00429 4.30227
23.9517 20.4305 16.3899 0.202246 3.20328 -4.96509
23.5175 17.3232 16.2355 0.408212 -2.18494 -1.9956
16.5343 22.6466 19.0137 -6.91616 0.911038 -1.50345
20.3767 20.9239 15.0909 4.96565 1.29915 3.1702
20.4814 23.6994 17.3336 -2.87601 -0.337198 2.42652
22.8107 24.7944 20.073 2.33533 0.30915 4.57363
18.598 21.7213 17.2946 5.41181 1.06813 5.87977
21.367 22.9155 19.7271 -0.118381 -0.502141 1.88504
18.8453 24.5084 18.8928 1.29843 -2.09429 -0.361875
24.0173 22.2815 19.5658 1.59794 -1.15218 -4.72458
22.0246 21.4415 17.4999 1.73698 3.88523 4.3505
18.9773 16.5838 22.181 3.95737 -1.32829 -5.14599
17.6517 18.6899 20.7759 0.963905 0.09937 -0.218523
17.2885 17.7129 23.2709 4.07656 2.46712 -1.95914
18.7457 19.9903 22.6843 -2.68839 0.771314 -2.94891
21.7772 17.1762 22.3554 3.05159 -1.28823 3.33305
20.4541 15.6324 23.7599 -0.198328 0.281374 -2.29028
21.2934 20.5728 22.2967 1.88477 2.31242 -3.69085
20.2403 20.9526 25.5442 -4.72803 2.62816 -2.3006
24.282 17.4496 20.2864 -2.28976 -4.28537 2.83539
20.0239 18.1756 24.205 1.35601 -1.15838 -0.15837
23.7066 18.7226 22.7537 0.882649 0.578584 0.59765
21.8192 19.9823 25.1012 -1.71823 -2.63959 1.78195
18.4201 22.5549 20.5915 -1.58918 4.1408 1.93043
18.4544 23.945 23.1815 -3.38157 3.7572 2.4593
16.776 19.892 24.8936 6.40834 3.72684 -3.68754
16.0728 19.7112 22.7044 3.40783 -2.81257 3.02255
17.6369 21.9638 23.4029 -1.57049 -0.851403 2.32137
19.9461 25.7695 20.64 -0.785194 -2.01602 2.14719
23.2998 22.2799 21.7818 -1.6061 -0.901123 -1.71016
21.2597 23.8729 22.0019 0.532665 3.80772 -1.98543
23.0862 19.9808 20.3482 3.08697 2.20371 -1.93181
20.7291 23.6562 24.4596 -2.06874 0.0777398 -2.02281
ITEM: TIMESTEP
6000
ITEM: NUMBER OF ATOMS
42
ITEM: BOX BOUNDS ss ss ss
1.5981418391038392e+01 2.4119188338569025e+01
1.5781426508871762e+01 2.6330848847708353e+01
1.4424684198122515e+01 2.5530366599435595e+01
ITEM: ATOMS x y z vx vy vz
19.8734 19.3445 14.6346 -0.154497 1.74837 0.073833
19.7735 17.8559 20.0104 3.54786 -1.03176 -0.184804
17.6186 19.7582 19.253 -2.87426 0.257078 2.96877
20.6039 19.6111 17.6416 0.681806 2.25832 -2.81832
22.0687 15.9689 19.509 5.92433 -0.92524 3.81945
22.256 20.0556 14.5991 -0.0355642 4.72071 3.11695
20.4497 17.3147 17.911 -1.16556 0.437534 -0.768486
21.1946 17.9017 14.9878 0.180343 1.38197 -1.08629
19.3486 20.6765 21.4865 1.01888 -0.606457 -0.441747
15.4422 21.5908 19.2401 -3.89136 -1.21744 1.06644
19.6465 21.6887 18.4395 2.12139 0.834739 0.604765
19.9402 23.9898 18.0022 5.14948 -3.98884 -4.4637
22.6455 20.1603 17.4328 2.83663 -1.81903 0.398787
20.6636 21.778 15.1736 1.34028 -5.11262 3.78854
22.0359 22.5139 16.9712 -1.72559 -3.89164 2.10865
20.2041 23.2205 20.5971 -3.56692 4.70257 -0.0950588
23.6593 21.9385 19.4368 -2.61697 -0.0281845 -2.06723
21.3124 20.4975 19.8341 -0.377539 -1.26083 -0.31221
22.7809 15.6989 22.2601 -0.0163522 -1.22564 -2.31889
16.7873 20.6993 21.6121 -2.76584 6.18051 5.01436
17.5551 17.3397 21.1515 0.282683 3.17631 0.745731
17.6227 21.1019 24.0183 -1.1836 -1.00404 3.95046
17.7148 15.396 22.7539 1.16633 -2.00336 -0.462372
17.1907 17.879 23.6149 3.42095 -0.752095 -2.97281
21.7261 18.1777 21.3779 -2.96407 -3.47775 2.41555
22.4931 17.3454 23.7917 -1.97578 2.85237 1.16527
20.2669 16.0884 21.8339 4.44446 -3.6598 0.777505
24.0561 16.6433 20.1956 -0.518259 -1.79309 -1.67544
19.3586 18.8919 22.9519 0.789114 -1.48895 -3.67775
24.0024 20.8147 21.5417 1.41563 0.163949 -3.53823
21.8109 20.2505 24.0219 0.926289 0.655715 -6.44912
23.7088 18.8695 19.4344 -4.27811 1.36068 0.875976
19.6103 19.4034 25.4751 -4.29176 1.0897 -1.82924
17.4635 22.8 19.742 -0.552874 1.90847 1.58495
19.9604 26.1732 22.6696 0.135809 -0.484447 1.56333
18.2829 23.867 24.2584 5.94823 1.27898 -4.11147
20.5218 25.6187 19.7334 1.95373 -0.120659 -1.03028
22.5708 24.0788 19.7014 2.13599 3.15915 -1.56102
20.3127 22.1646 23.3635 -4.16563 1.8761 0.836572
22.5244 22.3792 21.7535 -3.43946 -3.76472 2.78586
21.3243 24.5687 22.4208 -1.4134 -0.343048 4.06326
18.2077 24.4754 21.7521 -1.44682 -0.0435791 -1.86053
ITEM: TIMESTEP
7000
ITEM: NUMBER OF ATOMS
42
ITEM: BOX BOUNDS ss ss ss
1.4829259601927326e+01 2.4660722844152517e+01
1.4663442953141722e+01 2.6936231325749038e+01
1.4153763956363692e+01 2.4745439264926258e+01
ITEM: ATOMS x y z vx vy vz
16.1818 20.4748 19.9543 0.687791 -0.980569 -1.83386
20.5229 20.6589 14.18 -5.06176 2.30685 -1.95053
20.433 18.8519 19.3876 0.220778 -0.894113 1.27896
20.1892 19.2162 16.4788 3.12793 -1.3305 -0.37955
21.6985 16.6028 20.4008 0.483386 0.718989 -0.962023
22.6612 22.0189 15.067 1.00239 3.62269 1.34625
20.6589 17.1011 17.6125 1.69892 1.72358 3.73694
22.4412 19.5257 15.3374 0.393761 -4.0698 2.82354
23.8154 20.8459 16.8812 0.272909 2.07604 -1.42093
21.4032 21.0494 20.4211 4.66728 1.66816 1.55533
22.7329 18.0944 18.302 2.05127 4.4019 -4.37915
15.1294 21.7834 21.8991 6.57258 -1.90812 2.09747
18.5525 20.3435 18.7105 -3.81891 -3.31274 -0.0557352
17.4906 22.8924 19.5183 -1.7976 -2.09411 1.78182
19.5128 22.7872 18.6327 0.0778434 3.27987 1.47025
19.6939 21.7698 15.8255 -0.048505 -0.0318769 -1.25002
21.4877 21.6518 17.7755 2.22492 -3.73228 1.86248
23.8785 20.5724 19.5057 -0.659224 4.50925 -1.71389
19.8366 25.4905 19.2751 -2.20619 -3.40278 0.591859
22.0914 23.7671 20.022 1.45599 0.482787 -1.70226
18.2609 20.9394 21.8455 -3.25011 -2.86824 1.84321
17.6051 22.449 23.3193 -1.62007 -1.95654 -0.366672
18.0009 18.0464 21.3439 -2.51885 1.7208 5.11202
19.5098 15.6711 21.3321 0.837411 -1.83974 -3.58221
18.1637 16.9004 23.9768 2.69823 -0.476905 -5.77209
20.6118 17.9878 22.4789 1.46865 0.674916 1.96876
18.6955 19.6958 24.0527 -1.82715 3.87143 -2.66333
23.105 15.2068 21.4873 -5.07632 6.87542 1.3543
23.0711 17.2185 23.379 -1.77224 -3.0325 5.16466
20.3814 16.4299 24.7357 1.68382 2.39676 -1.82468
20.996 14.6034 23.1407 -3.11108 1.10074 0.682463
24.4713 16.8019 20.6239 -3.23529 -2.23354 -2.4362
22.0681 20.147 22.971 -4.86759 -4.01115 1.02352
16.1298 19.5673 22.6049 2.72307 -0.561823 1.39579
18.9707 25.1814 22.3844 1.1459 -0.108049 -3.33855
17.8424 25.8511 19.251 0.246102 2.73449 -1.9709
19.8173 23.2649 21.2201 1.86956 -4.36057 0.889784
23.1824 18.9172 21.4499 -1.58421 -0.0155559 4.51173
20.2347 27.1083 20.909 1.48846 1.39327 -2.00154
20.3441 22.1722 23.6239 0.978449 -2.74267 0.735113
22.6543 22.489 22.3274 2.79425 2.33532 -4.55338
22.0623 24.4433 22.9453 -0.41655 -1.92912 0.93125
ITEM: TIMESTEP
8000
ITEM: NUMBER OF ATOMS
42
ITEM: BOX BOUNDS ss ss ss
1.5502971999289763e+01 2.4602964824431201e+01
1.5644366548130929e+01 2.5643406318710383e+01
1.5612385712399769e+01 2.3895924463279449e+01
ITEM: ATOMS x y z vx vy vz
20.6459 16.2393 17.3421 -4.96074 1.93649 4.97938
24.3525 19.1339 18.1658 -2.91395 -2.5059 -1.56736
17.6363 19.636 18.7439 0.491709 3.70213 1.40733
18.4112 22.0211 18.2325 -1.5258 -1.28695 2.13791
18.9722 21.6386 15.9189 0.611295 0.544575 -0.307205
21.6683 21.0683 15.5198 0.3048 -0.164733 2.17579
19.5497 19.2769 16.986 0.467459 -3.07943 -2.10361
20.603 22.9714 17.1144 0.890379 -1.1903 -1.81708
22.1814 18.7027 17.0604 -1.4495 4.92806 1.01876
23.3214 22.1258 17.4785 2.67697 1.69559 -0.051573
21.0552 20.4686 18.8324 -2.07128 0.189577 0.816784
17.7512 25.2834 20.1731 -2.42309 -2.60753 0.89004
17.8097 17.123 20.2551 3.36798 -5.46724 -1.06056
20.7963 15.6892 20.3131 3.40471 1.40156 -1.78091
17.6942 15.743 21.6494 -2.61323 -1.35291 0.976059
20.0579 17.9196 19.1089 0.103683 -0.133589 -0.283911
22.6655 16.7002 18.9294 0.946483 -3.00613 1.13972
20.5428 18.4974 21.7852 3.28409 -2.01317 -1.9021
22.9143 16.0311 22.2537 -1.20164 1.05517 5.17374
21.9318 18.2119 23.8055 1.99994 2.83477 -2.2843
17.2939 18.2187 22.8893 -1.30757 -3.85611 -3.33337
20.4578 16.1695 22.6412 -0.295768 1.78263 -3.55163
24.7132 16.5772 20.8035 -0.0902703 3.40111 3.19175
22.9502 18.8707 21.0841 2.5183 6.17745 -0.7289
15.771 20.9151 20.6314 4.64232 -0.466399 1.73302
16.9118 21.2009 23.5056 0.580611 2.41353 -0.318611
16.7196 23.2034 21.3146 1.32378 5.19114 4.27445
18.4254 19.9207 21.0966 -0.964635 1.71335 -5.21519
18.6959 22.9029 23.5051 -2.75787 -1.83431 -0.164085
20.1369 20.8474 23.4309 3.62316 -3.58336 -4.83453
15.4473 18.9393 21.6638 -2.8598 2.32607 0.116259
19.2642 22.7596 20.45 -3.39396 -0.788484 -0.643534
21.581 21.3709 21.4384 -2.47097 3.83106 3.87509
23.7999 21.1412 19.6585 -0.190878 -2.32456 1.52287
23.4639 20.5862 23.9048 4.13476 0.00134736 -0.833924
21.097 23.6352 23.1236 -2.79177 -0.128913 -5.57383
24.4945 22.1684 22.9128 -1.27783 -1.5239 1.29854
19.4832 25.0305 18.4448 0.609211 2.52359 1.40699
18.8455 24.7756 22.4943 5.61952 2.11093 -2.95385
22.2367 23.3291 19.556 -2.15326 -3.50593 -2.88239
21.0407 25.5622 20.6918 -2.17641 -3.62413 2.16916
23.2 23.9838 21.6806 0.28906 -5.31616 3.88881
ITEM: TIMESTEP
9000
ITEM: NUMBER OF ATOMS
42
ITEM: BOX BOUNDS ss ss ss
1.5943389127040181e+01 2.5442443960190484e+01
1.5629415739710261e+01 2.5799436748681156e+01
1.5691358000482612e+01 2.3946613731048224e+01
ITEM: ATOMS x y z vx vy vz
17.313 21.6994 19.3295 0.792871 0.523751 3.102
18.6443 19.0079 17.0613 3.20244 0.744708 5.71766
21.6632 16.4875 18.0542 3.4718 -1.82888 -0.408898
25.2826 19.6258 20.0721 6.36343 -3.95436 4.42531
21.4796 18.5454 16.7111 -1.88302 2.97741 -1.48554
20.2427 19.1936 19.0347 2.58264 2.0711 -3.98502
22.7654 18.3397 19.296 -3.5785 0.459944 1.00708
17.7629 23.9144 17.3956 -3.2732 0.115098 3.63437
17.712 21.2697 16.4353 -1.47217 -0.423752 -2.17797
20.0717 24.4247 17.7222 3.95452 -1.43665 -1.94061
20.3127 20.4086 15.5746 -1.07192 -0.374451 -3.69951
19.8897 22.8004 15.8719 0.178856 -1.39861 1.45675
21.0896 20.2512 20.9938 -2.81538 1.16566 6.99497
19.8012 21.5334 18.1256 -0.728527 1.76479 -3.1458
23.2976 21.1856 19.501 -0.787574 -7.16768 -3.81741
21.779 23.0171 18.9723 -1.66277 -1.65653 -2.44442
19.5855 16.1231 19.7048 2.82971 0.0786834 3.23059
16.6406 16.742 20.8065 -2.46271 0.962501 -1.31081
17.9654 18.1331 19.9021 -0.108833 -0.177139 -2.79548
18.4027 20.2988 21.7991 -2.97747 -1.1657 3.32433
15.7812 19.1164 19.8682 -3.96308 0.167989 -1.90451
22.4813 15.7561 20.3442 2.69027 -0.166798 0.807947
21.2185 17.8025 21.3052 2.99175 -2.40753 -5.73296
22.4959 15.8048 22.8895 -0.504679 -1.07523 -3.88486
22.9043 17.6104 23.9409 0.638295 3.5595 1.47813
18.734 15.5965 22.0861 -2.09412 -1.94967 -0.47895
24.4208 17.6011 21.3499 -0.441115 1.00275 0.274346
24.1707 19.7705 22.8466 1.70807 -0.774933 2.45583
16.9863 24.0858 20.8618 -3.61307 0.843423 1.04115
16.8989 22.2035 22.7724 -0.533119 1.07535 -3.92705
15.9983 19.3229 22.0795 -0.322767 -1.12204 1.46908
19.2814 24.9294 22.527 3.6566 0.152056 0.550798
19.1012 22.1042 23.713 0.449169 -1.03586 0.974031
19.5584 22.8002 20.663 -0.180852 0.715843 3.12773
18.8342 25.629 19.7412 -2.7599 -1.79424 0.916505
19.7567 18.6836 23.2198 -2.48276 0.230524 0.456491
21.5677 20.5414 23.4363 0.433756 2.56942 -5.19048
24.099 22.1583 23.7001 0.647909 1.49901 0.0274514
21.1197 23.3814 23.3429 1.34644 1.61147 0.77539
25.7051 21.5798 21.586 0.688477 -0.77234 1.18587
21.0566 24.7343 20.4683 2.51468 1.93273 0.239588
22.7182 22.3767 21.4844 -1.42414 4.4587 -0.343118
ITEM: TIMESTEP
10000
ITEM: NUMBER OF ATOMS
42
ITEM: BOX BOUNDS ss ss ss
1.6084324718122716e+01 2.5815353733811950e+01
1.4502067587826641e+01 2.5568046165485338e+01
1.5142459281710730e+01 2.4532001520161440e+01
ITEM: ATOMS x y z vx vy vz
17.1186 18.9978 17.0687 1.06749 0.732896 3.62509
21.9295 19.638 17.996 4.32093 -2.28723 -0.234839
17.9456 20.8121 15.116 3.03348 -1.34893 -3.76425
21.523 16.8923 17.5211 0.00433631 -0.98678 -1.25683
19.6801 18.6511 16.5569 -1.71697 -0.848028 0.759492
24.1754 17.4617 19.8838 -3.17788 -1.88173 -3.53381
17.192 20.9855 19.4678 4.68472 3.02112 -3.47805
17.9757 23.9813 18.3172 0.778586 -1.70408 -2.66804
16.4767 21.4664 17.1251 -3.09831 0.579116 -3.70287
20.5179 24.3265 17.8956 -2.3016 -0.61912 -0.900249
18.5265 23.1934 16.0495 -0.77629 -2.05065 2.58688
19.2743 21.1902 17.284 -4.06901 -0.170461 2.58995
24.0983 20.4144 19.5386 0.538731 -3.35705 -1.20084
21.3398 21.9707 19.4183 -1.8162 2.57303 -0.527798
19.7439 16.7224 19.4418 -2.22809 3.28883 0.507683
17.3294 17.6469 21.4465 4.176 1.47702 0.514885
19.7004 19.3173 19.2289 0.0453672 3.55048 -1.8087
18.7032 19.552 21.7978 -1.82196 1.80803 1.4067
17.3418 17.7877 19.064 5.22307 -3.7962 -2.44641
20.5079 17.205 22.2804 3.46041 1.80737 -0.828095
16.0866 19.4923 20.7277 -0.535173 1.9037 2.51879
19.6698 19.9466 24.1372 -0.140484 2.83667 1.69517
25.8459 19.0251 21.3002 4.18114 -0.541794 -1.34975
21.0232 21.0733 21.844 -1.34446 -1.34249 -2.10643
22.1942 15.5692 20.1087 -3.87872 4.93486 -3.11173
21.9956 18.6503 20.6708 3.14921 3.38917 6.40308
21.8998 14.4904 22.0779 1.17732 -1.77838 -0.885981
21.803 18.3277 24.4031 1.63335 3.64939 4.66355
23.3715 16.6561 22.5963 0.591823 -1.04494 -0.920465
23.8873 19.3384 22.7053 -2.6923 1.42505 -0.953142
16.6718 23.7819 20.858 2.54067 -3.5907 1.2086
16.6192 21.7736 22.0545 1.32765 -2.8403 1.53124
18.6222 25.014 22.2323 0.182199 4.78574 1.97493
18.8298 22.4322 22.9083 -3.64236 1.20257 -1.71177
19.1487 22.9956 20.2509 -3.97171 -0.00654963 2.69806
19.2132 25.5664 19.7665 2.1017 0.361285 1.02192
21.9849 20.8438 24.5339 -3.61684 -3.25925 0.67891
24.1974 21.8509 23.9947 -2.17633 -4.62729 -0.0246752
21.6195 23.1967 23.1882 0.193292 -1.71733 0.414151
25.5349 21.8008 22.1289 -3.75962 0.961067 1.87838
22.0603 24.2317 20.0828 1.34484 -5.09585 -1.03994
23.2112 22.3203 21.5218 1.008 0.607731 -0.222821
ITEM: TIMESTEP
11000
ITEM: NUMBER OF ATOMS
42
ITEM: BOX BOUNDS ss ss ss
1.5657206858313030e+01 2.6092630540123238e+01
1.5795351119564298e+01 2.4591259252866486e+01
1.5416225842948270e+01 2.5395249105039881e+01
ITEM: ATOMS x y z vx vy vz
16.7448 20.0965 18.466 -0.903273 1.49306 2.85607
19.9614 17.9271 16.4741 2.74078 0.717621 3.19392
19.3965 17.8242 19.6737 2.65217 0.712671 2.20245
19.4863 20.145 18.4898 -0.798538 -1.18827 -0.644465
17.9643 17.9282 17.5714 0.377802 -3.65764 0.303655
22.3123 19.3929 17.3741 -2.5717 0.513221 1.48958
21.4838 17.205 18.6654 1.8332 -2.13875 -1.12797
23.8853 17.9774 18.9792 -2.20171 2.4556 -2.61269
23.9871 20.8363 19.1815 3.47332 2.56018 -3.86836
18.1798 19.4846 15.7285 2.74182 -0.748145 -1.89907
15.6479 21.2268 20.9213 -0.310119 1.01388 -1.89992
17.4892 22.3482 19.1085 -1.36627 1.23181 -3.69435
18.096 22.0203 16.8098 2.57091 -2.11183 5.52222
20.1766 23.4661 17.8638 -0.0672894 1.42289 1.44753
20.8574 22.7542 15.6739 2.66989 -1.14387 3.51045
20.8111 20.7635 15.8037 2.79491 0.937078 -2.79858
21.7878 21.6667 18.6793 -0.383342 -4.15012 -3.93901
16.0567 19.2971 22.2103 -2.67025 0.14436 5.14696
18.4675 19.9103 21.32 -0.0576785 0.648438 -1.99438
18.0503 17.6019 22.3689 -2.86263 -1.69237 5.50621
16.8708 17.9311 19.9607 -1.81673 -1.77989 -3.78227
26.0457 18.9851 19.9141 -2.21545 0.537753 0.0367113
22.4522 15.8808 20.7273 -5.37049 1.2076 -0.805772
21.8256 19.2771 20.4442 -0.767432 1.07163 -3.02856
20.9705 17.3898 22.2438 -1.23623 1.54463 -2.74661
22.8277 18.566 23.6804 -2.09896 -2.47176 -1.36105
23.8999 17.5674 21.4206 -1.80096 0.373841 3.15071
24.1287 19.9571 21.9166 -0.540149 4.84833 -1.79846
18.6026 19.7769 24.4065 -2.74158 -4.99576 0.10894
20.7151 20.1824 22.5121 0.42419 1.89942 3.7956
17.1666 22.638 22.1522 1.14838 -1.80034 1.28408
16.0153 21.507 24.1107 4.13867 3.63885 -1.6666
20.1109 24.3593 22.1339 -0.112748 -0.159763 4.77341
19.0057 22.1542 23.977 -2.55493 4.28398 -1.12471
20.0042 22.3452 20.9293 0.331737 -6.92562 -2.17599
18.881 24.4369 19.8503 1.29463 -1.97253 1.64217
20.8891 21.0592 25.2036 0.509738 -2.49203 -2.93124
23.3218 20.7823 24.5501 1.73304 2.7542 0.553118
21.999 22.5364 23.4577 4.18215 -4.24767 1.3427
25.2672 22.1141 21.0865 1.01051 3.84888 0.298375
21.6426 24.4339 19.6285 -1.39116 1.41193 -0.721277
23.1053 22.8375 20.9207 0.211789 2.4045 -1.54351
ITEM: TIMESTEP
12000
ITEM: NUMBER OF ATOMS
42
ITEM: BOX BOUNDS ss ss ss
1.6182473115264699e+01 2.5510106837344846e+01
1.5788527029109147e+01 2.5470619712555742e+01
1.5326384066015772e+01 2.5202703693711797e+01
ITEM: ATOMS x y z vx vy vz
17.5258 19.6649 18.5553 0.444455 3.00779 0.254489
19.9366 17.6976 16.4047 0.815013 -0.54069 -2.94271
19.308 17.3016 19.5771 -0.836825 -0.100838 -0.0530182
19.9926 19.7626 17.9827 0.515242 0.525117 -1.62679
17.4688 17.8977 17.1659 3.32821 4.85984 2.33681
18.2568 20.4421 15.8232 -1.09162 -4.21458 0.478034
16.7853 17.7976 20.3968 0.0579791 -1.61761 0.636841
23.001 19.8661 16.9788 -1.30877 2.51354 5.31819
21.6958 17.7908 18.6411 1.57165 -1.30501 -1.4336
23.8647 17.867 19.5225 -1.33913 -0.446189 0.926383
25.4398 19.8887 21.4331 -2.38403 -0.973112 -0.149513
21.5769 19.5802 21.0128 0.902939 0.413957 -3.27539
17.5991 23.8529 19.45 0.529446 0.689462 -0.0891036
18.677 22.1839 17.5689 -5.34154 -1.58774 -0.328849
18.905 24.888 17.4723 -1.6419 -0.796258 0.0537111
23.6832 20.5956 19.1907 -2.3913 2.65836 0.580299
20.1505 22.1093 15.1466 3.0639 1.30697 -1.70512
20.7666 19.5666 15.3637 1.4039 -0.834612 -0.674293
21.8348 21.6313 17.638 -1.7317 0.775236 -0.451085
21.0614 23.7022 18.8901 6.16369 -1.44139 1.34638
17.3997 18.3289 23.5146 -0.112766 -2.27088 1.64798
18.467 19.6378 21.1986 -2.97264 -5.74761 1.89957
18.279 15.6377 21.0437 3.74698 -1.67913 -2.9721
19.1888 19.4734 24.648 -3.64594 2.67951 -3.05165
21.6176 16.3134 21.2582 -0.409146 -2.02253 -2.33605
19.6389 17.4667 22.1129 -0.466711 -1.87151 2.52436
21.6219 18.4298 23.7629 0.786727 0.894725 0.906797
23.658 17.4416 22.2389 0.408144 -0.627316 -0.35672
20.1472 21.3162 22.913 2.07178 3.40197 0.877204
16.2861 20.8477 20.4734 2.80258 0.843331 2.34517
18.2689 23.6381 22.2259 -1.13969 2.46342 3.69258
17.5437 21.3495 23.1298 0.440029 1.15667 -1.04325
20.7093 24.8426 21.7693 0.612831 -0.548954 -3.1661
19.1876 22.5767 24.7689 -0.693536 1.4085 0.329297
19.4032 22.0244 20.1353 -0.0771684 1.39998 4.02531
19.5003 25.5282 20.0289 0.805149 0.892668 -2.7076