ITEM: TIMESTEP
0
ITEM: NUMBER OF ATOMS
434
ITEM: BOX BOUNDS ss ss ss
8.5154354192183614e+00 3.2811995296279413e+01
7.8739520951687423e+00 3.2941934503163502e+01
9.9221072460854973e+00 3.0867893285540394e+01
ITEM: ATOMS x y z vx vy vz
23.5387 11.0865 12.7354 0.79872 -1.05634 1.18563
20.7359 10.2199 12.6381 0.404434 0.717792 -0.614255
26.3416 11.953 12.8328 -0.32298 0.725165 0.674137
16.5236 14.0175 11.6044 0.224655 2.21842 -1.00779
14.8709 16.1635 12.7357 -1.12885 1.02364 1.75464
14.1742 13.3982 13.1553 -0.778824 0.620952 1.07163
17.4915 15.6119 13.802 -0.655028 2.29338 -0.639509
19.3265 14.8841 11.7017 -1.10936 1.08373 1.56604
18.6298 12.1187 12.1212 -0.361219 2.89676 0.565571
22.1293 15.7506 11.799 0.969678 -0.71987 -1.05782
24.2354 13.8518 12.3159 0.619741 1.73362 -0.225217
21.4326 12.9853 12.2186 -0.882697 0.443881 -0.156029
27.0383 14.7183 12.4132 0.118104 -0.254736 -0.570773
15.5677 18.9288 12.3162 0.167295 -0.839081 -0.414648
13.2183 18.3094 13.867 1.62451 1.68778 -1.7174
18.1882 18.3772 13.3825 -1.06622 -0.502665 0.281654
17.917 19.5482 10.7653 -0.364528 -0.0738082 2.82144
20.2943 16.4784 13.8994 -2.12278 0.950088 0.449847
20.0232 17.6494 11.2822 0.203966 0.318898 0.614082
17.2203 16.7829 11.1848 -0.311933 0.323874 -0.63585
23.7939 20.1103 13.5771 -0.812578 -2.02227 -0.32002
20.991 19.2437 13.4798 -0.946241 0.11672 1.29166
23.0972 17.3449 13.9967 1.87684 1.16635 1.60775
22.826 18.5159 11.3795 1.51571 -0.42645 -2.0787
25.9 18.2115 14.094 0.524054 0.353624 -0.79406
25.6289 19.3824 11.4768 0.423118 0.930796 0.645614
27.8146 20.1651 13.1851 1.03089 -1.81116 -1.31198
27.735 17.4836 11.9937 -0.283452 2.52972 0.924545
24.9322 16.6171 11.8963 0.702572 -2.11827 1.42151
29.9207 18.2663 13.702 -0.43156 -1.2554 -0.0267409
14.6117 23.8401 13.0279 0.576179 0.23614 1.72322
16.2644 21.6941 11.8966 -0.0237751 -1.59247 -0.32311
13.915 21.0747 13.4475 1.43488 -0.252576 0.308639
19.5816 23.9079 12.5434 1.43082 0.600448 0.482238
17.2322 23.2885 14.0943 -1.03623 1.06683 -0.992458
16.9611 24.4594 11.4771 1.05637 -0.0826149 0.769342
18.8849 21.1425 12.9629 -1.98181 -0.223457 -2.01366
18.6137 22.3135 10.3457 -0.504317 0.535756 -1.98187
21.6877 22.0091 13.0603 0.328257 -1.79018 0.173722
21.4166 23.18 10.4431 1.10609 1.69848 -1.84694
23.6023 23.9627 12.1514 3.54586 -0.575037 0.43089
23.5227 21.2812 10.9599 1.04472 1.10857 -0.148252
20.7199 20.4147 10.8626 -0.215306 -1.06173 0.784788
25.7085 22.0639 12.6683 -0.426175 -2.35377 -2.47329
16.3931 26.0329 13.8244 -0.990122 0.0178552 0.965197
19.3104 25.0788 9.92619 -1.30874 1.31363 0.906438
18.7425 26.6522 12.2736 -1.45619 -0.557043 -2.15014
21.4962 25.8615 11.6345 -1.19029 0.469338 0.51344
20.9282 27.4349 13.9819 0.605949 -0.804164 1.01669
23.6819 26.6442 13.3429 0.660546 -0.544103 2.36849
25.788 24.7454 13.8597 1.30703 0.16614 1.83033
12.096 11.6078 17.3233 1.40542 0.0762847 -1.05937
17.0659 11.6756 16.8388 -0.554108 -1.14855 -0.988923
19.172 9.77683 17.3557 0.806074 -1.78985 0.0817875
18.9009 10.9478 14.7385 1.21074 0.521 0.250743
21.9749 10.6434 17.453 -0.861352 0.276776 -1.90965
21.7037 11.8143 14.8358 0.0930149 -1.73409 -1.06726
24.081 8.74456 17.9698 0.854702 1.26276 -1.04267
23.8099 9.91551 15.3526 1.61947 0.610982 -0.489415
21.2782 7.87803 17.8725 -1.00833 0.747107 -0.163515
21.007 9.04898 15.2553 -1.4332 -2.28063 -1.55673
24.7777 11.5099 17.5503 0.560519 1.18854 -1.02382
26.8839 9.61108 18.0672 1.55787 -0.102392 -1.68977
26.6127 10.782 15.45 -1.13523 -0.595601 0.552303
12.5216 15.5441 14.2866 0.32877 0.527567 -0.959926
11.8249 12.7788 14.7061 -1.59388 1.40149 1.48516
10.1722 14.9247 15.8374 -0.825531 -0.847627 0.0779769
15.4132 13.8216 17.9701 0.657771 -0.0230146 0.769982
15.1421 14.9925 15.3529 0.767089 -0.738488 -1.12887
14.4454 12.2272 15.7725 -1.16835 -0.0645849 -0.527578
12.7927 14.3732 16.9038 0.953188 0.424162 -1.19566
20.5654 15.3075 16.5166 1.15975 0.87527 -0.428442
17.7626 14.4409 16.4192 -0.157229 -1.25289 -2.2024
19.8687 12.5422 16.9361 -0.39536 -2.24589 0.885972
19.5976 13.7131 14.3189 0.465629 1.26715 -3.27395
16.7948 12.8466 14.2216 0.587184 -0.417672 1.22056
23.3683 16.174 16.6139 0.354063 -0.47128 -1.25088
22.6716 13.4087 17.0334 1.87321 0.0900169 0.0188559
22.4004 14.5796 14.4162 0.129832 -2.55781 1.21479
24.5066 12.6808 14.9331 0.832142 0.566122 0.0718697
28.2773 15.1417 17.2281 -1.27453 2.65428 0.85887
25.4744 14.2752 17.1307 0.970675 0.0723544 1.85866
25.2033 15.4461 14.5135 1.44714 0.73965 -0.0424518
27.5806 12.3764 17.6476 -0.190527 0.457966 -2.21031
27.3094 13.5474 15.0304 -0.198461 -0.523155 0.405533
11.8367 19.2844 17.6156 0.821453 1.23625 1.16308
11.14 16.5191 18.0351 -0.417464 0.956742 -1.63405
10.8689 17.69 15.4179 -0.493274 -0.63815 1.75508
9.21622 19.836 16.5492 -0.181301 2.34838 -1.30247
8.51951 17.0707 16.9688 0.847233 -0.0342542 0.247225
16.1099 16.5869 17.5506 -0.644604 -0.231474 0.525467
15.8388 17.7578 14.9334 -1.06805 0.75472 -1.03038
14.1861 19.9038 16.0647 -0.725718 -2.21026 -0.389263
13.4894 17.1385 16.4842 -3.2692 -1.06091 0.266306
19.4271 18.8006 18.1973 1.55464 0.112446 -0.945016
19.156 19.9716 15.5801 0.0895466 -0.191569 -0.423603
18.4593 17.2063 15.9997 0.535862 -0.627804 0.710988
16.8066 19.3522 17.131 -1.00747 -0.30542 0.764185
22.23 19.6672 18.2947 1.67948 -0.602128 -0.0158097
24.065 18.9393 16.1943 -0.948999 0.269046 0.471387
21.2622 18.0728 16.097 1.37812 -1.15503 -2.20454
26.2507 19.722 17.9027 3.02972 -0.638016 0.345129
26.1711 17.0405 16.7112 -0.0444467 -0.809662 1.42462
28.0857 18.9942 15.8023 -0.124611 2.14515 1.2241
28.0061 16.3127 14.6109 0.865664 0.420242 -1.84526
30.2715 19.7768 17.5107 1.4137 -0.831566 -2.54972
30.1919 17.0954 16.3192 0.901955 -0.809691 2.77814
32.3776 17.878 18.0275 -0.687822 -3.42842 -2.77954
32.1065 19.049 15.4103 -2.70181 -0.0933666 -1.7216
12.5334 22.0498 17.196 -0.0108359 -0.29145 1.96101
12.2623 23.2207 14.5788 0.828583 0.514126 0.826505
9.91293 22.6014 16.1297 -0.312967 0.528741 0.249159
11.5656 20.4554 14.9983 -0.471123 -1.01142 -0.214122
15.154 21.4982 18.2623 -1.22789 0.550206 0.454296
14.8828 22.6691 15.6451 -1.20894 -0.555241 -1.27855
16.5355 20.5232 14.5138 -0.313441 -1.487 0.281353
14.3149 24.2425 17.9925 0.561316 0.628717 -1.59301
20.1239 21.566 17.7778 0.43568 0.551572 -1.07288
19.8527 22.7369 15.1606 1.06563 1.11323 0.323986
17.5033 22.1175 16.7115 0.410196 0.0568163 -0.409142
19.2848 24.3103 17.508 -0.650659 0.0569968 -0.202652
22.0384 23.5196 16.8689 -1.76027 -1.10246 1.18466
21.9589 20.8381 15.6775 2.42477 -1.02105 -0.569264
24.1446 21.6208 17.3858 0.64296 -0.416264 1.74079
23.8735 22.7917 14.7686 0.905428 0.204736 0.9578
26.0592 23.5744 16.4769 -1.47148 0.00144684 -3.16543
25.9796 20.8929 15.2855 0.444719 1.0127 0.206322
28.2449 24.3571 18.1853 1.45765 -1.63455 1.48122
28.1653 21.6756 16.9938 0.639541 0.0507173 1.83427
27.8942 22.8466 14.3766 -0.0512622 -0.269882 -0.601345
30.0799 23.6293 16.0849 0.738049 0.410375 -0.0603027
30.0003 20.9478 14.8935 -1.67314 0.792533 2.9108
32.2656 24.412 17.7933 1.21168 -0.0331086 -0.335912
32.1861 21.7305 16.6018 0.53946 -0.724263 0.155214
11.6944 24.7941 16.9262 -2.33591 -2.06934 1.12086
14.0438 25.4135 15.3753 -0.960749 -1.27481 1.52371
15.8252 27.6063 16.1718 -0.804219 0.439063 0.0413826
13.4758 26.9869 17.7227 1.07311 1.52274 0.930183
19.0137 25.4813 14.8908 0.985876 0.597123 1.11993
16.6643 24.8619 16.4417 0.206461 1.25618 0.49764
18.4457 27.0547 17.2382 0.194503 0.917042 1.29268
18.1746 28.2256 14.621 0.231719 -0.125829 0.871373
21.7673 24.6905 14.2517 1.13108 -0.318589 0.329102
21.1994 26.264 16.5991 -0.290398 -0.367875 0.0449751
23.953 25.4732 15.9601 -1.18364 -0.345413 -1.43229
23.114 28.2176 15.6902 0.592881 2.07438 -1.80371
26.1388 26.2559 17.6684 0.489752 -1.01928 1.15558
25.8676 27.4269 15.0512 1.24021 -0.942002 -0.686882
28.0534 28.2096 16.7595 -0.739434 0.0713741 0.409243
27.9738 25.5281 15.5681 1.84882 -0.0533915 -0.435626
30.1595 26.3108 17.2764 -1.59111 0.554268 2.04547
17.6067 29.7991 16.9683 1.03639 0.422578 -1.03378
20.3603 29.0083 16.3293 -0.793269 -0.197605 0.857102
22.546 29.791 18.0376 -1.03143 0.512289 0.495328
25.2997 29.0003 17.3986 1.59464 0.439888 2.12416
12.3671 10.4369 19.9405 -0.578088 0.565843 -0.486809
14.9876 9.8853 21.0069 -1.67875 1.10987 1.27041
14.7165 11.0562 18.3897 1.92433 -0.476645 -1.29005
13.335 12.0312 22.1382 0.220901 0.0522418 0.380859
20.411 10.2002 22.1705 0.888796 0.196675 -0.255594
20.1399 11.3712 19.5533 -1.42809 -0.486649 0.710962
17.6082 9.33372 22.0732 0.738596 1.06972 -0.138168
17.337 10.5047 19.456 -1.58951 0.443454 0.391872
19.4432 8.60588 19.9729 2.16229 1.07316 1.24897
23.2139 11.0668 22.2678 0.475421 -0.0557753 0.194379
22.246 9.4724 20.0702 0.382517 -0.786081 -0.175419
26.0167 11.9333 22.3651 0.838437 -1.21072 -0.933539
27.8517 11.2054 20.2648 0.443913 -0.746577 -0.561857
25.0489 10.3389 20.1675 -0.246425 -0.0729038 -0.507434
11.4112 15.3481 20.6523 -2.1375 0.22475 1.85807
10.7145 12.5828 21.0719 -0.156461 -1.19762 0.419147
10.4433 13.7538 18.4546 -3.21679 -1.28469 0.025055
9.06179 14.7288 22.2032 0.923797 -3.00976 0.368882
8.79065 15.8997 19.586 -0.797028 0.298824 1.79703
16.3811 15.4159 20.1678 -0.410084 -0.586463 1.68666
15.6844 12.6506 20.5873 -0.546186 0.647589 0.333793
14.0317 14.7966 21.7186 -0.73944 -0.273429 1.36986
13.7605 15.9675 19.1014 2.39859 1.66562 1.11089
13.0638 13.2022 19.521 1.90575 -0.479261 -1.04394
19.0016 14.8644 21.2341 -0.103532 2.29778 0.094344
18.7304 16.0353 18.6169 -1.05538 -1.20298 0.97137
18.3049 12.099 21.6536 -0.956494 0.925028 1.60303
18.0337 13.27 19.0364 -0.57064 0.559774 1.88842
21.8044 15.7309 21.3314 1.10819 -0.0805203 -0.13039
23.9106 13.8321 21.8483 -0.862784 -1.79538 0.134297
23.6394 15.003 19.2311 0.347972 0.118921 -0.107238
21.1077 12.9656 21.751 1.41407 0.118606 -1.30961
20.8366 14.1365 19.1338 -1.47429 0.274707 -1.29636
22.9427 12.2377 19.6506 -0.427743 -2.22895 -0.959989
26.7134 14.6986 21.9456 -0.40565 -2.52631 1.19404
26.4423 15.8696 19.3284 -0.15948 -0.451875 1.14521
28.5484 13.9708 19.8453 0.924652 0.834396 0.138268
25.7456 13.1042 19.7479 -1.16153 -1.79882 -1.33193
28.8196 12.7998 22.4625 -0.406154 -0.127407 -1.90961
30.7341 14.7535 21.5536 0.250844 0.656762 0.959285
30.463 15.9244 18.9364 1.04378 -1.68303 -0.445851
10.4552 20.2594 21.3641 -1.36414 -1.35807 -0.631213
12.1079 18.1135 20.2328 -1.00904 -1.15592 -0.899506
9.7585 17.4941 21.7836 1.0243 -0.89771 -0.115783
9.48736 18.665 19.1664 -0.860407 -2.21506 0.016642
15.4251 20.3272 20.8795 0.178494 0.765263 -1.15638
13.0757 19.7079 22.4304 -1.40738 -0.84193 -0.803088
14.7284 17.5619 21.2991 -0.689828 1.31015 0.390444
14.4573 18.7328 18.6819 0.17933 1.61569 -0.604159
20.395 20.395 20.395 -1.70357 1.37086 0.376501
18.0456 19.7756 21.9459 0.730935 0.00433597 0.521106
19.6983 17.6297 20.8145 -0.748161 -0.0451871 -1.87658
17.3489 17.0103 22.3654 -1.05076 -0.857431 1.36091
17.0778 18.1813 19.7482 -0.774817 -0.603005 0.184651
22.5011 18.4962 20.9119 0.722156 -0.887677 1.68775
24.6073 16.5974 21.4287 -0.965427 -0.428354 1.9174
24.3361 17.7684 18.8115 -0.702851 0.0758782 0.427357
21.5333 16.9018 18.7142 -0.421247 0.230533 -0.133388
26.5219 18.551 20.5199 -0.513354 0.718469 -1.49181
28.7076 19.3337 22.2282 1.42514 -0.56538 -0.949904
28.628 16.6522 21.0367 0.200064 1.33905 0.839273
28.3569 17.8232 18.4195 -1.08862 -0.982017 -0.469206
30.5426 18.6059 20.1279 -0.00335279 0.903002 -0.0394707
32.7283 19.3886 21.8362 -0.433206 0.433359 1.07222
32.6487 16.7071 20.6447 -1.02213 -0.917779 0.434007
10.1841 21.4304 18.7469 -1.73664 -1.1409 0.624271
12.2366 22.4522 22.1606 1.59947 -0.971534 0.635472
11.9655 23.6232 19.5434 -1.0358 -0.655248 -0.40187
9.61613 23.0038 21.0943 1.61021 -0.750283 2.19735
9.345 24.1748 18.4771 0.175246 0.0857138 -1.19789
12.8046 20.8788 19.8132 -0.0397505 0.728479 1.27673
14.586 23.0716 20.6097 -0.0946954 -1.25773 -0.800843
17.7745 20.9466 19.3287 0.0650764 -0.163486 1.11134
19.5559 23.1394 20.1252 -0.830135 2.11887 -2.42588
17.2065 22.52 21.6761 -1.86244 1.97222 0.318343
16.9354 23.691 19.0589 0.550644 2.35611 -2.92614
22.5807 21.1777 22.1033 -2.23242 -0.349568 -0.366734
22.3096 22.3486 19.4861 -1.88188 0.435394 -0.251079
21.7417 23.9221 21.8335 -0.391919 -0.504038 -1.50102
24.4953 23.1313 21.1945 -0.381667 -0.624716 -1.41114
24.2242 24.3023 18.5773 -0.414023 0.0343472 0.880292
24.4157 20.4498 20.003 -0.258306 1.45519 1.06841
26.6015 21.2325 21.7113 -1.6488 0.133629 -0.990423
26.3303 22.4035 19.0941 1.15472 2.47528 -0.617919
28.516 23.1862 20.8025 -1.6139 0.421676 -1.12488
28.4365 20.5047 19.611 1.9605 -1.47014 -1.69894
30.6222 21.2874 21.3193 -0.916488 -0.256254 0.860634
30.3511 22.4583 18.7021 1.1046 -0.831798 -1.28697
32.5368 23.241 20.4105 -1.06673 1.97502 0.576668
32.4572 20.5595 19.219 -2.43414 -2.86848 0.314805
11.3976 25.1966 21.8908 -0.43639 0.568997 -0.0113816
11.1264 26.3675 19.2736 -2.26648 0.179361 -0.668617
8.77707 25.7482 20.8245 0.365417 0.968649 -0.808287
10.5585 27.941 21.621 -0.396962 -1.42802 -0.817146
16.3675 25.2644 21.4062 0.00980633 -1.77482 -0.620902
16.0963 26.4353 18.789 -0.553137 0.523477 0.914028
13.747 25.816 20.3399 1.28249 0.0855769 -0.13938
15.5284 28.0087 21.1364 2.65753 -0.869596 1.33345
12.9079 28.5603 20.0701 -1.10212 -1.97447 -0.372468
18.988 24.7128 22.4726 -0.925796 -0.162851 1.74423
18.7169 25.8837 19.8554 0.198772 -0.566413 -0.182429
18.1489 27.4572 22.2028 1.44876 -1.63056 0.935995
17.8778 28.6281 19.5855 -0.323042 -0.687581 2.63626
20.6314 27.8374 18.9465 -0.991762 0.636923 -1.30933
21.4705 25.093 19.2163 0.790821 1.51388 -0.0550368
20.9026 26.6664 21.5637 0.644561 2.08737 -0.540824
23.6562 25.8757 20.9246 -2.91308 0.683631 -1.64151
23.3851 27.0467 18.3074 1.02272 -0.379718 0.793652
22.8172 28.6201 20.6548 1.09557 0.550852 2.36225
26.4099 25.085 20.2856 -1.118 0.399676 -0.508782
25.5708 27.8293 20.0158 4.3783 -0.932115 0.539174
28.5956 25.8677 21.9939 -1.33812 0.698171 -1.21778
28.3245 27.0386 19.3767 -0.997748 -1.33739 1.08025
27.7566 28.612 21.7241 -0.636698 0.987467 0.87681
30.4306 25.1398 19.8936 1.02555 1.29876 -0.100704
12.34 30.1338 22.4175 -1.44671 0.882867 0.767746
15.2573 29.1797 18.5192 -1.38056 0.434627 -0.201936
14.6893 30.7531 20.8666 -0.472191 0.421963 -0.563854
17.3099 30.2015 21.9329 0.341876 0.43764 -2.52554
17.0387 31.3725 19.3157 0.0517364 0.198869 1.0861
20.0635 29.4108 21.2939 0.0389903 0.785937 -0.842079
19.7924 30.5818 18.6767 0.909199 1.62744 0.379885
19.2244 32.1552 21.0241 1.15753 0.332874 -0.872371
21.9781 31.3644 20.385 1.06539 0.0961533 -1.79433
24.1638 32.1471 22.0933 -1.0124 -0.000343815 0.038128
25.0029 29.4028 22.3632 -1.37295 0.266858 0.399948
24.7318 30.5737 19.746 -0.410227 -0.168019 -0.176397
27.4854 29.783 19.1069 -0.771779 0.806027 0.725382
26.9175 31.3564 21.4543 0.417368 -0.155943 1.71802
15.9555 11.4797 23.2045 1.18134 0.662279 0.0922246
18.576 10.9281 24.2709 0.676717 -0.871337 -0.799136
21.3789 11.7946 24.3682 0.127269 0.359514 -0.810028
11.6823 14.1772 23.2695 0.176582 0.550994 -2.81012
15.2707 15.22 26.5335 0.683581 -0.631535 0.858697
14.3028 13.6256 24.3358 0.350403 -0.132725 1.12655
12.6502 15.7716 25.4672 1.15432 -0.751284 -0.297511
20.2406 15.2878 26.049 -0.346262 -0.847931 -0.33708
19.5438 12.5225 26.4685 -0.36227 -0.385787 0.137604
19.2727 13.6934 23.8513 1.05413 0.382454 0.783442
17.6201 15.8394 24.9826 -0.180664 -0.924643 0.0739607
16.9233 13.074 25.4022 0.181544 0.451268 -0.165985
16.6522 14.245 22.785 0.989451 -1.22538 -0.24705
23.0434 16.1543 26.1463 1.07548 -0.540959 -1.18158
22.3467 13.389 26.5658 0.0321745 -0.781177 1.29101
22.0756 14.5599 23.9486 0.706927 0.703263 1.05813
24.1817 12.6611 24.4655 0.837595 1.89918 0.539394
25.1495 14.2555 26.6631 0.339871 0.713625 0.377265
24.8784 15.4265 24.0459 1.47502 1.00609 0.379967
27.0641 16.2091 25.7543 0.150132 0.536947 -0.975108
26.9846 13.5277 24.5628 -0.549213 -0.812696 -0.546476
28.8991 15.4813 23.6539 0.0424135 -0.467463 -0.903748
10.9975 17.9175 26.5985 0.625959 -0.242076 0.82219
10.7263 19.0885 23.9813 0.0503055 -1.02893 0.54829
12.379 16.9425 22.85 0.513333 -1.64802 0.423887
10.0296 16.3231 24.4008 -0.566168 -0.0266765 1.50687
15.9674 17.9853 26.114 0.902159 -1.52993 -1.82195
15.6962 19.1563 23.4968 -1.33822 -0.573876 -2.01879
13.3469 18.5369 25.0476 -0.164234 -1.0412 -2.1142
14.9995 16.3909 23.9163 -2.41242 1.26573 0.458587
18.3168 18.6047 24.5631 0.775818 -0.244717 -0.195191
19.9694 16.4587 23.4318 -0.0459777 0.882828 -0.942284
20.9373 18.0531 25.6294 1.79002 -0.750319 -0.383901
20.6661 19.224 23.0122 -0.221976 1.65246 -1.58716
22.8519 20.0067 24.7205 -2.85328 -1.78776 -0.333104
22.7723 17.3253 23.5291 0.784988 2.01692 -0.349862
24.6869 19.2789 22.6202 -1.24623 -0.221995 2.09294
24.958 18.1079 25.2374 -0.389729 -1.04498 0.781599
26.8726 20.0616 24.3285 -0.308222 -0.564464 0.352287
26.793 17.3801 23.1371 -0.447803 -2.27191 -0.891083
28.9787 18.1628 24.8454 -0.175147 0.785955 1.16066
30.8933 20.1164 23.9365 1.16114 -0.41997 1.33266
30.8137 17.4349 22.7451 -0.377793 -1.12679 -0.487517
12.5078 21.2813 24.7778 1.44251 2.02827 1.04618
10.1584 20.6619 26.3287 0.146711 -0.355549 1.37512
9.88727 21.8329 23.7115 1.39523 -0.0857013 3.41482
11.6687 24.0256 24.508 -0.861765 -0.65792 2.12923
9.31935 23.4063 26.0589 0.750088 0.174656 0.184399
9.04821 24.5772 23.4417 -0.431975 0.100569 -0.249282
15.1283 20.7297 25.8441 -2.1776 1.36427 -0.308541
14.8572 21.9006 23.2269 0.774137 -0.185324 0.122156
14.2892 23.4741 25.5743 -0.714948 -2.12603 -1.66594
20.0982 20.7975 25.3596 2.00824 -0.330003 0.483787
19.8271 21.9684 22.7424 0.823483 0.505842 -0.954564
17.4777 21.3491 24.2933 -1.70804 0.0592766 -1.07622
19.2591 23.5418 25.0898 -0.0396689 -0.201601 -0.392883
16.9098 22.9225 26.6406 -0.886186 -0.493798 -0.648141
16.6386 24.0934 24.0234 -1.56395 -1.34323 0.158994
22.0128 22.7511 24.4507 1.17419 0.543942 1.23424
24.1985 23.5338 26.1591 -0.924104 -1.2957 -1.12843
25.0376 20.7894 26.4289 -0.638694 1.45058 -0.548389
24.7664 21.9604 23.8117 0.578676 0.237578 -1.28992
26.9522 22.7431 25.52 -2.61114 0.570367 0.808626
26.681 23.914 22.9028 0.013857 0.222256 -1.5437
29.0583 20.8443 26.0369 0.0320258 0.155993 0.748663
28.7872 22.0152 23.4197 1.65658 1.65064 0.133878
30.9729 22.7979 25.128 -0.0603054 -0.40483 0.470028
30.7018 23.9689 22.5108 -0.108991 -1.39538 -0.953477
32.8079 22.0701 23.0277 -0.0725289 1.27203 2.15375
10.8297 26.77 24.2382 -0.738836 -2.20539 -0.894069
14.0181 24.645 22.9571 -1.38866 1.01267 -1.26163
16.0707 25.6668 26.3708 -0.712721 0.419049 1.61711
15.7995 26.8378 23.7536 0.386904 0.547537 -1.24325
13.4502 26.2184 25.3045 -1.17687 -1.37909 0.0755009
13.179 27.3894 22.6873 -0.437804 2.53115 -0.357869
15.2316 28.4112 26.101 0.684207 -1.60804 -0.894369
18.4201 26.2862 24.82 2.09183 -1.27461 2.24563
20.6058 27.0689 26.5283 -1.48953 1.73087 -0.139725
20.3347 28.2398 23.9111 -1.92397 0.34201 0.485796
21.1737 25.4955 24.1809 0.686431 -1.21242 0.375718
23.9274 24.7047 23.5419 1.6407 -0.95807 0.706805
23.3594 26.2782 25.8892 2.47516 -0.405058 0.457898
23.0883 27.4491 23.272 0.836368 0.262402 -2.04878
26.1131 25.4874 25.2502 -1.87089 1.7347 0.531036
25.842 26.6584 22.633 0.66538 -0.41287 -0.874599
25.274 28.2318 24.9804 -1.01335 -0.106919 1.22749
28.0277 27.4411 24.3413 0.910451 0.954221 -0.789659
28.8668 24.6967 24.6111 -1.84472 -0.48175 0.221837
14.9605 29.5822 23.4838 1.56152 -0.217566 -0.694029
12.6111 28.9628 25.0347 0.108503 1.56495 -0.207633
17.581 29.0306 24.5501 -0.0379886 0.869221 0.735502
19.7667 29.8133 26.2585 0.0699475 0.551398 -0.146148
19.4956 30.9842 23.6413 0.755695 0.874138 -0.246248
22.5204 29.0225 25.6194 0.832197 0.434783 -1.09206
22.2492 30.1935 23.0022 0.13649 2.32797 -1.88528
21.6813 31.7669 25.3496 2.11916 -0.929313 -0.707896
21.4102 32.9379 22.7324 -0.152697 -1.07219 0.8069
24.435 30.9762 24.7105 0.628165 -0.0643996 0.152569
27.1886 30.1854 24.0715 -0.236923 0.209088 -1.04112
20.5117 14.1168 28.6662 -0.54683 0.261354 1.96672
17.8912 14.6684 27.5998 -0.393949 1.97974 0.0238702
21.4795 15.7112 30.8638 1.01476 0.407487 0.912123
23.3145 14.9833 28.7635 -0.229118 0.204358 1.57107
16.2385 16.8144 28.7312 -1.48945 -0.577343 -0.747249
13.618 17.3659 27.6648 1.44584 2.06429 0.501671
15.3994 19.5587 28.4613 -1.2457 -0.187876 0.522005
12.7789 20.1103 27.395 0.580567 0.781329 -0.715937
18.859 16.2628 29.7975 -0.105484 0.53494 0.096499
18.5879 17.4337 27.1803 -1.47602 -0.38465 0.421594
20.6405 18.4556 30.594 0.806916 -0.77395 1.06182
20.3693 19.6265 27.9768 -0.101275 -0.524911 0.438191
18.02 19.0071 29.5277 0.36112 0.513686 1.48302
17.7488 20.1781 26.9105 -0.238752 -0.620061 -0.707901
21.2084 16.8821 28.2466 0.841234 0.183638 -0.109819
23.3941 17.6648 29.9549 -0.0308246 0.279128 1.17945
23.123 18.8358 27.3377 -0.529289 -1.23231 -0.0763403
25.3087 19.6185 29.0461 -1.65384 0.906355 1.41396
25.2291 16.937 27.8546 0.00436754 -0.404199 -0.529282
27.1437 18.8906 26.9457 -0.503947 1.68771 -0.0800914
11.9399 22.8547 27.1252 -1.79005 0.16553 -1.62763
14.5604 22.3031 28.1915 0.307793 -0.00897958 4.40387e-05
16.3418 24.4959 28.988 -0.627747 2.49343 0.586518
19.8014 21.1999 30.3242 1.65487 -0.551836 -0.401464
19.5303 22.3709 27.707 0.12309 -1.35158 0.710399
17.1809 21.7515 29.2579 -0.676224 1.4641 -0.75232
18.9623 23.9443 30.0544 1.19031 1.91259 -0.470287
22.5551 20.4092 29.6851 0.895351 -0.179338 0.168126
22.2839 21.5802 27.0679 0.177617 1.21603 0.69054
21.716 23.1536 29.4153 -0.0471201 1.66742 2.02445
21.4449 24.3245 26.7981 0.669609 -0.280842 0.354203
24.4697 22.3628 28.7763 -0.252898 -1.37136 1.35517
27.2233 21.5721 28.1372 0.444248 0.216425 0.25618
26.3842 24.3165 27.8674 -0.0265488 0.954288 -0.732068
29.1379 23.5257 27.2283 1.08833 0.478193 0.887939
11.1008 25.5991 26.8554 -0.725234 0.0177033 -1.7687
13.7213 25.0475 27.9217 -0.179956 0.645552 -1.60775
15.5028 27.2403 28.7182 -0.103818 -2.25075 -0.419074
12.8822 27.7918 27.6519 -0.772858 -2.61527 -1.70566
18.6912 25.1153 27.4372 -0.16854 -1.70752 -0.295392
18.1233 26.6887 29.7845 -2.79539 -0.63528 0.389082
17.8521 27.8596 27.1673 -0.054693 2.67259 -0.347634
20.0379 28.6423 28.8757 -0.345407 3.46094 -0.569995
20.8769 25.8979 29.1455 2.06812 1.19223 0.193254
23.6306 25.1072 28.5064 1.19745 -0.19575 -0.209006
22.7915 27.8516 28.2366 -0.472184 -0.229617 -0.90432
25.5452 27.0608 27.5976 1.71394 -1.22611 0.578501
28.2988 26.2701 26.9585 0.344011 -1.54381 -1.19098
21.9524 30.596 27.9668 0.814916 -1.2556 -0.424984
24.7061 29.8052 27.3277 2.40432 -1.63265 -1.78487
27.4598 29.0145 26.6887 -0.662117 1.57963 -0.674501
ITEM: TIMESTEP
1000
ITEM: NUMBER OF ATOMS
434
ITEM: BOX BOUNDS ss ss ss
8.5154354192183614e+00 3.2811995296279413e+01
7.8739520951687423e+00 3.2941934503163502e+01
9.9221072460854973e+00 3.0867893285540394e+01
ITEM: ATOMS x y z vx vy vz
23.2198 11.8386 12.9074 1.26406 -0.468231 -1.36078
20.5216 10.8131 12.7768 0.594258 1.87628 -0.15927
25.8872 12.4313 13.1136 0.342694 0.188682 1.37809
16.451 14.449 11.7191 0.917072 -0.54256 -0.257824
14.7974 16.4224 12.609 1.69971 1.10008 0.412795
14.3289 13.7571 13.1274 0.353008 -1.01154 -1.1589
17.4616 15.8571 13.6625 1.09309 0.906883 2.58613
19.2272 15.3391 11.6745 1.77628 1.99347 1.72371
18.6418 12.7161 12.0281 -0.441252 -0.106326 -0.429195
21.9738 15.9911 11.5668 0.334794 -1.10433 -1.23166
24.0416 14.2089 12.2282 -1.90993 0.60092 -0.956617
21.3012 13.252 12.0271 0.516213 0.0742499 1.14253
26.7422 15.0914 12.488 -0.127772 2.47096 0.643546
15.5967 19.1772 12.117 -0.250844 0.755718 0.100941
13.3344 18.3901 13.8102 0.857214 1.01236 1.64102
18.0388 18.5902 13.2195 1.66994 -1.42815 1.38844
17.8143 19.8596 10.6885 0.36918 -1.03643 -1.1769
20.3051 16.8633 13.6472 -0.938359 0.701129 -1.01226
19.787 18.087 11.1033 -0.810813 1.70904 -1.02052
17.2055 17.1211 11.2299 -1.1185 -2.23239 1.61936
23.6014 20.2597 13.4483 2.68176 -1.81365 -0.560941
20.7547 19.5955 13.2571 1.3434 0.549494 1.12552
22.9099 17.6957 13.9295 -0.700012 -1.46841 1.06051
22.5873 18.7082 11.2978 0.835535 -0.735015 1.88145
25.7861 18.3027 13.9487 -0.162054 0.542988 5.23197
25.4403 19.6378 11.6978 -0.425016 -1.08817 -0.31143
27.74 20.3845 13.2273 -1.7586 0.0983862 0.637909
27.726 17.6196 12.3428 -0.650607 0.0839169 -3.05883
24.6519 17.0191 11.7408 -1.18972 -1.01863 0.567513
29.6909 18.5038 13.9359 -1.33889 1.1208 -0.887495
14.7905 23.7347 13.0223 -0.484257 -1.1175 -1.45525
16.2676 21.8464 11.8569 1.51033 0.346177 -0.0239757
14.0051 21.1434 13.274 0.955887 -0.463726 1.88702
19.5716 23.9781 12.5443 -0.0517242 0.446917 -1.61856
17.2448 23.4523 13.9952 0.123023 -0.274467 0.00571006
17.0137 24.5233 11.3354 -1.11523 0.283241 0.247541
18.8135 21.3914 12.6508 0.504269 -0.552636 -1.1021
18.6655 22.6204 10.2339 0.662192 -0.403616 2.19026
21.6306 22.2288 12.799 1.10283 -0.235356 -0.465775
21.5223 23.3753 10.26 -0.251939 0.687758 0.817386
23.5511 24.0425 11.984 -0.270567 -0.450176 -1.0384
23.3701 21.2506 11.0155 -0.424966 -1.9467 1.42133
20.6683 20.7861 10.635 -0.109351 -0.732388 -1.79409
25.7544 22.2714 12.5414 -1.10911 1.00086 0.276252
16.5129 26.1592 13.3796 -0.371605 -1.15276 0.184203
19.3153 25.1538 9.89892 -0.817071 0.0225088 0.905208
18.7835 26.555 12.0115 -0.408577 -0.542908 1.56794
21.4074 25.9249 11.5499 -0.534271 0.63039 -0.403979
20.8575 27.5617 13.7286 -1.26552 2.06128 -0.181554
23.6003 26.6183 13.3463 -0.0104406 -0.0826555 0.880538
25.6444 24.7246 13.6473 -0.410038 -0.800693 -0.978419
12.2676 11.9091 17.3861 -1.33067 -0.973227 0.666582
17.1923 11.7627 16.8844 0.70802 0.557786 0.875511
19.1434 10.0746 17.4037 0.0379763 1.60849 -0.440061
18.65 11.2258 14.6566 -1.86726 -0.431898 -0.447241
21.8496 11.0262 17.3857 -0.276076 2.03368 0.822601
21.4959 12.1419 15.0058 0.990532 0.611867 2.17771
23.9156 9.36494 18.0274 0.440142 -0.206762 0.264475
23.5652 10.389 15.3935 -0.108906 0.767204 0.232834
21.2769 8.41017 17.9357 0.619593 -0.175257 0.956891
20.9413 9.52087 15.2524 0.28333 0.199163 0.0734402
24.469 11.9138 17.4942 -2.89423 2.16307 -0.47671
26.5532 10.29 18.1846 -0.0513563 -0.0108908 -1.89811
26.2519 11.0581 15.5019 -1.38151 -1.13421 -0.118038
12.6153 15.8668 14.3184 1.84303 0.138199 0.001366
12.261 13.0777 14.8188 -0.251609 -0.520183 -0.120341
10.7484 14.9808 16.0526 -0.932616 -2.09305 1.81325
15.6534 13.9237 18.0328 -0.844104 2.51972 -0.87394
15.188 15.0382 15.1607 2.74258 1.14255 1.08944
14.6926 12.4192 15.8186 1.86015 2.59629 1.38878
13.1158 14.6313 17.1026 -0.854148 -0.00318617 3.08418
20.3379 15.7432 16.3805 -2.6469 1.41832 0.295666
17.6584 14.5277 16.3218 0.924143 1.47233 0.236529
19.7222 12.8995 17.0163 0.441881 -0.198607 -0.500833
19.4721 14.0738 14.1783 1.17969 2.25891 2.97653
16.756 13.1054 13.991 0.279211 0.332377 0.590878
23.4246 16.3498 16.5083 -1.82339 1.77204 0.0928436
22.28 13.8464 17.0878 -0.272275 -0.474705 -0.103005
22.2349 14.8935 14.2449 -0.785487 1.07323 -0.696346
24.1988 13.1104 15.2149 -1.11823 1.69908 1.0249
28.2191 15.2641 17.4378 0.170335 0.329832 1.65766
25.4765 14.3767 17.213 -3.05108 -0.301361 -1.41073
25.0935 15.5991 14.4117 -0.755578 1.53906 0.714596
27.4246 12.628 17.6821 -1.0601 1.03895 1.60828
27.1586 13.7436 14.9861 -0.117794 -1.08126 0.72954
11.9715 19.1752 17.5807 0.841314 0.691625 -0.783209
11.5627 16.5814 18.2143 1.72514 0.718202 0.543281
10.9445 17.6237 15.4278 0.592749 -1.17101 0.565047
9.69852 19.7951 16.415 0.683135 2.89783 -0.0529338
9.04613 17.274 17.0943 -0.622632 1.83988 -1.33207
16.2917 16.6922 17.582 0.711172 0.849797 -1.00604
15.8177 17.8101 14.6379 0.431513 -1.05468 -0.720868
14.1659 19.9018 15.8442 -0.428656 1.0124 0.349464
13.7288 17.2389 16.5762 4.05697 0.625661 -1.41518
19.5003 18.8478 18.0401 0.272489 -0.482273 -0.663948
19.1111 20.0831 15.3533 0.889493 -0.696645 0.0082885
18.453 17.4066 15.7048 1.69767 -0.42886 0.929439
16.8327 19.4133 16.9344 -0.226698 -0.61812 0.406987
22.2753 19.7428 18.0814 0.713905 0.624865 -0.137472
24.0559 19.0957 16.0641 0.786946 -0.671778 0.231899
21.2661 18.3208 15.9756 0.406474 -0.394365 0.56491
26.134 19.6041 17.9206 -1.44939 0.385558 -2.08894
25.9396 17.1074 16.7163 -2.01836 0.695403 -0.26115
27.8891 19.0308 15.7158 -1.47159 1.02595 -0.335912
27.8652 16.4999 14.68 0.49777 1.82635 1.501
29.8872 19.7883 17.5818 -1.66336 0.682471 2.96358
29.8356 17.0992 16.3532 -0.161417 1.62713 0.286569
31.7617 17.8958 18.1904 -0.405055 -0.569132 1.23825
31.7844 19.0145 15.7411 -0.160845 0.0511547 -0.550415
12.6506 21.9192 17.191 1.52216 -2.3999 2.45038
12.6454 23.1404 14.4635 -1.60457 0.152592 1.7437
10.3916 22.5904 16.1223 1.13022 -1.27745 -2.26316
11.7409 20.5596 14.9987 -1.19697 0.0806098 2.06453
15.2274 21.4521 18.2476 -1.14418 0.683638 -0.0408211
14.8449 22.671 15.6019 -0.0456143 -2.66384 1.15552
16.4479 20.7333 14.3759 -0.87505 -0.535928 1.41473
14.5613 24.1921 17.7339 0.673417 -0.428454 -0.093449
20.1801 21.7197 17.6665 0.818631 -0.691623 3.00077
19.7886 22.8636 14.8928 0.0126364 0.0886466 -0.38681
17.3966 22.2504 16.5185 -1.73654 0.0146515 -0.302892
19.3886 24.3944 17.2118 -0.375747 1.07649 2.63496
22.0062 23.7945 16.5613 1.13979 1.16886 -0.249113
21.9119 21.0359 15.3938 -0.346041 0.104711 0.12198
24.1112 21.7722 17.101 0.689033 0.0442887 0.932285
23.8327 22.9272 14.5616 0.411516 -0.96036 -0.581787
25.9021 23.6644 16.3064 0.779899 0.817708 1.76518
25.8754 20.9618 15.0547 -3.78832 -0.644246 -0.321897
28.1878 24.4775 18.0925 -1.25247 -1.6664 -0.479429
27.9588 21.6978 16.9599 0.978007 0.996586 -0.34139
27.6687 23.0327 14.2494 1.11409 -1.43761 0.531445
29.9618 23.5914 16.1007 -0.771022 -0.408008 -0.541566
29.8351 20.9732 14.9163 -0.0576667 0.202306 0.766049
31.6254 24.2967 17.9883 0.200324 0.483921 -0.124097
31.9017 21.6314 16.6982 0.876771 0.549072 -1.16474
11.9223 24.6467 16.6962 0.982553 0.220324 2.09577
14.1248 25.4982 15.1118 0.470714 1.26946 -0.349286
15.8938 27.6272 15.6993 1.47076 -0.952487 0.369097
13.5531 26.778 17.4471 -0.3622 1.17067 0.181302
19.119 25.5358 14.7033 -0.324923 -0.694968 1.12874
16.6052 25.0936 16.2022 0.401993 0.504203 -1.00112
18.454 27.145 16.9976 -0.719751 0.671826 -0.077461
18.2532 28.1463 14.3669 -0.430516 0.0464777 1.2644
21.7132 24.8235 13.9665 -0.364467 -0.318082 -0.213938
21.1229 26.4222 16.3315 -1.20687 -0.0575577 0.907265
23.9972 25.4952 15.7475 0.397998 0.359038 2.60652