ITEM: TIMESTEP
0
ITEM: NUMBER OF ATOMS
45
ITEM: BOX BOUNDS ss ss ss
1.4799074601407860e+01 2.5925926360287782e+01
1.5835246478076261e+01 2.4860781243898206e+01
1.5762707419518916e+01 2.5303204588663984e+01
ITEM: ATOMS x y z vx vy vz
16.4838 17.9726 17.7122 -0.0276541 0.48782 0.108417
15.1821 17.7042 20.2238 0.892259 -0.868372 1.07105
17.2206 15.884 19.4731 2.18082 -0.442263 0.537458
20.0341 15.8393 19.8083 -0.884135 2.15025 -2.49794
18.8391 16.4209 17.2695 -0.631737 -0.130952 -0.18199
14.8032 20.0501 18.765 -2.36892 -0.536376 -0.553509
18.3828 18.7447 15.7668 -0.121487 0.0657508 1.69949
22.7784 16.4699 20.211 -0.253867 1.69391 -1.50683
24.185 17.6863 18.0357 -1.51152 -0.46696 0.686579
23.7499 19.9855 16.4768 0.972338 0.400778 -0.893345
25.2745 20.1322 18.9238 0.751535 -1.06122 1.97926
21.0431 19.4437 16.0591 0.382752 -2.1712 0.224812
21.5247 16.9815 17.7067 1.16309 1.56729 -1.87388
17.033 23.0406 17.5401 1.50373 0.398837 0.357276
19.0311 21.5056 16.1661 0.914795 -0.405733 -0.215841
19.6997 23.7208 17.7982 0.0291775 0.205046 1.19321
16.391 20.5408 16.4969 -0.45925 -1.47428 -0.189181
15.4413 22.5541 19.8752 -0.612094 0.214312 1.98304
18.0401 23.5793 20.18 -0.425787 -0.97066 -0.426357
25.5972 22.642 20.2574 0.872243 0.185442 0.042999
24.4042 22.4324 17.5067 1.9563 -0.896495 -0.289555
22.3188 24.3378 18.2004 1.10002 1.00966 0.32987
21.7518 22.1096 16.559 -2.96264 -2.05846 -0.341625
24.9624 24.8567 18.6875 -0.842267 -0.150933 -1.90254
18.2969 15.9366 22.035 0.369532 0.490152 -1.09928
18.9426 18.2464 23.5333 0.943314 -0.186873 0.837493
16.886 20.203 24.0302 1.02106 -0.446715 0.224261
15.4158 20.2243 21.5616 0.751105 2.0621 -0.487825
16.232 17.7855 22.8538 2.43595 -1.21301 -0.671118
21.6518 18.9117 23.9176 -1.60409 1.29627 1.02789
25.2534 17.8188 20.6036 0.370845 -0.022408 -0.203361
20.9881 16.5441 22.4111 -1.67393 -0.710395 -2.21423
23.6539 17.2366 22.7974 -2.11501 0.411431 -0.111282
24.3427 19.769 23.9821 -2.04773 -1.22279 1.38071
25.9218 20.335 21.7181 -0.147564 0.929249 -0.773808
17.6712 22.692 24.9284 -2.02439 1.44294 0.295837
19.6454 20.6727 24.7207 0.598973 0.0203236 0.576315
16.4105 22.7662 22.462 -0.0673456 -0.244704 1.05618
20.3365 23.3332 25.2991 -1.5245 0.417648 0.452053
19.1297 23.756 22.7608 1.0188 -0.601199 -1.32821
20.7564 24.2159 20.5459 1.05323 0.42585 0.962231
21.9428 24.1634 23.2217 -1.29915 1.07084 -1.06685
23.5321 24.5967 21.0495 -0.151936 -0.562064 0.506693
22.404 21.5456 24.8677 0.843859 0.601604 1.22237
24.1893 22.3881 22.7758 1.63128 -0.70343 0.0730432
ITEM: TIMESTEP
1000
ITEM: NUMBER OF ATOMS
45
ITEM: BOX BOUNDS ss ss ss
1.5737656497614649e+01 2.5725716264676532e+01
1.5632050543505100e+01 2.4361469436711367e+01
1.5421122531145313e+01 2.6052554884701856e+01
ITEM: ATOMS x y z vx vy vz
16.5656 17.4937 17.4518 0.542295 -1.06528 2.15669
16.2607 17.6025 20.3314 0.770923 -1.99369 1.33075
17.437 15.6609 19.2286 -1.40339 1.09255 1.27425
18.832 19.3774 19.0772 0.72478 -1.19537 -3.76785
19.3462 16.4506 18.2108 1.73675 5.66911 3.423
15.8362 19.4951 18.3349 3.72197 1.0962 -1.22619
18.6509 18.9996 16.4018 0.00327788 0.49515 -5.58701
22.1989 18.0888 20.0725 -3.48792 0.112271 -0.272624
23.3989 17.1557 17.8924 1.23438 0.863947 -1.48168
23.335 19.6035 17.1306 -0.080363 2.23557 4.43382
23.8563 20.3251 19.6228 -1.75971 -1.75581 -0.801338
20.8478 19.9543 15.4346 -0.969116 1.25619 0.665272
21.167 17.9756 17.0085 2.75075 -1.39245 -2.18205
18.1363 21.6734 17.7312 2.38741 2.34166 -4.8731
19.0237 21.5443 15.3868 -1.81135 -1.22471 -1.73123
19.4833 23.3836 18.845 0.940724 -1.60516 1.92928
16.5796 20.116 15.8562 -1.84657 1.78318 1.47575
15.894 21.7566 20.0712 5.22292 -2.14861 -2.77496
18.6234 22.8587 20.9584 1.56595 -0.851602 1.02911
25.5766 22.538 20.1604 1.6104 -0.0366575 -0.171485
24.347 22.0419 17.5951 -2.18489 -0.994262 -1.66039
22.1613 23.4271 18.5513 1.44948 -6.40865 -1.89765
21.1264 20.7321 18.2848 -3.59217 -1.45744 5.71483
24.6171 24.3318 18.3903 -2.29156 -1.11791 -2.82718
18.9867 17.3924 20.9981 -2.19754 4.56689 -1.80935
18.5744 17.4008 23.4338 -3.3328 1.80392 -6.45436
18.166 20.2371 23.909 5.48479 -0.0172843 3.43452
16.6034 19.9684 20.9904 -0.786412 -2.00756 -1.29214
15.8831 18.4583 22.8793 0.955562 -2.8663 -1.30928
20.6206 19.0455 24.3187 -2.37158 -1.47577 4.82826
24.7258 17.846 20.5473 -1.52944 3.55242 0.359819
20.2899 19.2387 21.7695 -1.35483 6.91029 6.04343
23.1188 19.0246 22.2661 -0.919289 -0.345194 1.96802
24.7841 20.0531 24.3635 -0.206618 3.0211 -1.6527
25.6568 19.6286 21.6599 -2.70305 0.930661 0.687531
18.1835 22.7633 23.8409 1.75457 -3.10797 -6.28142
20.0238 21.4166 26.0377 3.21183 0.386275 -1.35652
16.034 22.0769 22.7513 -0.869882 -2.37743 3.01433
19.9725 23.7355 25.3398 0.854784 -0.186634 3.33766
20.8721 21.485 22.9746 -0.0274306 2.14086 1.2161
21.3838 23.6013 20.7903 -4.30577 -2.40672 2.45815
21.577 24.0802 23.5529 2.75407 -1.22736 -2.74565
23.5782 24.2256 20.8557 3.31196 0.962785 0.790119
22.3538 21.7864 24.7616 0.185654 -2.60751 2.42139
23.0854 21.7245 21.7062 -3.14353 0.652263 0.164073
ITEM: TIMESTEP
2000
ITEM: NUMBER OF ATOMS
45
ITEM: BOX BOUNDS ss ss ss
1.5423540926583664e+01 2.5102325007546852e+01
1.5390478541601350e+01 2.4499499084415987e+01
1.3699058401228605e+01 2.6243949234014973e+01
ITEM: ATOMS x y z vx vy vz
16.7262 17.9314 16.9152 -0.440563 6.0351 1.58765
17.5658 15.1783 18.5677 0.0578579 -0.802028 0.81412
18.0776 18.5009 19.5581 -0.287201 -6.06348 -3.16506
19.6352 16.9377 17.7002 -2.81565 1.73501 -1.01651
15.466 18.8686 18.7951 0.7829 1.65576 -1.47609
18.8898 17.9957 15.7381 -0.550353 -0.624576 -0.68363
20.6527 18.1635 19.9935 -3.99315 1.29282 -0.496354
22.893 18.5646 18.5942 -4.54073 -2.06191 -1.58362
22.6569 20.7916 17.6335 2.70361 2.13409 -0.00332616
20.7534 19.3885 17.0806 0.589365 -2.073 3.50494
21.2201 18.1412 22.8356 -6.08756 -1.99888 2.65051
18.2791 22.0169 13.8072 -0.767682 -0.0658085 -0.712935
19.5617 20.6186 14.8554 5.75196 -3.41473 0.0873706
18.1193 22.5167 18.8205 -6.13152 -2.07182 -0.302088
18.1335 20.542 17.2866 0.511491 2.54211 6.09845
18.1814 22.6473 16.0701 -0.598307 -0.584197 -3.27928
22.612 19.856 20.5879 1.08704 1.51563 2.22014
20.7465 22.2458 17.0405 -1.45177 2.56195 -1.90976
24.6252 21.879 18.5049 -0.784095 1.30414 -2.85204
23.1042 23.3452 16.7903 -0.447436 1.2227 0.281879
22.027 23.106 18.9053 3.6785 1.05663 1.82258
20.1887 20.7658 19.2701 -4.94449 -4.93076 -5.96619
25.0786 24.0783 18.6926 -1.66077 0.649997 0.560204
15.931 16.5932 19.4464 3.66571 -5.11252 -3.33447
18.8189 16.109 20.304 0.125016 -0.374477 1.14279
18.7712 18.2427 23.9523 4.93026 0.0858241 -1.1545
17.2128 20.9214 20.6176 4.24373 5.12677 2.71936
16.5734 18.1235 21.3094 0.918096 -2.05255 -1.36131
20.8449 19.2941 25.6115 2.74501 1.70501 3.66783
19.1723 19.5861 21.5573 -3.27423 4.10791 -3.67641
23.2887 18.9292 24.9888 1.27333 2.687 5.36505
19.1165 22.0856 21.4311 0.900576 0.823021 -0.476416
18.3819 19.4188 26.2803 2.34507 0.668737 0.949058
19.2466 20.9881 24.0516 3.32059 -1.08001 0.777734
20.7461 22.1472 25.8935 -4.022 -0.244674 -4.36747
17.0248 19.9511 23.5144 -4.71174 0.565916 -1.40999
21.6761 23.0334 23.8092 4.27657 -5.16621 0.252586
21.754 20.7563 23.2387 4.02321 -2.59987 1.39821
24.3543 21.7417 23.464 -0.826062 2.07421 -2.25665
23.9979 19.2884 22.3652 -3.53194 -4.16675 3.88524
21.2112 23.9982 20.9354 -3.63062 0.723947 3.24519
24.076 24.2843 23.1532 -2.69465 -1.86632 0.396778
23.8839 24.6409 20.8771 5.54563 3.90763 -0.0793142
23.1716 21.2414 25.529 3.60032 -0.192001 1.0528
23.3273 22.3206 21.4018 1.11667 1.36467 -2.91706
ITEM: TIMESTEP
3000
ITEM: NUMBER OF ATOMS
45
ITEM: BOX BOUNDS ss ss ss
1.6383921687818361e+01 2.4551910974261798e+01
1.5572939547129517e+01 2.4580508243067225e+01
1.4029757103665258e+01 2.6460940746001373e+01
ITEM: ATOMS x y z vx vy vz
16.9989 17.6556 18.4048 5.56793 -1.67775 0.184694
19.837 16.0432 16.5935 2.55704 0.495979 -1.89564
18.4931 18.0671 16.159 -1.88291 2.52226 4.78595
21.4122 19.0388 17.1335 -0.828204 1.29545 2.26825
17.7459 20.6179 14.1693 -0.359218 -2.59716 3.26879
20.3386 20.5938 15.6411 -0.994006 -3.34499 -1.10668
17.5337 20.2578 16.5374 0.594399 3.12902 2.52845
18.633 22.8501 15.4921 4.5356 1.29232 -0.67434
22.6044 21.5095 19.5934 -1.33817 2.85384 0.665151
18.8158 24.6048 17.884 -7.78368 3.11507 0.835417
21.0167 22.9356 16.8471 -1.1856 -5.50114 -2.13355
19.1352 15.4507 19.1971 1.15376 -1.22029 1.78793
19.4425 18.119 18.8488 -1.26829 2.96136 -2.95118
17.2868 20.6295 19.3592 2.84286 0.227457 -0.0885962
16.8296 15.8167 20.4288 0.491714 -0.064058 1.8053
18.445 17.2081 21.3014 -1.56903 3.99279 -1.12191
16.3782 18.5308 20.7132 0.458268 0.202468 -0.843493
19.7934 20.1437 20.206 1.152 1.01752 1.75252
21.6374 16.7044 18.3113 -1.55612 1.33964 -1.85273
22.979 19.2614 18.2342 3.22992 -2.2644 -1.24993
22.3457 18.9503 20.6251 -0.583524 0.474961 0.892322
16.7647 22.5346 17.5378 -3.54217 -0.131904 0.0829725
19.23 21.948 18.0612 1.22241 -0.813776 -1.46848
18.809 23.2711 20.4916 -1.51383 3.26875 -3.36008
21.1395 21.9846 21.6901 4.16016 0.11099 4.17428
24.5396 22.2337 17.8275 -2.02903 1.92963 -5.14896
21.2656 23.7878 19.294 -2.64976 2.85908 -0.5989
23.3745 24.2364 17.2448 1.27251 -4.23473 1.57632
21.8603 24.3498 21.9761 0.443629 -2.82702 -1.00013
23.6262 24.3955 19.5523 -0.678361 -2.98611 2.41631
23.7004 22.2959 21.305 0.871218 2.48372 -1.53958
18.977 17.5947 24.067 2.21959 1.96434 0.27369
19.5909 19.2023 26.1844 2.90196 1.18639 3.96097
21.0832 17.258 21.6151 0.808326 1.22281 -2.39715
21.952 19.2142 26.8085 -2.68574 -1.24132 3.51654
23.8043 18.9194 25.1958 -1.41432 0.17726 -0.339734
21.3067 17.736 24.5899 -1.70109 -3.43399 0.858833
19.0809 23.0198 23.0965 4.6763 -0.316622 -3.94396
17.682 20.1975 21.9572 -1.72532 -0.621982 -5.37573
20.4087 21.4965 25.8713 1.33037 -1.50416 2.06406
21.8362 23.1203 24.164 3.9671 1.37989 2.40906
20.018 19.4509 22.9851 -1.92507 -3.53311 -2.89694
22.4698 20.6133 23.9026 -0.451671 -0.576498 0.662538
24.4671 22.5074 24.0757 -2.4874 -0.705403 1.62685
23.0862 21.4184 26.6014 -4.30457 -1.90658 -2.40949
ITEM: TIMESTEP
4000
ITEM: NUMBER OF ATOMS
45
ITEM: BOX BOUNDS ss ss ss
1.5596146357792698e+01 2.4984714200406088e+01
1.6193906865906349e+01 2.4310629278747616e+01
1.4474620621933919e+01 2.6370574609095243e+01
ITEM: ATOMS x y z vx vy vz
18.4754 18.0229 18.2854 0.361739 -2.41632 2.40753
20.7259 17.0173 17.8214 0.528118 -3.22466 0.601927
19.9312 19.6871 16.1979 0.98557 -3.18738 0.547535
22.2919 18.9616 17.3182 2.43272 -1.56723 -5.04166
23.4097 17.6057 19.6276 3.71471 -0.828528 2.49093
24.4734 19.9222 18.5971 1.84594 1.17352 1.81378
17.3582 20.3314 14.3849 -0.242253 -2.164 -1.52327
19.3078 22.1211 14.7808 0.13871 -1.08956 -0.710572
16.567 20.1092 17.0688 -0.857013 4.44574 -0.429249
16.7925 22.1024 15.8205 0.0413635 -1.27116 3.55985
18.5889 23.2706 17.1234 0.919123 -2.79417 4.44619
16.6018 22.3948 18.4957 -5.73207 -4.06955 -1.35624
18.5311 20.6776 18.9077 -0.925345 1.42074 2.4268
21.7444 21.2964 15.1058 -0.104364 -4.08133 -5.25324
24.0918 20.8382 16.0304 0.72094 2.15524 2.45457
20.8278 21.9343 17.2806 -0.523539 3.05732 1.96896
19.3345 16.5452 20.3679 -1.30199 -0.0689382 -5.19479
20.9275 19.1658 19.5364 1.25513 1.18895 -0.461054
17.0969 17.0112 20.6352 3.32701 3.62593 -3.58519
18.457 19.0816 20.968 0.992315 -0.404744 -1.0038
16.1978 19.2984 19.8237 -0.753519 4.78903 2.19068
22.9909 20.1464 21.6827 3.43051 -3.95205 -0.809685
21.5667 17.8134 21.6644 -0.3426 1.52742 1.36574
15.5736 21.2107 21.0529 0.440479 3.90222 4.15399
20.1592 21.3562 21.0302 -2.30703 2.67166 -0.23619
17.494 23.4894 20.6764 -0.996522 1.24273 2.42881
17.9016 21.4805 22.3724 -1.06984 1.61741 0.33756
22.6056 21.177 18.7779 1.93867 1.50304 -9.77709
25.1067 22.0749 21.8642 2.04923 1.11032 -0.931579
20.3757 23.326 19.2017 -1.76028 0.461675 3.31148
22.4294 22.9567 21.4241 -0.45021 0.951965 0.693649
24.1582 23.298 19.7001 1.16902 -1.10762 -0.00788329
24.4506 24.2737 22.3108 -1.01032 -1.15966 -0.318835
18.9905 17.4711 22.9399 0.581433 4.93613 -0.0646254
19.0468 18.0321 25.1386 3.0212 -0.379123 0.949962
19.7883 20.4419 23.4841 -1.26533 -3.93365 -2.50676
21.4393 18.0876 26.3567 -2.58185 -0.292133 -0.809284
23.2865 19.5967 25.9221 -3.2902 -3.01516 4.34378
20.5402 16.2123 24.3316 2.48719 0.0271716 1.59042
19.6142 23.5891 22.2619 0.197137 2.95975 -1.83827
18.9733 22.6724 24.3206 -3.11235 -0.669299 0.719201
22.3146 22.4015 23.8006 -3.45512 -1.61981 -3.73038
22.3126 17.9054 23.9113 -1.30695 -0.93242 -1.77222
23.9904 20.5486 23.9009 4.57434 -0.753348 -0.273287
20.9335 20.8183 25.4714 -3.7639 0.213865 2.83183
ITEM: TIMESTEP
5000
ITEM: NUMBER OF ATOMS
45
ITEM: BOX BOUNDS ss ss ss
1.5790858835926917e+01 2.4785579365017139e+01
1.6189164207424056e+01 2.4326042919326230e+01
1.5016406109653113e+01 2.5272723741855838e+01
ITEM: ATOMS x y z vx vy vz
19.7071 18.4241 16.3444 1.92668 -3.65644 -3.95853
20.8985 16.59 17.5466 -4.13311 -1.38197 3.83164
22.6556 19.1317 17.2807 -2.6017 0.156962 -1.91022
17.3987 19.8357 17.0379 1.6472 -3.22957 3.36564
19.3449 20.5822 15.0372 -1.17401 -1.38775 1.0105
16.0699 18.7319 18.7675 2.51228 -0.780515 -0.421989
18.5028 22.9723 15.3789 3.11821 1.26303 -3.24952
18.0732 24.1164 17.6048 0.437023 4.87489 -0.646972
21.8678 20.3568 15.0863 -1.56104 0.278703 1.37247
23.4985 21.5477 16.8357 -0.742324 -3.30812 -2.49795
20.6823 22.3582 16.603 0.195719 3.20816 -0.350684
23.1141 22.9495 19.0825 2.19029 1.64773 2.56341
18.343 16.7948 17.8721 4.4372 0.73308 1.4135
19.7808 16.1817 20.2321 -1.13677 -0.200929 -0.650931
17.4015 17.2961 20.7877 1.6207 -0.307549 2.12072
18.8905 18.9006 19.3769 0.213836 0.550233 -2.67949
17.0457 20.4419 20.7915 -0.636505 -0.855825 -2.41066
22.1047 18.8833 20.1924 -0.801665 2.88161 -3.95247
24.2915 19.4991 18.896 1.03593 -0.557639 2.76369
21.466 20.7194 18.6136 -1.91921 -2.46365 -2.79695
22.3815 21.6799 21.4404 -3.60656 -0.515386 1.66465
19.8448 18.7132 21.7027 -3.38307 2.81559 4.32575
15.8296 21.1424 17.9106 1.64244 -2.56169 -1.14076
18.8727 21.4494 18.3704 1.95984 0.270728 3.73702
15.7989 22.434 20.2368 -0.519674 0.463529 -0.414914
19.5105 21.3771 21.5635 -2.04622 -0.925579 -0.548031
17.9791 23.3439 20.4433 -0.059804 3.35368 -3.61166
20.5608 23.4689 20.3933 1.46417 3.80621 3.85203
20.3098 23.5908 23.1117 1.00222 -2.7679 1.4503
24.5811 18.8076 21.5859 -3.33945 -0.920053 -0.247233
22.622 24.4588 21.3644 1.01107 6.75466 -1.47727
24.737 21.781 20.6295 -2.01529 -5.20676 1.04329
24.758 23.3314 22.4651 -0.611333 -0.571932 2.01772
18.654 16.1432 22.5022 -3.53194 -5.32445 -1.90312
18.8149 17.1092 24.5364 -1.97349 0.615924 -0.908047
17.8392 18.7365 23.0323 1.11513 -1.1843 3.93669
23.7583 19.2782 25.1795 0.926047 2.88719 -1.52446
21.6079 21.3125 25.2763 -4.06006 -2.10964 0.324351
21.5894 16.923 23.7052 3.55668 -1.70233 -2.81766
22.2645 19.0209 22.9192 3.32908 -0.0632802 -3.61135
17.5559 22.9782 23.1002 0.914397 1.48187 2.41616
19.4172 21.4643 24.2191 -2.29619 1.65945 6.45154
22.6107 23.1566 23.8254 0.314132 2.15513 -2.84784
24.0474 20.8512 23.7127 1.42988 3.85597 -0.984614
20.6929 18.9093 25.1809 4.14924 -3.7311 -2.09771
ITEM: TIMESTEP
6000
ITEM: NUMBER OF ATOMS
45
ITEM: BOX BOUNDS ss ss ss
1.5674208136099613e+01 2.4879729619611833e+01
1.5094915831878913e+01 2.5147470638876705e+01
1.4712435368734340e+01 2.5197309613693715e+01
ITEM: ATOMS x y z vx vy vz
21.268 18.748 14.8526 0.399759 3.1641 2.32952
18.1367 18.1414 17.5072 0.719109 0.0431563 3.07202
16.2292 18.3689 19.7813 1.59667 -0.576617 3.01975
18.4083 16.2086 18.992 -1.20049 -2.3914 -1.01598
18.6851 18.7936 20.6178 -0.73451 2.35006 4.74195
20.3795 18.5648 18.6958 -0.807939 -2.18717 -4.12759
22.638 18.7286 16.6823 -3.72382 -1.50722 -2.84154
22.7087 18.2463 20.4548 4.66924 -0.163633 0.253695
24.4303 18.4061 18.6196 -0.681474 1.14235 3.84367
18.6803 22.5495 16.6375 3.10014 -5.07918 1.93773
19.9006 24.8948 15.7952 1.04162 4.99954 -0.255051
18.603 25.0989 17.7486 -1.61296 0.63161 -4.55149
16.6636 20.4421 18.651 1.00593 2.42457 0.327379
19.1882 20.8859 18.6747 -2.64826 3.18084 -3.1446
17.2286 23.0466 18.793 -0.814 1.7584 0.751445
17.4062 23.8592 21.5752 -0.404436 -3.01196 1.57501
20.7514 20.4948 16.4093 0.370508 -0.935351 2.72203
23.0847 21.133 16.563 1.80389 -0.750733 -2.90247
21.287 22.5727 17.8422 0.365726 1.40123 0.726293
23.589 23.0045 18.8002 -1.23046 -3.05638 -0.811585
22.3114 20.2577 18.9575 6.2059 1.22626 -0.756792
20.6762 16.6358 20.8466 -1.65904 -1.99532 1.77349
17.1156 16.3532 20.9787 1.30105 1.25729 0.124904
20.8967 19.2788 22.3567 -3.71171 1.49548 -0.444165
18.8968 15.2944 22.4296 2.18407 1.47806 -1.88737
18.9234 17.5192 23.0408 -0.756076 4.75496 -0.0530738
17.0466 19.7271 22.4425 -4.35859 3.09662 0.693021
24.8391 17.3507 20.9129 -0.761147 1.38787 1.41879
23.4759 19.9003 25.4816 -3.05194 -1.6402 3.72193
21.198 16.225 23.4619 0.730872 -0.938437 0.277854
23.4732 18.4781 23.0015 0.697908 -3.05232 -1.38795
21.0691 18.9664 24.5883 1.03675 1.63717 -3.97892
15.8295 20.9308 20.9887 2.05752 -0.808327 -0.299066
18.3872 21.7886 20.9307 -2.30698 -4.41062 -4.34707
19.6385 23.6115 22.4118 0.980754 -3.03225 1.05144
16.5806 22.5007 23.1932 3.55911 -0.102255 0.302846
19.3693 21.2484 23.3895 3.17818 -1.10407 -2.14132
20.999 21.8155 21.1975 -0.710802 4.44527 -0.0739707
19.6154 23.9333 19.4193 -2.15555 -1.13384 1.17453
21.8285 24.3256 20.8952 -4.33906 -3.97075 2.42497
24.7963 20.6568 20.4964 1.32513 -0.283037 -1.31288
23.3679 22.5737 21.3625 -2.17941 3.54015 -2.93808
21.8605 21.5854 24.4352 -0.201157 -0.249763 0.58044
22.3085 23.5102 23.5991 0.281211 -1.20749 -0.731342
24.0054 21.1194 23.2641 1.43877 -1.82663 1.15757
ITEM: TIMESTEP
7000
ITEM: NUMBER OF ATOMS
45
ITEM: BOX BOUNDS ss ss ss
1.5051437202030961e+01 2.6188971773015854e+01
1.5748993427562821e+01 2.4627988460002651e+01
1.5641721406900476e+01 2.4869560950287308e+01
ITEM: ATOMS x y z vx vy vz
17.9688 19.5315 17.8803 -1.70315 -1.75736 0.28015
16.2198 18.2945 19.8368 1.71057 1.58534 -0.945468
18.1138 16.9313 18.8796 -0.677307 0.8747 -0.478693
22.2895 17.8966 15.6512 -0.711873 -1.75193 1.84959
20.0766 17.7707 17.1165 -0.246043 -4.11037 1.1236
22.5808 17.168 18.2781 -0.677737 0.308597 4.7639
24.8825 18.3816 18.2374 -0.0524921 -1.71984 -2.84216
18.5436 21.8205 16.9808 -3.1446 1.76294 0.187221
19.8813 24.6113 18.6955 1.55347 -4.1218 3.81313
17.217 24.0474 17.1011 -2.66328 -2.14946 0.0886701
16.0195 22.2279 18.0515 1.4265 0.62024 1.76303
20.3672 20.7345 19.906 0.861489 2.05697 1.01727
16.4357 24.2257 19.5092 3.42427 0.357061 3.04921
18.6124 22.88 19.5961 4.73977 -2.58421 1.44495
20.9112 20.1935 16.6703 0.310122 3.30335 0.77262
22.9407 20.2009 16.6638 -1.82177 -2.18418 -0.701643
21.3406 22.8474 17.7523 1.31637 -0.476168 -2.66235
23.6461 22.3729 18.6758 -1.49073 4.60834 4.94779
22.9466 19.9901 19.4168 2.21723 -3.59165 3.36984
18.697 19.0131 20.9751 -2.21366 0.0783793 -1.13437
16.9133 16.6346 21.6089 2.15078 -0.994252 0.799543
19.341 15.7529 21.3273 -1.13875 0.0233664 -3.9183
18.5298 17.8214 23.5165 -1.05724 1.05359 -0.0308803
16.2395 19.3934 22.6297 2.7057 -3.42945 -2.3033
23.3939 17.483 20.7919 -1.29482 1.37109 -0.711925
20.8417 17.817 20.0012 -1.69489 0.274627 -2.96464
21.5524 19.0088 22.4453 -1.91822 -0.82931 0.152812
26.1836 18.5337 19.7851 -0.45036 4.24264 1.42758
22.7869 19.4184 24.5693 -0.357135 0.640787 0.575367
21.7216 16.4531 22.262 1.92093 -4.51807 -1.66465
24.4797 18.4202 23.0623 0.603097 1.49986 1.3797
20.4043 18.6422 24.8617 -2.40983 1.32246 -1.28556
17.1153 24.1301 21.9271 1.7563 1.27978 -1.26243
15.0444 22.7782 20.9571 -3.65643 0.177999 0.999586
17.4127 20.9979 20.7139 -0.112391 0.395507 -3.05502
19.7673 22.7717 21.6166 2.69127 -2.33029 -1.30163
16.8377 22.3628 23.3378 1.49003 0.471396 0.871156
18.945 20.6585 23.2112 -2.76322 2.19237 0.10292
22.687 21.6916 21.3701 3.85512 5.89282 -2.31298
22.0161 24.2671 19.8006 1.23508 0.443895 -4.47574
24.6423 20.0595 21.35 -3.33772 1.1141 -0.11612
23.9853 23.7961 21.546 0.778383 1.02599 0.494391
21.4035 21.5342 23.7146 -0.703542 -0.739846 0.853936
21.5609 24.5969 22.0954 -2.22767 0.192413 -0.270064
24.2792 21.6122 23.3991 1.77838 -1.88242 -1.69006
ITEM: TIMESTEP
8000
ITEM: NUMBER OF ATOMS
45
ITEM: BOX BOUNDS ss ss ss
1.5293170887580148e+01 2.5303280156152706e+01
1.6304274606037787e+01 2.5326833596592973e+01
1.6679157147057822e+01 2.4893895531095371e+01
ITEM: ATOMS x y z vx vy vz
16.8515 18.4936 18.4878 -4.76133 -3.44071 0.672811
15.2634 18.4804 20.4036 -1.45201 1.39003 1.37633
15.5371 16.3584 18.8024 -1.11863 1.73947 0.499122
18.8715 17.6362 17.4178 -0.154046 0.401869 0.201804
21.0281 18.7901 16.7532 2.23699 -5.99572 -2.44876
22.8969 17.9654 17.1729 2.14163 -0.88989 2.15076
22.9032 16.5168 19.6915 0.102505 -0.207985 1.61104
25.1737 18.2903 18.4933 3.32376 -0.832483 -0.857177
22.9058 20.4573 16.7893 3.32261 -2.69347 3.48884
23.0988 19.3301 19.4339 -0.861838 3.54475 2.87251
20.663 17.5728 19.6995 -2.21822 -0.876112 1.26826
25.2113 20.7406 18.8176 -2.41105 1.41934 -0.000550497
19.305 21.4156 17.0713 0.574728 4.75773 -2.81723
20.2157 25.2319 19.4202 -2.43587 -2.54175 0.801604
18.9815 24.1977 17.4841 -2.70087 -0.856556 4.08225
16.7634 22.545 18.2942 -0.0603747 5.04518 1.17239
17.357 24.5674 19.6333 1.24185 -0.982857 -1.2698
19.2833 22.6221 19.6717 1.13477 2.49374 -0.538757
19.913 20.058 19.0733 -2.86604 -1.75714 -1.82049
21.4468 22.9329 17.3022 -0.183284 0.374986 -0.898901
23.8008 22.9142 18.6914 5.10421 5.85986 -6.6712
22.5706 24.8208 19.3375 0.921597 2.43225 -1.79866
18.5107 19.1539 20.9329 -0.671848 2.01385 -0.998789
16.3721 16.7287 21.4912 -1.39848 -1.65567 0.569045
18.2523 16.5037 19.8164 -3.63712 -1.2944 0.782553
19.6769 16.4441 22.0179 4.17198 0.47754 -1.10329
16.5331 18.9814 22.7142 3.32776 -0.624366 2.40278
21.368 18.3488 24.4285 -2.63046 0.905035 -0.572592
24.8852 18.1768 21.0156 -0.594968 2.86867 1.86512
20.6923 19.9018 22.1633 0.201262 -3.89561 0.104191
22.5768 21.0665 24.9537 -0.497487 -1.94491 2.00351
21.9809 17.1717 22.0275 1.39406 0.0789981 -0.877853
23.4538 19.1229 23.0927 -1.67297 -2.49584 -0.100381
19.2502 24.8975 21.7685 1.47957 0.327075 1.5248
17.1163 22.9599 21.778 3.89483 1.69407 -0.483123
16.3153 20.8588 20.2672 -0.0416086 -0.230772 -0.00536825
19.5907 22.4756 22.1337 4.37835 0.661784 1.61842
17.7661 20.9435 23.3451 3.58717 -3.7085 -4.86006
18.9445 18.5926 23.8158 -0.76568 -5.53095 -1.67881
21.9064 21.8118 19.9347 -1.50338 -0.289441 2.97976
23.7287 20.6558 21.535 -1.3385 5.01301 1.12719
24.3342 23.4872 21.0964 -2.58906 -1.84209 -1.04618
20.0904 20.9643 24.6364 -2.08228 0.209564 -0.250926
22.2293 24.3408 21.8833 1.78204 1.20099 -2.8708
22.1593 22.2494 22.9849 -3.67427 -0.32257 -1.20539
ITEM: TIMESTEP
9000
ITEM: NUMBER OF ATOMS
45
ITEM: BOX BOUNDS ss ss ss
1.5559906661992386e+01 2.4520322906170520e+01
1.5371594441230190e+01 2.6061140765713827e+01
1.6140224185335658e+01 2.4882694968193412e+01
ITEM: ATOMS x y z vx vy vz
16.9778 19.3733 17.9663 0.409493 -1.96827 -2.8009
15.8528 19.0563 19.8099 2.40165 -0.0413558 -2.72524
16.6952 16.5472 19.3377 2.58718 2.05637 1.54857
18.847 17.1441 18.0062 0.654653 -1.82256 -1.97167
19.4983 19.9821 18.1959 3.03314 -1.05587 -0.774558
18.6338 15.5293 20.3767 -2.92888 1.78868 2.41507
21.8481 18.2074 17.2123 1.6961 4.11641 2.70855
23.9529 17.8517 16.1922 -3.30149 2.31698 0.942121
23.4871 16.9845 18.8824 -3.21517 3.34222 -0.548568
24.0873 19.1956 18.0371 -0.769139 1.57372 1.63634
22.2729 20.6177 16.537 -6.87231 3.00306 -2.16348
21.3558 19.1317 19.6521 4.52025 -1.33679 0.719439
20.9262 16.2946 19.5505 2.92847 -3.99851 1.14167
19.2895 22.4251 17.5718 -1.51886 3.55928 1.85058
20.3236 24.8436 19.2423 -0.348873 6.95917 0.533597
18.6093 24.4923 17.545 2.40186 -1.37392 2.04658
17.1345 23.3189 18.8837 3.17496 -1.46449 -0.0415346
18.0633 26.0059 20.0103 6.26405 -1.63495 -0.891922
19.7338 22.6001 20.3785 -0.211363 0.0418532 2.74995
17.369 21.0645 20.2008 -1.34509 1.56247 1.62653
24.0247 22.0476 20.3034 -3.61398 0.969027 2.51407
21.8743 21.5809 19.0578 -2.93224 -3.56263 -3.38867
23.9258 22.3877 17.3037 1.11076 -3.9881 3.39489
21.5713 23.1159 16.4674 -1.26461 -3.78204 -0.316395
21.6843 21.0353 21.4595 -0.798225 -0.927286 -2.19586
18.4579 18.5655 20.5925 -4.20776 -3.25271 -0.548381
17.0415 16.9972 22.0345 3.46741 -3.07932 -1.6388
19.9546 16.7424 22.1315 1.66191 0.797348 1.39496
16.6733 19.8773 22.454 0.447695 0.652444 -1.31401
18.3583 18.1416 24.0484 -0.864133 1.55749 0.176441
21.7533 16.5949 24.0965 3.28506 -0.497295 -2.66781
24.3745 19.6991 20.7145 -0.544197 1.76994 -2.25904
20.3703 19.3878 22.5241 -3.73247 -1.84918 1.91449
22.359 17.4707 21.5448 -1.38868 -2.67497 -0.903267
23.3532 18.7591 23.6084 -1.50417 0.25329 0.901404
19.9736 25.7234 21.7138 0.372301 -1.91166 -0.528802
17.8946 24.1746 21.4181 0.457979 -0.580151 1.41797
20.3466 23.2512 22.9315 -0.00468054 5.42531 -2.32496
18.5907 21.3952 22.3733 1.60306 0.956619 -2.23073
19.3198 21.069 24.8666 -0.104169 -1.05322 1.32171
20.7907 18.5323 25.092 0.780917 -0.832069 3.17246
23.6735 21.4842 22.8479 -1.20044 -0.520153 0.00581354
22.5218 24.1918 18.7154 1.2074 0.862998 -2.15617
22.3249 23.7638 21.1658 -0.76292 -1.51371 -1.56846
21.6046 21.1207 24.7205 -1.03246 1.1565 -0.173957
ITEM: TIMESTEP
10000
ITEM: NUMBER OF ATOMS
45
ITEM: BOX BOUNDS ss ss ss
1.6780068238303812e+01 2.4269107267463550e+01
1.4995689465085578e+01 2.6145281702523828e+01
1.5086183132132476e+01 2.5583210903407256e+01
ITEM: ATOMS x y z vx vy vz
18.5284 17.7956 17.6181 1.11072 -1.95787 -1.16887
16.8563 19.1832 19.8593 2.02216 0.291357 0.0607618
16.7063 16.6746 19.1042 -0.757982 4.29044 -2.40161
19.8645 15.6469 18.0327 2.05322 -1.04378 -1.09988
19.1835 20.0971 19.2402 0.58032 2.83732 3.6599
18.2521 14.8026 19.7581 0.039024 -0.963907 -1.88387
19.1884 17.6733 20.1043 -1.15904 -1.8471 -2.46434
21.055 17.8566 17.8468 2.45244 1.44372 0.417643
21.4506 20.027 16.3748 0.73791 -3.45141 6.40353
23.6805 17.6029 19.5064 -0.484588 3.35936 0.259742
23.4424 19.9346 18.5996 -3.17606 0.647988 0.355993
19.7868 21.0099 15.2301 -2.54652 -0.211409 0.302418
21.5319 19.2301 20.3954 -1.53617 -0.189003 0.266381
21.6529 16.1887 19.8774 1.86978 -2.76992 2.36005
24.0254 19.3132 21.1828 1.23554 -1.896 -0.240917
18.619 22.1724 17.2011 1.10365 -1.25847 -0.575335
20.0991 25.0976 17.3006 2.03924 0.636174 7.75918
17.6957 24.6031 19.1461 1.83625 -0.306903 2.21669
19.2015 26.3127 19.3964 2.29087 0.657283 0.912069
19.7493 23.4341 19.3501 -5.07066 2.24317 -1.54141
17.5813 22.0709 20.4317 -1.84471 -1.87875 3.03202
21.7169 25.9935 18.9611 2.80623 0.154121 -2.18754
24.1887 22.4332 19.4262 1.23703 -2.26434 1.44273
21.6568 21.5923 18.9616 0.890791 0.614836 1.96859
23.7446 21.7912 17.2352 -5.05651 -2.54222 -4.44571
21.1749 22.96 16.1087 -0.212132 3.40956 -2.77808
22.9724 24.1469 17.8588 -2.4951 0.228763 -2.03516
17.4241 16.9958 21.6503 2.76597 2.48956 -4.11184
19.9779 15.7737 22.1627 3.92873 1.88269 -1.79374
18.0339 19.6 22.0645 -3.7959 0.423313 -3.03734
18.4081 17.1894 24.1324 0.492005 -0.927422 -1.22086
20.8559 16.3977 24.506 1.70567 1.09095 4.5881
20.5457 18.6067 22.947 -0.765757 -0.0449531 -2.24057
22.5605 17.0958 22.0102 -3.54293 -4.45589 4.63397
23.0632 18.9407 23.8079 1.70224 -0.531865 1.01803
21.0428 18.9478 25.5659 2.51457 -0.393026 0.332861
21.0083 25.7099 21.5011 -2.63054 -4.38183 -3.78076
18.774 24.2621 21.7175 1.2802 -1.02088 -1.30674
18.0921 21.8599 23.3268 0.969554 0.304551 1.43373
18.6558 19.5511 25.1693 -0.988639 0.974914 0.663021
20.1359 21.3552 21.5076 -1.77123 4.47366 -2.06403
20.8288 23.7347 23.2275 -2.07326 3.41794 -0.74517
22.2306 21.4559 22.6607 -2.04249 -1.90215 -1.13159
22.3386 23.2417 21.1319 0.597011 -0.898257 1.12477
20.1936 21.4124 24.5781 1.68912 1.26567 -0.956846
ITEM: TIMESTEP
11000
ITEM: NUMBER OF ATOMS
45
ITEM: BOX BOUNDS ss ss ss
1.6483152945031325e+01 2.4580323189664941e+01
1.4926014812722087e+01 2.6279833129590411e+01
1.6040118747403568e+01 2.5381314416303145e+01
ITEM: ATOMS x y z vx vy vz
19.1866 18.2938 17.4866 -0.323969 -4.73273 -3.40516
17.3469 16.6827 18.6081 -0.16507 1.06888 2.81575
19.6967 15.8104 17.9402 0.250021 -2.5152 -1.43796
18.573 14.9973 20.1321 -3.49956 -1.03584 1.00385
19.4463 17.7357 20.0071 -1.159 1.65186 -0.101262
21.4646 17.5881 17.4448 0.705669 -0.353711 0.957087
23.1939 16.6642 19.2007 0.426112 -1.75263 0.133161
21.1799 15.8273 20.2142 -3.75029 0.12758 0.0597714
17.0644 19.4001 19.3836 1.67277 1.29795 2.03577
20.0065 20.2975 19.2509 -1.56821 2.67415 -3.4749
20.0929 21.1235 16.8959 0.106189 0.0766641 5.23749
17.801 22.3046 17.3681 -2.52233 -1.74262 -0.111306
22.2842 19.9541 17.6349 2.79372 1.9898 1.11954
24.326 19.0475 18.6709 -1.27643 -0.352458 -0.68481
25.0525 20.9305 20.1881 2.24733 -0.685902 0.707729
22.4547 22.1374 19.1895 1.34608 2.82622 -0.753771
21.9888 22.1042 16.0189 1.86091 5.37717 0.0951664
20.5427 26.3135 18.2692 0.373682 -2.45851 2.85441
16.9413 23.7737 19.2039 0.694473 -1.06031 -2.37412
18.3589 25.4145 18.4336 3.81194 -1.97775 -6.60945
19.8026 23.245 19.4364 2.24535 -7.23696 1.13384
22.568 25.553 20.1442 0.869753 2.95125 1.73444
19.7175 23.7105 16.8244 0.673239 4.16184 -3.39133
22.274 24.3925 17.4585 -0.381507 3.44625 -4.03501
17.2728 16.9263 21.1674 -1.78314 0.808218 -0.448092
19.4626 16.0085 22.4277 -0.117118 -1.86796 2.57991
18.5301 17.9249 23.9518 3.37083 -4.62954 2.78298
20.5921 17.0942 24.6826 1.49591 -2.27539 -1.20641
20.4779 18.7844 22.5401 0.419653 3.00433 -1.72849
22.3418 16.3099 22.75 2.15489 -0.937761 -0.205902
17.8946 21.6597 20.5063 -3.37914 0.177748 -0.227447
17.4803 19.6803 22.1909 -0.48449 0.470794 1.58435
17.8207 22.4143 22.9783 -1.49776 0.443423 2.29891
19.0983 20.4224 23.9112 1.97585 1.06915 -2.30193
20.3788 21.8033 21.9079 0.459808 3.04236 0.881435
22.1451 21.4 24.1932 -1.46323 2.72798 -0.0857401
21.8989 18.9086 20.1575 0.367163 0.0398038 -0.670255
24.3657 18.499 21.1823 0.0607724 -0.685751 -1.71974
22.8876 18.9321 23.6914 0.394543 -2.10292 0.598779
20.6733 19.4672 25.3215 -2.39441 2.00525 1.79968
22.9608 20.7576 21.8616 0.434997 -0.62765 -2.49686
17.9647 24.527 21.2998 -2.2002 0.410865 3.14135
20.3332 25.4727 20.7582 -0.348998 -0.327109 1.19487
19.7095 24.0072 23.216 -4.16518 -0.659936 0.559511
22.1223 23.4738 21.6744 1.26838 -1.83092 0.160183
ITEM: TIMESTEP
12000
ITEM: NUMBER OF ATOMS
45
ITEM: BOX BOUNDS ss ss ss
1.6525226062551106e+01 2.4752997997681202e+01