ITEM: TIMESTEP
0
ITEM: NUMBER OF ATOMS
459
ITEM: BOX BOUNDS ss ss ss
7.8037767199047172e+00 3.2986223280095246e+01
7.7362582550777192e+00 3.3053741744922284e+01
7.5923807257561551e+00 3.3197619274243820e+01
ITEM: ATOMS x y z vx vy vz
21.5866 11.0523 11.6097 0.498685 0.868132 0.276502
18.8595 15.2282 11.5196 0.128487 -0.975937 -0.282231
21.1323 13.7134 10.6064 1.43059 -0.349629 0.439643
22.8802 15.8648 11.3879 0.675419 -0.17867 0.968738
16.1324 19.4041 11.4294 -0.564784 2.4374 0.629336
18.4053 17.8893 10.5163 -2.68663 -0.661073 0.408238
20.1531 20.0407 11.2977 0.00386622 2.64699 -0.363582
20.2239 19.0356 8.59976 -1.32207 0.542557 -1.28295
20.6781 16.3745 9.60307 2.16591 1.15927 0.206296
22.426 18.5259 10.3846 -1.41725 1.70897 -0.163371
13.4053 23.58 11.3393 1.19386 -0.330226 -0.255926
15.6782 22.0652 10.4261 -1.05703 0.317324 0.421791
17.426 24.2166 11.2076 -0.0445674 0.848508 -0.814104
17.951 20.5504 9.51295 4.35171 -1.10137 0.46629
19.6989 22.7018 10.2944 1.5395 0.278414 2.00707
17.4968 23.2115 8.50965 1.74298 -0.295189 -0.530155
19.7697 21.6967 7.59646 1.87072 -1.65327 -1.74328
24.1738 20.6774 11.166 -1.88944 0.33872 0.421705
21.9717 21.187 9.38125 -1.02249 -1.47185 0.968079
23.7196 23.3385 10.1627 -0.804646 -0.0554492 0.261708
21.5175 23.8481 8.37795 0.51548 -0.12521 1.73808
15.2239 24.7263 9.42284 1.57012 1.43983 0.0532612
16.9718 26.8777 10.2043 -1.727 0.228857 -1.23856
19.2447 25.3629 9.29114 -0.277382 0.644819 1.08326
21.4467 24.8533 11.0759 1.04671 0.407486 0.762381
23.1946 27.0047 11.8574 -1.91429 -0.535527 0.0608988
20.9925 27.5144 10.0726 1.27717 -0.68805 -1.05702
23.2654 25.9996 9.15944 -0.212071 -0.431386 -0.725971
25.4675 25.4899 10.9442 -0.0405404 0.132792 0.62319
18.7197 29.0292 10.9858 1.29306 -1.80614 1.31934
17.9493 8.75967 15.4427 -0.426205 0.387467 -1.82072
17.4951 11.4208 14.4394 -0.0344328 2.21331 0.279548
19.7679 9.90599 13.5262 -0.675721 -0.654031 0.363216
21.97 9.39632 15.311 -0.0616784 -0.565314 -0.550924
23.7179 11.5478 16.0924 -1.56466 0.124526 -0.95579
23.7886 10.5426 13.3945 0.0808216 -0.280981 2.1109
25.9907 10.033 15.1793 0.308717 -1.24279 0.807093
15.2222 12.9356 15.3525 0.773332 0.606025 1.21231
14.768 15.5967 14.3492 -0.820964 -1.39719 -1.08266
19.2429 13.5722 15.2208 -1.02201 -1.26055 1.11514
17.0408 14.0819 13.436 0.109288 0.0947844 -1.51089
19.3137 12.5671 12.5229 1.22578 2.33198 -0.566622
20.9908 15.7236 16.0023 0.52354 -0.674467 0.817788
21.5158 12.0574 14.3077 -0.94692 -0.344447 0.902485
23.2636 14.2089 15.0891 -0.295068 -1.50822 0.383553
21.0616 14.7185 13.3043 -1.42957 -0.118989 -3.14214
23.3344 13.2037 12.3912 -0.40825 -2.47197 -2.43059
27.7386 12.1844 15.9607 0.10714 -0.0841606 -0.329855
25.5365 12.6941 14.1759 0.877492 0.534601 0.942848
27.2844 14.8455 14.9574 -1.13579 -0.0357318 0.616384
25.0823 15.3552 13.1726 -0.523005 -0.812945 -0.480235
12.4951 17.1115 15.2624 0.0566124 1.57435 2.07245
14.243 19.2629 16.0439 0.731074 -0.353109 0.37076
12.0409 19.7726 14.2591 1.40883 -0.685144 -2.01109
14.3138 18.2578 13.3459 0.113877 0.0963394 0.706083
16.5158 17.7481 15.1307 1.69433 -1.04771 0.707389
18.2637 19.8995 15.9122 -2.88106 0.600715 -1.66971
18.7887 16.2333 14.2175 -1.05759 0.284675 -0.518021
16.5866 16.743 12.4328 -0.388354 0.140355 -0.503989
18.3345 18.8944 13.2142 0.15824 0.420303 -0.0332654
20.5366 18.3848 14.999 0.504403 -1.11555 1.10182
22.8094 16.87 14.0858 1.29859 0.0582244 1.79604
24.5573 19.0214 14.8673 0.154028 0.551567 -0.967295
20.6073 17.3796 12.3011 0.6978 -0.616151 0.988822
22.3552 19.5311 13.0825 -2.42551 1.28684 0.552287
25.0115 16.3603 15.8706 -0.0459944 -1.60012 -0.256532
26.8301 17.5066 13.9541 -0.419462 -2.50667 1.21546
28.578 19.658 14.7356 -0.213714 -0.427207 1.12883
24.628 18.0163 12.1694 0.0625664 -0.949271 0.657919
26.3759 20.1677 12.9508 -1.38579 -1.26395 -0.554951
29.0322 16.9969 15.7389 -2.10349 1.5235 -0.248897
9.76805 21.2874 15.1723 0.308883 0.627721 0.667577
11.5159 23.4388 15.9538 0.748938 1.74232 0.598008
11.5867 22.4337 13.2558 0.56419 0.696084 -0.619141
13.7888 21.924 15.0406 0.0530412 0.247747 -0.711164
15.5366 24.0754 15.8221 1.29534 0.0209498 -1.24678
16.0616 20.4092 14.1274 0.611979 -0.939218 -0.665357
13.3345 24.5851 14.0373 1.3833 1.9513 1.09807
13.8595 20.9189 12.3426 0.329786 -0.0731595 0.0695971
15.6074 23.0703 13.1241 -0.7284 -2.16874 -1.62785
17.8095 22.5606 14.9089 -1.05428 0.863268 1.6894
20.0823 21.0459 13.9957 0.923521 -1.23661 -0.152006
17.8803 21.5555 12.2109 -0.688882 0.384322 1.61789
19.6281 23.707 12.9924 0.366975 0.525472 -1.26924
22.2844 20.5362 15.7805 1.21246 -1.02541 -0.771409
21.8302 23.1973 14.7772 -0.509981 -0.587027 1.73613
24.103 21.6825 13.864 -0.749135 1.34425 0.446418
21.901 22.1922 12.0792 -0.0189514 0.863859 0.677314
23.6488 24.3436 12.8607 0.319967 0.447137 -2.60893
26.3051 21.1728 15.6488 -0.481018 -2.23311 -0.921592
25.8509 23.8339 14.6455 0.0771575 1.66176 -0.582277
28.1238 22.3191 13.7323 -1.79628 -1.03447 0.657616
25.9217 22.8288 11.9475 0.0263664 0.794072 -0.938956
30.3258 21.8095 15.5171 -0.138588 -0.770425 1.36915
29.8716 24.4706 14.5138 -0.417651 0.641789 0.245983
15.0824 26.7365 14.8188 1.50019 -1.02357 0.650982
15.1532 25.7314 12.1208 2.42711 -0.525548 0.370369
19.5573 24.7121 15.6904 -0.709399 0.512612 1.93567
17.3552 25.2217 13.9056 -1.43893 0.970815 -1.26311
19.1031 27.3732 14.6871 1.18229 0.0605241 -0.183259
16.901 27.8829 12.9023 0.755283 0.152461 -2.16447
19.1739 26.3681 11.9891 -1.92113 1.63903 0.406053
23.578 25.3487 15.5587 -0.783038 -0.220264 0.541495
21.376 25.8584 13.7739 2.58924 -0.872938 1.25935
23.1238 28.0098 14.5554 -1.47247 0.439336 -0.307998
20.9217 28.5195 12.7706 0.565734 -0.486957 -1.03206
27.5988 25.9854 15.427 -0.863798 -2.13602 -0.406217
25.3967 26.495 13.6422 -0.00849139 0.222469 0.950552
27.6695 24.9802 12.729 0.853706 1.64544 0.240223
16.8302 28.888 15.6003 -1.1642 -0.695361 -0.420284
18.6489 30.0343 13.6838 0.974011 0.452946 2.19126
20.851 29.5246 15.4686 0.934278 1.50521 0.844116
13.4036 11.7893 17.269 -1.65686 -1.25635 1.28402
15.6764 10.2745 16.3558 0.403589 -1.94837 0.299161
15.6057 11.2796 19.0538 1.25986 0.64232 0.337376
19.6971 10.9111 16.2241 -1.33265 -0.520693 -0.557974
17.8785 9.7648 18.1406 -3.17012 -1.09212 0.489075
19.6264 11.9162 18.9221 1.66494 1.65896 -1.52485
20.1514 8.25001 17.2274 1.57657 -0.01591 3.61997
20.0806 9.25513 19.9254 -0.129998 -0.604058 0.551524
21.8992 10.4014 18.0089 1.75125 -0.664719 2.36928
24.1721 8.88665 17.0957 -0.955923 -1.25752 0.207615
22.3535 7.74034 19.0122 -0.772628 0.268455 -1.68393
24.1013 9.89177 19.7937 0.13854 -1.72136 -0.882838
25.9199 11.0381 17.8772 -0.25921 2.65054 -0.262049
8.85786 14.8188 19.0954 0.803434 -0.13179 0.669801
11.1307 13.3041 18.1822 -0.726341 1.97238 -2.29778
10.6765 15.9652 17.1789 0.68812 -0.779335 2.39135
12.8786 15.4555 18.9637 -0.587026 -0.068241 -0.121255
15.1514 13.9407 18.0505 1.18369 -0.462387 0.393822
12.9494 14.4504 16.2657 0.4082 0.597325 0.50686
13.3328 12.7944 19.967 -0.368293 -2.35325 1.08319
16.8993 16.0921 18.832 -1.16803 0.335616 0.539444
17.4243 12.4259 17.1373 1.13892 1.53977 -1.75157
19.1721 14.5773 17.9188 -0.456062 0.298368 2.09879
16.9701 15.087 16.134 1.13357 -0.161518 -0.00954769
17.3535 13.431 19.8353 -0.500346 0.640853 0.540004
21.445 13.0625 17.0056 1.01013 -1.45637 -1.66645
23.1929 15.214 17.7871 -1.26092 -0.490907 -1.90051
21.3742 14.0677 19.7036 1.23952 -0.637523 -0.115532
23.6471 12.5529 18.7904 0.282462 0.181165 -1.05064
25.4657 13.6992 16.8739 -1.75791 2.04314 0.395309
27.2136 15.8506 17.6554 0.606252 2.43868 -2.87444
25.3949 14.7043 19.5719 -1.64652 0.349511 -1.51726
27.6678 13.1895 18.6587 -0.960378 -1.82424 -0.314583
29.4864 14.3358 16.7422 -0.814968 -0.0323972 1.76089
29.4157 15.341 19.4402 0.0626138 -2.01059 -0.39958
10.6057 16.9703 19.8769 0.100731 -0.285788 1.21973
8.40364 17.48 18.0921 -0.255064 -0.583765 0.0915459
10.1515 19.6314 18.8736 0.598312 -1.00518 1.02146
7.94941 20.1411 17.0888 0.549205 0.446071 -1.49893
10.2223 18.6263 16.1756 -0.785803 0.25509 0.0969156
14.6264 17.6069 19.7452 1.00363 0.482933 1.15815
12.4243 18.1166 17.9604 0.0544442 -0.495952 -0.456241
14.1722 20.268 18.7419 -0.377563 -1.12105 0.811506
14.6972 16.6018 17.0472 1.49944 0.901809 0.471559
18.6471 18.2436 19.6135 -0.178568 0.235739 1.63944
16.4451 18.7532 17.8287 -0.970892 -0.513843 1.96497
18.7179 17.2384 16.9155 -0.42933 0.161481 -0.050527
20.92 16.7288 18.7003 -0.295738 -0.793401 -0.233973
22.6679 18.8802 19.4818 -0.0360871 0.943736 -0.874797
20.4658 19.3899 17.697 1.32353 -1.20548 -2.15155
22.7386 17.8751 16.7838 -1.11171 -0.536653 0.352144
24.4865 20.0265 17.5653 -0.452231 -0.096312 2.84398
24.9407 17.3654 18.5686 0.21039 0.856147 -1.07948
26.6886 19.5168 19.3501 -1.22994 0.655099 0.486887
26.7593 18.5117 16.6521 1.48056 2.22284 0.59028
27.1428 16.8557 20.3534 -0.761336 -0.457544 2.18687
28.9614 18.0021 18.4369 0.223963 1.35623 0.497918
30.7093 20.1535 19.2184 -1.00738 0.13593 0.925648
31.2343 16.4873 17.5237 0.265733 -0.42121 -0.196212
32.9821 18.6387 18.3052 0.222024 1.06959 1.23511
30.7801 19.1484 16.5204 0.797206 -0.00685731 0.142117
31.1635 17.4924 20.2217 0.808091 -1.35724 -0.911004
7.87863 21.1462 19.7868 0.217452 -0.329506 0.883593
11.8993 21.7828 19.6551 -1.61683 0.829624 1.41927
9.69727 22.2925 17.8703 -1.00635 -1.43682 1.56758
11.4451 24.4439 18.6518 -0.670078 1.42026 -0.722682
11.9701 20.7777 16.9571 1.25377 1.85176 -0.435905
15.9201 22.4195 19.5234 -1.27016 -0.288131 2.07971
13.718 22.9291 17.7386 -0.139213 -1.74099 -0.299689
15.9908 21.4143 16.8254 0.708373 -1.26786 0.354198
17.6679 24.5709 20.3049 -0.325569 1.39564 1.02121
18.1929 20.9047 18.6102 -0.748801 0.00157731 0.442777
19.9408 23.0561 19.3917 -1.03344 0.207153 0.448641
17.7387 23.5658 17.6069 0.627211 2.03215 -0.596743
20.0116 22.051 16.6937 0.99986 -0.445298 0.717909
24.4157 21.0316 20.2633 -0.774973 0.0325265 -1.84342
22.2136 21.5413 18.4785 -1.03118 0.0744471 1.29295
23.9615 23.6927 19.26 -0.342566 -1.08621 0.750069
21.7594 24.2024 17.4752 0.532246 2.01234 -1.90726
24.0323 22.6876 16.562 -0.517055 1.71798 -0.135897
28.4364 21.6683 20.1316 -1.25051 -0.432847 -1.27716
26.2343 22.178 18.3468 -0.414356 2.12227 0.0677872
27.9822 24.3294 19.1283 -0.241364 -0.757554 0.0796883
28.5072 20.6632 17.4336 -0.162656 -0.857309 -2.05332
28.053 23.3243 16.4303 -0.585769 0.758709 -1.55796
32.4571 22.3049 19.9999 1.69223 -0.282574 -0.451103
30.2551 22.8146 18.2151 -1.44038 -0.645652 -0.785348
32.5279 21.2998 17.3019 -0.107675 -1.06189 -0.815254
32.0737 23.9609 16.2986 0.388226 0.401465 -0.87882
13.193 26.5954 19.4333 -0.918673 -0.516794 -0.656905
14.9408 28.7468 20.2148 -1.63324 -1.34973 0.109072
15.4658 25.0806 18.5201 2.07284 -1.29661 2.19337
13.2638 25.5902 16.7353 -0.984229 -1.92459 0.156506
15.0116 27.7417 17.5168 0.182322 -0.00462922 -0.122074
17.2137 27.232 19.3016 1.39283 -1.638 0.850883
19.4866 25.7172 18.3884 -1.04215 0.600555 -1.40023
17.2845 26.2269 16.6036 -1.62115 0.189605 -1.27157
19.0323 28.3783 17.3851 0.963106 0.800978 -0.445054
21.6886 25.2075 20.1732 -0.937011 -2.06201 -0.377655
21.2344 27.8686 19.1699 -0.883893 -0.217534 0.719715
23.5073 26.3538 18.2567 0.407853 0.272628 0.138946
21.3052 26.8635 16.4719 -0.337066 -1.27978 -2.1771
25.7093 25.8442 20.0415 -0.449621 -0.242877 0.149367
25.2551 28.5053 19.0382 -2.67501 0.638347 0.651233
25.7801 24.8391 17.3435 -0.361554 -0.512196 0.256793
27.528 26.9905 18.125 -1.73633 0.196325 -1.11864
25.3259 27.5002 16.3402 -1.24428 0.775228 -1.04625
29.7301 26.4808 19.9098 -1.1475 -0.67744 1.3236
32.0029 24.966 18.9966 -0.117574 0.931764 1.24832
29.8008 25.4757 17.2118 2.90396 -0.57929 0.233786
18.9615 29.3834 20.0831 -0.411479 -0.685556 2.50649
16.7595 29.8931 18.2983 0.148933 -0.579349 -1.29923
18.5073 32.0445 19.0798 1.62628 1.06502 1.5102
18.5781 31.0394 16.3818 -2.49867 -2.09074 1.05848
22.9823 30.0201 19.9514 -0.321984 -1.27573 1.21022
20.7802 30.5297 18.1666 -2.34601 0.888669 0.391798
23.053 29.0149 17.2534 -0.872369 2.26575 -0.658328
17.8077 10.7699 20.8386 -1.57164 0.666164 2.95861
17.737 11.7751 23.5366 0.529554 1.05081 -0.638845
20.0098 10.2603 22.6234 -1.21862 0.978863 0.875159
21.8285 11.4066 20.7069 0.145868 -0.323526 -0.458946
22.2827 8.74547 21.7102 -0.758145 0.0453221 0.0509739
24.0305 10.8969 22.4917 -0.42196 1.66994 -0.68759
22.2119 9.75059 24.4082 -3.09849 -1.15086 0.281864
8.78708 15.824 21.7934 0.941494 0.640257 0.248232
11.0599 14.3092 20.8802 0.695543 -2.32188 1.53828
10.9892 15.3143 23.5782 0.295274 2.24379 -1.85885
15.0807 14.9458 20.7485 0.449863 1.15919 -3.09841
13.262 13.7995 22.665 1.07677 0.873035 -0.780558
15.0099 15.9509 23.4465 -0.50377 0.919316 0.841383
15.5349 12.2847 21.7518 1.29567 -0.494515 1.37995
15.4641 13.2898 24.4498 -0.448226 0.0588496 1.72919
19.1014 15.5825 20.6168 0.659434 -0.0139542 0.93649
17.2827 14.4362 22.5333 -0.813265 -0.318275 0.871788
19.5556 12.9214 21.6201 0.328344 0.614843 1.03043
19.4848 13.9265 24.3181 -0.540345 0.172402 -1.64178
21.3034 15.0728 22.4016 1.07872 -1.70261 -0.407188
23.5763 13.558 21.4884 -0.214284 -0.0324705 -0.375037
21.7577 12.4117 23.4049 1.05084 -1.13173 -0.418308
23.5055 14.5631 24.1864 2.31051 -0.793566 -0.738103
25.3242 15.7094 22.2699 0.550039 1.23719 -0.927392
25.8492 12.0432 20.5752 -0.872803 0.461237 -0.0131758
27.597 14.1946 21.3567 2.16319 1.19798 1.40713
25.7784 13.0483 23.2732 -0.0378898 0.317944 -1.09076
27.5262 15.1998 24.0547 0.574379 -0.03249 1.61956
8.33286 18.4851 20.7901 0.444475 0.376548 -0.985472
8.26208 19.4902 23.4881 0.0552753 -0.616297 -0.842099
10.5349 17.9754 22.5749 -1.28852 2.46617 0.928015
8.7163 16.8291 24.4914 -0.341134 0.352113 -0.498156
12.3536 19.1217 20.6584 0.40504 -0.0531838 -0.332785
12.2828 20.1268 23.3564 0.803824 0.254059 -1.8035
12.8078 16.4606 21.6617 0.484359 -0.137501 0.344484
14.5557 18.612 22.4432 -0.454721 -2.28899 -0.84335
12.737 17.4657 24.3597 1.18108 0.0338887 -1.80624
16.3743 19.7584 20.5267 -1.46831 -0.65354 -2.1371
16.8285 17.0973 21.53 -1.1584 0.989654 1.68461
18.5764 19.2487 22.3115 0.697378 1.10566 0.0156083
16.7577 18.1024 24.228 -0.677778 0.751754 0.652556
19.0306 16.5876 23.3148 1.16044 -0.878395 -1.30538
20.8492 17.7339 21.3983 0.728866 -0.713456 -0.992905
22.5971 19.8853 22.1798 -1.1991 1.05492 1.8413
23.1221 16.2191 20.4851 0.561592 -1.51758 0.565045
20.7784 18.739 24.0963 0.75587 0.372072 -0.121523
23.0513 17.2242 23.1831 0.897988 -0.819527 2.76617
24.8699 18.3705 21.2666 -0.994269 -1.01424 -0.791151
24.7992 19.3757 23.9646 -0.469753 -1.25033 -0.0657071
27.072 17.8609 23.0514 0.78114 0.630381 0.126009
28.8907 19.0072 21.1349 -0.377086 0.777728 0.0166605
32.9114 19.6438 21.0032 1.64251 0.0409487 -0.749443
28.8199 20.0123 23.8329 0.530115 1.80646 -0.207905
29.3449 16.3461 22.1382 0.772835 -1.64063 0.206534
31.0927 18.4975 22.9197 1.13646 0.674322 0.336834
7.80786 22.1513 22.4848 1.03684 0.343978 0.993026
9.55571 24.3027 23.2663 0.824542 0.134173 -0.0629017
10.0807 20.6365 21.5716 1.0325 0.949173 0.367925
11.8286 22.7879 22.3531 1.3568 0.451563 0.487563
9.62649 23.2976 20.5683 0.914267 -0.251815 0.185206
10.0099 21.6416 24.2696 0.172851 1.19629 0.856094
14.1014 21.2732 21.4399 -1.07517 0.966034 -0.951806
15.8493 23.4246 22.2214 0.969771 -0.165736 0.765091
13.6472 23.9343 20.4366 -0.645121 1.38488 -0.573375
14.0307 22.2783 24.1379 -0.380242 2.36843 0.917447
18.1221 21.9098 21.3082 -0.000621111 0.330378 1.18925
19.87 24.0612 22.0897 -0.536587 -1.16197 -0.0996077
16.3035 20.7635 23.2247 1.79775 0.0340508 0.0936629
18.0514 22.9149 24.0062 0.0217553 -2.59023 1.24692
20.3242 21.4001 23.093 -1.66106 0.495023 0.505577
20.395 20.395 20.395 1.08146 -0.493489 -1.1404
22.1429 22.5464 21.1765 0.752648 2.06753 -0.34994
22.0721 23.5516 23.8745 -0.669169 -1.07758 -0.907795
24.3449 22.0368 22.9613 0.317281 0.0361148 1.21067
26.1636 23.1831 21.0448 1.47934 0.202707 -0.953504
26.0928 24.1882 23.7428 -0.807744 -0.0908719 1.41503
26.6178 20.522 22.0481 0.78959 1.38172 1.22535
28.3657 22.6734 22.8296 -0.537373 -0.843971 -0.184441
30.1843 23.8197 20.9131 0.488145 0.368596 1.67485
30.6385 21.1586 21.9164 -2.23945 0.402786 -0.675991
32.3864 23.31 22.6979 -0.13251 0.955992 -1.65001
30.5677 22.1637 24.6144 0.296769 -0.593416 -0.137484
32.8406 20.6489 23.7012 -0.468793 3.05393 0.612434
11.3036 26.4542 24.0478 1.73015 -0.782955 -0.373902
11.3743 25.449 21.3498 0.159891 1.15125 0.667578
13.5764 24.9394 23.1346 -1.41147 1.17512 0.872106
15.3243 27.0908 23.9161 -0.147713 0.60042 0.11158
13.1222 27.6005 22.1313 1.1131 0.494961 1.17116
15.3951 26.0857 21.2181 0.528018 0.189802 -1.35
17.5971 25.576 23.0029 0.798409 -0.685371 1.04868
19.345 27.7275 23.7844 -0.145677 -0.424143 0.389504
17.1429 28.2371 21.9996 -0.468015 -0.655944 -1.50873
19.4158 26.7223 21.0864 0.532706 -0.455306 1.65296
21.6179 26.2127 22.8712 -2.89092 -1.70208 -0.393357
23.3657 28.3641 23.6527 -2.31195 -0.256354 -0.464848
23.8907 24.6979 21.958 0.650605 -0.812515 1.64169
23.4365 27.359 20.9547 0.873548 1.06972 -0.244554
23.8199 25.703 24.656 0.42819 -0.336393 1.25503
25.6386 26.8493 22.7395 1.56472 -0.514921 -0.0931845
27.9114 25.3345 21.8263 -0.019464 -0.0869493 -0.472129
27.4572 27.9956 20.823 0.921764 0.535517 0.754678
27.8406 26.3396 24.5243 2.27852 1.85374 1.11908
29.6593 27.4859 22.6078 -2.12215 -0.105546 -2.09394
31.9321 25.9712 21.6946 0.338919 0.794006 1.42014
30.1135 24.8248 23.6111 0.13603 -0.0546805 1.377
14.8701 29.7519 22.9128 -0.486324 -0.535744 -1.59137
16.6179 31.9034 23.6943 0.65232 1.48742 -0.189053
18.8908 30.3886 22.7811 -0.539701 0.0137002 0.735724
16.6887 30.8982 20.9963 -0.105108 -1.76646 -0.705759
18.4365 33.0497 21.7778 -0.7053 0.535989 0.785159
21.0929 29.8789 24.5659 1.91611 -0.216833 0.396927
20.6386 32.54 23.5626 -1.34576 -0.351405 -1.60578
21.1636 28.8738 21.8679 0.754688 0.176424 0.835044
22.9115 31.0252 22.6494 3.34531 -0.587125 0.272208
20.7094 31.5349 20.8646 0.903167 0.433415 -1.18715
25.1136 30.5155 24.4342 -2.00224 0.538695 -0.38764
27.3864 29.0007 23.521 2.26763 -0.919038 -0.682461
25.1843 29.5104 21.7362 -0.095696 -0.642573 1.23301
19.939 11.2654 25.3214 0.425665 0.709048 -0.408923
23.9598 11.902 25.1897 -0.75606 -0.70234 0.296585
22.1411 10.7557 27.1062 0.618482 -0.163277 0.752045
13.1912 14.8046 25.363 0.979685 0.406076 -0.974027
13.1205 15.8098 28.061 1.30298 -0.135131 -0.355911
15.3933 14.295 27.1478 -0.610216 -3.49344 -2.72958
17.212 15.4413 25.2313 1.09655 -0.795602 0.0749108
17.6662 12.7802 26.2346 0.886781 1.25289 -0.855204
19.414 14.9316 27.0161 1.6091 0.616837 -0.342108
19.8683 12.2705 28.0194 -0.0962171 0.986789 -0.706262
21.2327 16.0779 25.0996 -0.59335 -2.02881 -0.808565
21.6869 13.4168 26.1029 -0.524822 0.703556 -0.251993
23.4348 15.5683 26.8844 1.41145 0.229084 -0.860298
21.6161 14.4219 28.8009 -0.204971 0.229597 1.99116
23.889 12.9071 27.8877 2.54778 0.453444 -0.0874022
25.7076 14.0535 25.9712 1.00507 -2.76305 0.565926
25.6368 15.0586 28.6692 2.28395 -2.15975 -1.42106
10.4642 18.9805 25.2729 -0.195901 3.44559 -0.556707
10.9184 16.3194 26.2762 -1.65716 1.08706 1.49637
14.4849 19.6172 25.1412 1.82648 -1.21231 0.536257
12.6662 18.4709 27.0577 1.89232 -0.480063 -1.09205
14.9391 16.9561 26.1445 0.318259 0.522241 -0.777207
14.8683 17.9612 28.8425 -0.364039 0.393389 1.05467
18.5056 20.2538 25.0095 0.00479158 -0.392867 0.400028
16.687 19.1075 26.926 0.197463 0.658557 -2.63286
18.9598 17.5927 26.0128 -0.820224 -2.09462 0.168824
17.1412 16.4464 27.9293 -2.65576 -0.158304 -1.71378
18.889 18.5978 28.7108 1.52089 -0.0795588 -1.59529
20.7077 19.7441 26.7943 -0.183238 2.46409 -1.18311
22.9805 18.2294 25.8811 -0.292273 -1.24132 -0.769937
21.1619 17.083 27.7976 0.752104 -1.03078 1.28838
22.9097 19.2345 28.5791 -1.05704 0.855495 -0.0423679
24.7284 20.3808 26.6626 -0.650221 -2.3551 -1.70125
25.2534 16.7146 24.9679 0.00810932 -0.922719 0.732759
27.0012 18.866 25.7494 2.54237 -1.43014 -1.87757
25.1826 17.7197 27.6659 -1.61554 1.56226 1.63625
26.9305 19.8711 28.4474 -0.165095 -0.933711 0.554
27.4555 16.2049 26.7527 -0.748458 0.545725 1.95048
29.2741 17.3512 24.8362 0.0129887 1.39951 2.05669
31.022 19.5026 25.6177 -1.01677 2.11291 0.447797
29.2033 18.3563 27.5342 0.849898 0.227119 0.368761
11.7578 23.7931 25.0511 -1.15024 -1.1025 -0.485247
15.7785 24.4297 24.9194 0.752323 -1.22737 -0.904824
12.212 21.132 26.0544 0.178368 0.56062 -0.172514
13.9599 23.2834 26.8359 0.82197 0.89526 -0.310215
14.4141 20.6223 27.8392 -1.22768 -0.0564524 -0.370556
16.162 22.7737 28.6206 -0.879139 0.639562 1.18439
16.2327 21.7686 25.9227 -0.929574 -0.0843394 1.14471
17.9806 23.92 26.7042 -1.32721 0.301138 0.282418
20.2534 22.4052 25.791 -0.0831597 -1.36637 -1.05589
18.4348 21.2589 27.7075 -2.147 0.346758 1.97903
20.1827 23.4104 28.4889 -0.473166 1.08905 -1.53739
22.0013 24.5567 26.5725 1.00748 1.33038 -0.244452
22.5263 20.8905 24.8778 -0.372052 -1.07515 -0.531376
24.2742 23.0419 25.6593 -0.0385371 0.95985 -0.12308
22.4555 21.8956 27.5758 0.809907 0.410381 0.237246
24.2034 24.047 28.3572 -0.406977 0.349751 -0.232727
26.547 21.5271 24.7461 0.379719 -0.642953 -0.555059
28.2949 23.6785 25.5276 -0.29169 0.570032 -2.23504
26.4762 22.5322 27.4441 0.188228 1.82188 -0.24709
28.7491 21.0174 26.5309 0.733725 0.145132 0.0142711
13.0514 28.6056 24.8293 -0.313411 1.62356 -1.61044
13.5056 25.9445 25.8326 -0.229464 2.02556 1.16343
15.2535 28.0959 26.6141 0.882051 -1.90206 -1.4007
15.7077 25.4348 27.6174 1.18277 0.369285 -0.971876
17.5264 26.5811 25.7009 -1.27925 -1.8 -1.33965
19.2742 28.7326 26.4823 0.805129 0.0770064 1.80044
19.7992 25.0664 24.7877 0.818851 -0.746328 -1.05477
17.4556 27.5863 28.3988 -0.441151 -0.120119 -1.02472
19.7284 26.0715 27.4857 -0.407725 -0.118869 -0.329659
21.5471 27.2178 25.5692 0.753361 0.296595 -0.22717
21.4763 28.2229 28.2671 0.342955 -1.41839 -1.36129
23.7492 26.7081 27.354 -1.63838 0.601968 1.85531
25.5678 27.8544 25.4375 0.0276263 2.30253 -1.00257
26.022 25.1933 26.4408 1.3335 -0.754749 -2.66147
14.7993 30.757 25.6107 -1.82865 1.35624 0.307532
17.0721 29.2422 24.6976 -1.55233 -0.302397 0.397407
18.82 31.3937 25.479 0.651219 -0.149847 -0.254952
17.0014 30.2474 27.3955 -0.553687 -0.120957 -1.97259
22.8407 32.0303 25.3473 0.696542 0.6289 -1.07377
21.0221 30.884 27.2638 1.24027 0.754851 -0.13121
23.2949 29.3692 26.3506 -1.5939 -0.370883 0.697602
22.0703 11.7608 29.8042 2.04699 -1.30348 -1.47085
15.3225 15.3001 29.8458 -1.13346 -0.411343 -1.23034
17.5954 13.7853 28.9326 -0.138191 0.163386 -1.90282
19.3433 15.9367 29.7141 -1.63039 -0.549303 1.11652
17.5246 14.7904 31.6306 1.12957 0.851389 -1.45245
19.7975 13.2756 30.7174 1.95302 1.9793 -0.670715
21.5453 15.4271 31.4989 -0.59102 -0.661047 -0.0633943
23.8182 13.9123 30.5857 1.56331 -0.0620993 -0.338655
25.5661 16.0637 31.3672 -0.292034 0.519379 -0.642217
16.6162 20.1126 29.624 -2.39659 -2.88233 0.262238
17.0704 17.4515 30.6273 0.490758 -0.142107 1.4925
18.8183 19.603 31.4087 0.0643372 1.03463 -1.6417
19.2725 16.9419 32.412 -0.522381 -2.88038 -0.409373
21.0911 18.0882 30.4956 -0.69016 1.3777 1.54662
22.839 20.2396 31.277 -0.450161 -0.231586 0.418478
23.364 16.5734 29.5824 -0.368493 -1.79453 -0.00716085
21.0203 19.0933 33.1935 0.280538 1.607 0.445915
23.2932 17.5785 32.2803 -0.681602 -0.610269 0.385926
25.1118 18.7248 30.3639 -0.653717 0.554083 -2.18571
27.3847 17.21 29.4507 -1.21262 0.433199 1.15715
18.364 22.2641 30.4054 0.5259 -0.733361 0.0652803
20.1119 24.4155 31.1869 -1.05815 -0.862238 0.350957
20.6369 20.7493 29.4923 -1.2011 -0.557667 0.599997
22.3847 22.9007 30.2737 -0.431496 0.771085 0.68336
20.5661 21.7544 32.1902 0.917915 -2.30297 -3.09707
24.6576 21.3859 29.3606 -1.5197 -2.1472 -1.46811
17.9098 24.9252 29.4021 0.147459 0.186063 0.483611
19.6577 27.0766 30.1836 1.78624 -0.33019 -0.973596
21.9305 25.5618 29.2704 -0.588135 -0.486426 1.80045
19.2034 29.7377 29.1803 0.818658 0.554841 -1.24972
ITEM: TIMESTEP
1000
ITEM: NUMBER OF ATOMS
459
ITEM: BOX BOUNDS ss ss ss
7.8037767199047172e+00 3.2986223280095246e+01
7.7362582550777192e+00 3.3053741744922284e+01
7.5923807257561551e+00 3.3197619274243820e+01
ITEM: ATOMS x y z vx vy vz
21.5087 11.3411 11.9445 1.61908 0.370101 -2.15804
18.8892 15.1524 11.5304 0.872747 -0.143623 1.33591
21.1394 13.8502 10.9604 -0.935162 1.24033 -1.72172
22.9196 15.8138 11.3632 -0.425337 1.05295 1.74911
16.0444 19.2956 11.5168 -1.74392 -2.60374 0.206226
18.3233 17.9741 10.6414 0.770598 0.107104 1.11337
20.2699 20.0003 11.2645 -0.599079 1.41169 1.88754
20.1518 18.8763 8.86457 1.75373 -1.33846 1.27962
20.5648 16.2908 9.78007 -0.278132 0.00869191 -0.761666
22.2753 18.4189 10.4444 -0.0262197 -1.17972 1.14012
13.4535 23.335 11.5808 -0.205045 0.0286428 -0.20544
15.7794 21.8444 10.5245 0.0461402 0.322142 0.760198
17.7817 24.0419 11.3629 3.23231 -0.153555 0.786309
17.8581 20.5614 9.53053 0.598869 0.234548 -0.607841
19.7856 22.6771 10.5012 -1.71369 1.24852 0.815859
17.5273 23.1412 8.8501 0.148797 1.1167 -0.48859
19.815 21.5226 8.07862 -1.87983 0.650564 -0.313718
24.2141 20.4172 11.0125 -0.500831 -0.435927 -0.888456
22.1013 21.0756 9.5147 0.00469917 0.963543 -0.0358711
23.7081 23.2776 10.308 1.05665 1.20783 -0.0843997
21.5177 23.6501 8.59968 -1.70867 1.26646 -2.87427
15.3625 24.3954 9.9336 0.151776 0.549258 0.251319
16.9517 26.6643 10.5051 -0.0412434 -0.237836 -1.49752
19.2873 25.2967 9.35465 -0.319271 1.70016 -1.40762
21.3412 24.682 11.2188 -0.455551 -2.11994 0.0141652
23.0694 26.8792 11.9421 -1.34063 -0.612066 0.182697
20.9636 27.2538 10.1299 0.989467 -0.660623 -3.07746
23.1674 25.8294 9.49095 -0.330555 0.343042 -0.366094
25.3737 25.3292 10.9854 2.14234 -0.04528 -1.39186
18.7815 28.8244 11.2973 0.847676 -0.201869 -0.615715
17.8894 9.1966 15.6824 -0.59367 -0.820415 -0.295498
17.4995 11.6521 14.5765 -0.510227 0.583789 -0.464578
19.7921 10.0841 13.8157 -0.0937317 -0.455066 -2.31362
21.9757 9.52752 15.3237 -0.0187064 -2.45169 -1.31692
23.7974 11.6346 16.2205 -1.93859 -0.125941 0.947033
23.7492 10.8162 13.5767 -0.72959 -1.20897 -1.9449
25.7446 10.387 15.1361 1.03757 0.160843 0.0207696
15.1084 12.9353 15.3443 1.20559 2.48242 1.3822
14.8184 15.7095 14.477 1.57062 0.982097 0.75165
19.2201 13.7835 15.3584 0.609369 1.0637 0.619256
17.0424 14.1241 13.4137 0.780766 0.974011 -0.0245047
19.2096 12.7258 12.7193 0.794013 -1.68654 0.257381
21.0498 15.7986 16.1176 0.621127 0.685895 -1.08605
21.4385 12.2381 14.5322 0.559248 1.18083 0.496334
23.3806 14.2932 15.0853 0.736415 0.0241171 0.309389
21.0752 14.7838 13.4134 -0.19629 1.84712 1.78556
23.3425 13.2503 12.498 0.188039 -2.02564 2.07769
27.6326 12.2401 16.0641 0.915364 0.780856 -0.2056
25.5627 12.8158 14.0886 1.20888 -0.080208 -0.164525
27.4258 14.8452 14.8675 -1.76728 0.107261 1.90716
25.1781 15.5665 13.2633 -0.832559 2.17209 -0.412936
12.5179 17.1848 15.219 0.0795653 0.106984 1.2683
14.4021 19.2551 15.8757 1.37687 -0.394328 -0.817104
12.0946 19.7806 14.2231 1.19517 -0.877717 2.06816
14.3228 18.2117 13.2536 -1.45762 1.92035 0.996611
16.5283 17.6719 15.0544 -0.233946 0.0555612 1.5116
18.205 19.8916 15.8521 -0.764518 -1.76688 0.178817
18.6349 16.2443 14.2325 -1.07485 -0.0346711 1.00738
16.5268 16.6822 12.3869 1.35462 -0.86814 1.51153
18.4568 18.8121 13.1661 -2.28396 -0.977532 1.29764
20.6638 18.3195 14.9566 1.0338 -0.596859 1.53667
22.8352 16.927 14.1385 1.55875 0.287856 1.24753
24.7386 18.9875 14.9246 0.0023435 -0.0322299 0.395679
20.5488 17.3231 12.1977 0.393688 2.02598 2.24245
22.3772 19.47 13.0575 -0.00252421 -0.645548 0.104025
25.2593 16.3675 15.8928 0.24469 1.57018 -0.620839
26.8226 17.5385 13.8518 -1.02374 0.204006 2.34911
28.3599 19.5448 14.7679 1.3458 0.667411 -0.23042
24.6689 18.0518 12.1965 -0.957388 -0.557382 2.39204
26.2764 20.2062 12.8855 0.482298 1.1786 1.66669
28.9528 17.0282 15.66 -1.30724 0.346053 -0.535697
10.0146 21.3796 15.1345 0.349437 -0.647318 -0.120072
11.6587 23.5107 15.8571 0.505888 0.946132 0.495583
11.6442 22.2723 13.2946 -0.992167 0.742762 0.858702
13.8341 21.9912 14.715 1.91568 -1.44647 1.05512
15.5391 24.1227 15.9065 -0.441114 0.757847 2.29517
16.1041 20.3556 14.0398 -0.694384 -1.18219 -1.13098
13.4738 24.5721 14.0622 0.0114219 -0.764777 1.90696
13.7595 20.835 12.2142 1.66627 1.12734 1.91649
15.6126 23.0548 12.9874 1.44159 -0.63787 0.856042
17.8985 22.5425 14.8556 -1.87066 0.791239 -0.017973
20.2452 21.0116 13.9276 -0.919653 -0.402325 -1.05564
17.8887 21.3758 12.2245 -0.0896361 0.343198 0.645674
19.7881 23.7037 13.1153 0.037469 0.0912499 -4.74024
22.3161 20.4258 15.7359 -1.72316 -1.91587 -1.18412
21.9059 23.0836 14.9093 1.35872 1.2526 0.675633
24.24 21.5902 13.7973 0.405844 -0.88599 0.0534227
22.1447 22.0244 12.1021 -0.623338 -0.410523 0.508592
23.7878 24.3276 12.8945 -0.932746 -1.07626 2.11949
26.3337 21.0961 15.6342 -3.13738 -0.0358323 -0.50777
25.9778 23.8455 14.573 -1.09254 -1.47241 -0.455653
28.0431 22.1062 13.7351 -0.16084 0.241062 1.16212
25.9121 22.8105 11.8647 -2.62662 0.224618 1.8724
30.1813 21.6639 15.3682 -0.37572 -0.330647 2.38868
29.4515 24.2897 14.4895 1.15163 0.376648 -0.922648
15.1119 26.8328 14.7916 1.65811 -1.25377 0.567904
15.027 25.6597 12.2445 0.0803883 0.536854 -0.0684513
19.4831 24.7541 15.9221 -1.64967 -0.208111 0.0199099
17.263 25.314 13.7904 0.0357653 -0.498151 -1.32729
19.0808 27.3157 14.8382 1.04292 -0.673082 0.972633
16.8628 27.8333 13.0599 -0.678449 -1.6297 -0.622695
19.3204 26.2466 12.1231 1.19411 -1.5361 1.1928
23.6579 25.206 15.6833 0.355758 0.196496 1.42514
21.4327 25.8076 13.8897 0.372749 0.462369 -0.766159
23.0816 28.0749 14.5613 -1.1356 -0.284497 0.364565
20.9647 28.4486 12.8964 -1.58194 -1.25337 -0.110576
27.552 25.8586 15.4059 -1.3963 -1.67391 0.991882
25.2257 26.4332 13.633 -1.71327 -1.67408 1.80094
27.398 24.8875 12.8867 -0.520471 0.261368 -0.805734
16.9465 28.9282 15.6229 1.64011 -1.20412 1.52374
18.7459 29.8379 13.8571 -0.912776 -0.680546 0.198956
20.7761 29.4887 15.3658 1.45015 -1.84589 0.0936755
13.3962 12.035 17.2853 0.439809 1.44431 -0.371731
15.6665 10.4738 16.4321 -0.958215 -0.111391 0.14813
15.4351 11.2826 19.0567 0.605707 1.56927 -0.804279
19.6718 11.0787 16.3028 1.92135 0.52574 1.08124
17.937 9.76597 18.2117 -0.194683 -1.25732 0.0213689
19.607 11.9616 18.9293 0.279146 0.251182 0.844059
20.1694 8.59898 17.3836 1.81406 -1.17527 0.534952
20.0833 9.39972 19.9693 0.192078 -0.538955 -0.641331