ITEM: TIMESTEP
0
ITEM: NUMBER OF ATOMS
454
ITEM: BOX BOUNDS ss ss ss
7.8187255976052077e+00 3.4647000260661677e+01
7.1461104759659273e+00 3.3724627338718712e+01
9.9221073043504848e+00 3.0867893343805381e+01
ITEM: ATOMS x y z vx vy vz
20.7359 10.2199 12.6381 0.328602 0.718621 -0.595087
22.842 8.32114 13.155 -1.23315 0.295544 1.05017
25.6449 9.18766 13.2523 2.45658 0.388431 -0.234478
14.1742 13.3982 13.1553 -0.832146 0.645972 1.10636
16.5236 14.0175 11.6044 0.15928 2.22297 -0.967557
18.6298 12.1187 12.1212 -0.42673 2.88868 0.584894
21.4326 12.9853 12.2186 -0.94076 0.444274 -0.143404
24.2354 13.8518 12.3159 0.553871 1.71428 -0.224208
26.3416 11.953 12.8328 -0.386296 0.705914 0.659319
23.5387 11.0865 12.7354 0.723433 -1.05215 1.1791
27.0383 14.7183 12.4132 0.0595313 -0.269103 -0.579296
14.8709 16.1635 12.7357 -1.17147 1.04312 1.78113
13.2183 18.3094 13.867 1.5737 1.7082 -1.65766
18.1882 18.3772 13.3825 -1.0986 -0.483512 0.304849
17.4915 15.6119 13.802 -0.698578 2.29396 -0.606282
17.2203 16.7829 11.1848 -0.365195 0.340193 -0.601512
23.0972 17.3449 13.9967 1.82124 1.1554 1.59976
22.826 18.5159 11.3795 1.4557 -0.4245 -2.05776
20.2943 16.4784 13.8994 -2.15176 0.95078 0.462727
20.0232 17.6494 11.2822 0.150331 0.325242 0.626862
22.1293 15.7506 11.799 0.905722 -0.713207 -1.04148
19.3265 14.8841 11.7017 -1.16116 1.08682 1.57474
25.9 18.2115 14.094 0.482167 0.338787 -0.79608
24.9322 16.6171 11.8963 0.644145 -2.11107 1.40702
27.735 17.4836 11.9937 -0.33093 2.49186 0.901663
29.9207 18.2663 13.702 -0.467742 -1.27249 -0.0519215
13.915 21.0747 13.4475 1.39357 -0.220037 0.350022
18.8849 21.1425 12.9629 -1.99922 -0.20891 -1.97625
18.6137 22.3135 10.3457 -0.539994 0.545476 -1.94356
17.917 19.5482 10.7653 -0.409326 -0.0569927 2.82664
16.2644 21.6941 11.8966 -0.0585847 -1.55827 -0.287136
15.5677 18.9288 12.3162 0.122978 -0.808059 -0.374896
21.6877 22.0091 13.0603 0.296949 -1.77384 0.182505
20.991 19.2437 13.4798 -0.976011 0.121192 1.29511
20.7199 20.4147 10.8626 -0.257712 -1.04748 0.793193
23.7939 20.1103 13.5771 -0.839839 -2.01169 -0.316564
23.5227 21.2812 10.9599 0.996336 1.09645 -0.144952
25.7085 22.0639 12.6683 -0.453295 -2.34756 -2.46193
25.6289 19.3824 11.4768 0.374866 0.912504 0.633882
27.8146 20.1651 13.1851 0.988239 -1.81654 -1.31842
14.6117 23.8401 13.0279 0.549404 0.262494 1.75085
19.3104 25.0788 9.92619 -1.33028 1.31499 0.919885
17.2322 23.2885 14.0943 -1.04822 1.07759 -0.955667
16.9611 24.4594 11.4771 1.02149 -0.0622971 0.793993
16.3931 26.0329 13.8244 -0.993813 0.0395113 0.990782
19.5816 23.9079 12.5434 1.39575 0.606284 0.497743
21.4962 25.8615 11.6345 -1.20255 0.469295 0.520381
21.4166 23.18 10.4431 1.0618 1.68942 -1.82179
23.6023 23.9627 12.1514 3.49335 -0.57472 0.429405
25.788 24.7454 13.8597 1.28157 0.15311 1.80883
18.7425 26.6522 12.2736 -1.46086 -0.539492 -2.11125
20.9282 27.4349 13.9819 0.595918 -0.792513 1.02225
23.6819 26.6442 13.3429 0.644517 -0.544269 2.35198
19.172 9.77683 17.3557 0.746018 -1.7644 0.10248
21.9749 10.6434 17.453 -0.905323 0.276638 -1.88608
21.2782 7.87803 17.8725 -1.05926 0.745926 -0.150022
21.007 9.04898 15.2553 -1.48805 -2.2581 -1.53159
23.1132 7.15019 15.7722 2.21855 -2.27577 -1.55768
26.8839 9.61108 18.0672 1.49463 -0.117196 -1.68905
26.6127 10.782 15.45 -1.18529 -0.605792 0.537265
24.081 8.74456 17.9698 0.793246 1.24768 -1.03469
23.8099 9.91551 15.3526 1.54513 0.601709 -0.484464
25.916 8.01671 15.8695 0.502097 -0.213828 0.562929
9.47548 12.1594 16.257 -0.58087 -2.98367 -0.55602
7.8228 14.3053 17.3883 1.83152 1.85544 -0.840925
15.4132 13.8216 17.9701 0.615942 0.00256791 0.801618
14.4454 12.2272 15.7725 -1.21161 -0.0352927 -0.481935
12.7927 14.3732 16.9038 0.906495 0.455708 -1.1379
12.096 11.6078 17.3233 1.34725 0.112954 -0.999544
11.8249 12.7788 14.7061 -1.63657 1.42907 1.52694
17.7626 14.4409 16.4192 -0.197404 -1.22648 -2.15853
17.0659 11.6756 16.8388 -0.59936 -1.12043 -0.951112
16.7948 12.8466 14.2216 0.526203 -0.394157 1.24286
18.9009 10.9478 14.7385 1.14051 0.529929 0.271301
22.6716 13.4087 17.0334 1.8167 0.0887854 0.0247966
22.4004 14.5796 14.4162 0.0793322 -2.53819 1.21286
19.8687 12.5422 16.9361 -0.438292 -2.21951 0.897515
19.5976 13.7131 14.3189 0.409082 1.26796 -3.22992
21.7037 11.8143 14.8358 0.0347244 -1.71818 -1.0489
25.4744 14.2752 17.1307 0.92448 0.0612437 1.8386
24.7777 11.5099 17.5503 0.509348 1.17152 -1.01907
24.5066 12.6808 14.9331 0.771798 0.554686 0.0695013
27.5806 12.3764 17.6476 -0.232521 0.436438 -2.20875
27.3094 13.5474 15.0304 -0.247521 -0.536393 0.388513
11.14 16.5191 18.0351 -0.441269 0.990211 -1.56591
10.8689 17.69 15.4179 -0.523634 -0.591766 1.79882
10.1722 14.9247 15.8374 -0.861456 -0.797162 0.137447
8.51951 17.0707 16.9688 0.811258 0.0160175 0.312501
15.1421 14.9925 15.3529 0.71731 -0.706618 -1.08178
13.4894 17.1385 16.4842 -3.276 -1.02068 0.309958
12.5216 15.5441 14.2866 0.279657 0.559229 -0.902804
18.4593 17.2063 15.9997 0.49853 -0.608603 0.729809
16.1099 16.5869 17.5506 -0.668549 -0.206822 0.555857
15.8388 17.7578 14.9334 -1.09593 0.772834 -0.98713
21.2622 18.0728 16.097 1.33796 -1.14186 -2.17589
20.5654 15.3075 16.5166 1.11317 0.875631 -0.410082
26.1711 17.0405 16.7112 -0.074922 -0.816626 1.40474
23.3683 16.174 16.6139 0.317068 -0.470782 -1.23846
25.2033 15.4461 14.5135 1.39022 0.724405 -0.0470475
28.2773 15.1417 17.2281 -1.30029 2.61369 0.834205
28.0061 16.3127 14.6109 0.816651 0.397392 -1.84841
30.1919 17.0954 16.3192 0.862848 -0.831033 2.73068
32.3776 17.878 18.0275 -0.704767 -3.43779 -2.79458
11.5656 20.4554 14.9983 -0.493583 -0.96472 -0.158628
9.21622 19.836 16.5492 -0.201456 2.37819 -1.2286
15.154 21.4982 18.2623 -1.22682 0.572403 0.489215
12.5334 22.0498 17.196 -0.0215703 -0.253576 1.99589
14.1861 19.9038 16.0647 -0.743622 -2.16386 -0.343759
11.8367 19.2844 17.6156 0.796377 1.26512 1.20705
17.5033 22.1175 16.7115 0.394436 0.0742933 -0.377886
19.156 19.9716 15.5801 0.0636468 -0.178157 -0.399319
16.8066 19.3522 17.131 -1.02061 -0.282712 0.789687
16.5355 20.5232 14.5138 -0.338941 -1.45449 0.311632
20.1239 21.566 17.7778 0.422366 0.555987 -1.04793
22.23 19.6672 18.2947 1.65224 -0.59653 -0.00787591
21.9589 20.8381 15.6775 2.38479 -1.0114 -0.55602
19.4271 18.8006 18.1973 1.52482 0.122671 -0.917942
24.1446 21.6208 17.3858 0.626585 -0.418933 1.72716
24.065 18.9393 16.1943 -0.968105 0.261462 0.46774
26.2507 19.722 17.9027 2.99081 -0.646525 0.332965
25.9796 20.8929 15.2855 0.418161 0.992642 0.196342
28.1653 21.6756 16.9938 0.621694 0.0301507 1.80255
28.0857 18.9942 15.8023 -0.151429 2.10904 1.1974
30.2715 19.7768 17.5107 1.38547 -0.852994 -2.55744
30.0003 20.9478 14.8935 -1.68523 0.759759 2.86306
32.186 21.7305 16.6018 0.520869 -0.753366 0.118775
32.1065 19.049 15.4103 -2.7107 -0.126974 -1.74347
34.2922 19.8317 17.1187 -0.700939 0.435715 -2.14361
9.91293 22.6014 16.1297 -0.324062 0.569767 0.308243
14.8828 22.6691 15.6451 -1.21513 -0.523817 -1.22943
12.2623 23.2207 14.5788 0.804395 0.546823 0.871067
14.3149 24.2425 17.9925 0.557547 0.653313 -1.53911
14.0438 25.4135 15.3753 -0.960173 -1.23497 1.55526
11.6944 24.7941 16.9262 -2.32048 -2.01508 1.16561
19.2848 24.3103 17.508 -0.647146 0.0681294 -0.180713
19.0137 25.4813 14.8908 0.969928 0.60508 1.13304
16.6643 24.8619 16.4417 0.200878 1.26761 0.525611
19.8527 22.7369 15.1606 1.04045 1.11431 0.339546
22.0384 23.5196 16.8689 -1.75398 -1.09245 1.18427
21.7673 24.6905 14.2517 1.10845 -0.313588 0.336294
23.953 25.4732 15.9601 -1.17865 -0.347972 -1.42129
23.8735 22.7917 14.7686 0.879948 0.198282 0.951205
26.0592 23.5744 16.4769 -1.46887 -0.0112373 -3.15042
28.2449 24.3571 18.1853 1.44837 -1.64266 1.45175
27.9738 25.5281 15.5681 1.82947 -0.0725292 -0.449515
27.8942 22.8466 14.3766 -0.0710291 -0.287137 -0.613566
30.0799 23.6293 16.0849 0.722512 0.380231 -0.0860695
32.2656 24.412 17.7933 1.20275 -0.0676721 -0.369069
13.4758 26.9869 17.7227 1.07413 1.54358 0.968613
18.4457 27.0547 17.2382 0.200287 0.924683 1.30689
18.1746 28.2256 14.621 0.230096 -0.109432 0.889905
15.8252 27.6063 16.1718 -0.793545 0.45964 0.0763403
17.6067 29.7991 16.9683 1.04447 0.436937 -0.998477
21.1994 26.264 16.5991 -0.286547 -0.360407 0.0567186
20.3603 29.0083 16.3293 -0.776987 -0.18843 0.866273
23.114 28.2176 15.6902 0.593128 2.05658 -1.78636
22.546 29.791 18.0376 -1.00317 0.508351 0.497758
26.1388 26.2559 17.6684 0.492316 -1.02452 1.1376
25.8676 27.4269 15.0512 1.22999 -0.946931 -0.689829
25.2997 29.0003 17.3986 1.59751 0.42664 2.10244
28.0534 28.2096 16.7595 -0.724553 0.0510453 0.388566
30.1595 26.3108 17.2764 -1.57437 0.522788 2.00341
14.9876 9.8853 21.0069 -1.70391 1.12852 1.30023
12.3671 10.4369 19.9405 -0.614182 0.597927 -0.432441
17.6082 9.33372 22.0732 0.697853 1.07934 -0.109047
17.337 10.5047 19.456 -1.61984 0.458688 0.418137
20.411 10.2002 22.1705 0.850438 0.202862 -0.237725
22.246 9.4724 20.0702 0.336298 -0.779103 -0.166064
19.4432 8.60588 19.9729 2.09914 1.07613 1.25972
25.0489 10.3389 20.1675 -0.284388 -0.0813134 -0.507714
10.7145 12.5828 21.0719 -0.183175 -1.1463 0.473768
10.4433 13.7538 18.4546 -3.22757 -1.23183 0.0837849
9.06179 14.7288 22.2032 0.901498 -2.93885 0.430963
9.74662 10.9884 18.8742 1.0329 0.746775 -1.63431
8.09394 13.1344 20.0055 0.232304 1.41982 0.330136
14.7165 11.0562 18.3897 1.86488 -0.445142 -1.2398
13.335 12.0312 22.1382 0.193979 0.0848007 0.424459
13.0638 13.2022 19.521 1.859 -0.441801 -0.988465
18.3049 12.099 21.6536 -0.976393 0.933237 1.61594
18.0337 13.27 19.0364 -0.600573 0.571631 1.90031
15.6844 12.6506 20.5873 -0.571815 0.667222 0.367578
21.1077 12.9656 21.751 1.37982 0.12288 -1.28689
20.8366 14.1365 19.1338 -1.4939 0.2787 -1.2726
22.9427 12.2377 19.6506 -0.459788 -2.2136 -0.947809
20.1399 11.3712 19.5533 -1.45611 -0.474417 0.722684
26.7134 14.6986 21.9456 -0.41915 -2.52212 1.17362
23.9106 13.8321 21.8483 -0.876355 -1.78669 0.134001
26.0167 11.9333 22.3651 0.807493 -1.21395 -0.934835
25.7456 13.1042 19.7479 -1.18452 -1.79672 -1.32908
23.2139 11.0668 22.2678 0.443696 -0.0576978 0.19672
28.8196 12.7998 22.4625 -0.424201 -0.148814 -1.91569
28.5484 13.9708 19.8453 0.889448 0.806635 0.117896
27.8517 11.2054 20.2648 0.404264 -0.759921 -0.573864
11.4112 15.3481 20.6523 -2.14121 0.262841 1.89876
9.7585 17.4941 21.7836 1.00931 -0.845222 -0.0531377
8.79065 15.8997 19.586 -0.813484 0.34569 1.84949
14.7284 17.5619 21.2991 -0.693749 1.32822 0.427794
14.0317 14.7966 21.7186 -0.751055 -0.240917 1.40292
13.7605 15.9675 19.1014 2.3562 1.68441 1.14703
12.1079 18.1135 20.2328 -1.01319 -1.10992 -0.841124
19.0016 14.8644 21.2341 -0.121792 2.29314 0.115535
18.7304 16.0353 18.6169 -1.0736 -1.18034 0.98709
17.3489 17.0103 22.3654 -1.04932 -0.832352 1.37964
17.0778 18.1813 19.7482 -0.782587 -0.578948 0.213382
16.3811 15.4159 20.1678 -0.42867 -0.56003 1.70716
22.5011 18.4962 20.9119 0.709258 -0.880821 1.6817
19.6983 17.6297 20.8145 -0.753494 -0.0346686 -1.84362
21.8044 15.7309 21.3314 1.08432 -0.0772466 -0.119643
21.5333 16.9018 18.7142 -0.440722 0.232357 -0.121479
24.6073 16.5974 21.4287 -0.970157 -0.432471 1.90058
24.3361 17.7684 18.8115 -0.716686 0.0688557 0.422902
26.4423 15.8696 19.3284 -0.181962 -0.462431 1.1263
23.6394 15.003 19.2311 0.318148 0.114075 -0.104575
28.628 16.6522 21.0367 0.185051 1.30723 0.813198
28.3569 17.8232 18.4195 -1.10105 -0.995444 -0.484281
30.7341 14.7535 21.5536 0.230898 0.622578 0.923257
30.463 15.9244 18.9364 1.01073 -1.69869 -0.470151
32.6487 16.7071 20.6447 -1.02943 -0.946964 0.393608
10.4552 20.2594 21.3641 -1.35306 -1.30461 -0.567772
10.1841 21.4304 18.7469 -1.72988 -1.08818 0.679388
9.48736 18.665 19.1664 -0.868317 -2.15175 0.0794281
15.4251 20.3272 20.8795 0.176097 0.784944 -1.11046
13.0757 19.7079 22.4304 -1.39333 -0.801697 -0.749661
12.8046 20.8788 19.8132 -0.0431405 0.757771 1.31562
14.4573 18.7328 18.6819 0.161732 1.63236 -0.558174
18.0456 19.7756 21.9459 0.727011 0.0204184 0.543073
17.7745 20.9466 19.3287 0.0590445 -0.145244 1.13
20.395 20.395 20.395 -1.69364 1.3682 0.389387
22.5807 21.1777 22.1033 -2.20832 -0.347018 -0.357713
24.4157 20.4498 20.003 -0.260762 1.43752 1.05871
26.6015 21.2325 21.7113 -1.63059 0.118158 -0.994079
26.5219 18.551 20.5199 -0.518439 0.698841 -1.49127
28.7076 19.3337 22.2282 1.41563 -0.583093 -0.962915
28.4365 20.5047 19.611 1.93982 -1.48014 -1.70517
30.6222 21.2874 21.3193 -0.905301 -0.283164 0.825648
30.5426 18.6059 20.1279 -0.013779 0.867606 -0.0672524
32.7283 19.3886 21.8362 -0.430213 0.393741 1.02659
32.4572 20.5595 19.219 -2.4232 -2.88232 0.276024
34.6429 21.3422 20.9273 -0.242798 0.935627 -0.746533
34.5633 18.6607 19.7359 -0.448937 -1.89215 -0.0119631
9.61613 23.0038 21.0943 1.60751 -0.698417 2.24302
9.34499 24.1748 18.4771 0.176238 0.132174 -1.12549
11.3976 25.1966 21.8908 -0.412384 0.604577 0.0431762
8.77707 25.7482 20.8245 0.380743 1.01055 -0.736414
14.586 23.0716 20.6097 -0.0863938 -1.21981 -0.754054
12.2366 22.4522 22.1606 1.59949 -0.927334 0.681605
11.9655 23.6232 19.5434 -1.02304 -0.612537 -0.346779
13.747 25.816 20.3399 1.28905 0.116362 -0.0940278
17.2065 22.52 21.6761 -1.83818 1.97646 0.345387
16.9354 23.691 19.0589 0.549592 2.35835 -2.8735
18.988 24.7128 22.4726 -0.897315 -0.148861 1.75277
18.7169 25.8837 19.8554 0.211651 -0.548486 -0.158232
16.3675 25.2644 21.4062 0.0285978 -1.73935 -0.58323
19.5559 23.1394 20.1252 -0.818142 2.11356 -2.38833
22.3096 22.3486 19.4861 -1.86754 0.432922 -0.241792
21.7417 23.9221 21.8335 -0.373049 -0.497334 -1.4799
21.4705 25.093 19.2163 0.793649 1.50627 -0.0436782
24.4953 23.1313 21.1945 -0.368462 -0.62696 -1.40257
24.2242 24.3023 18.5773 -0.407701 0.0280312 0.872723
23.6562 25.8757 20.9246 -2.87216 0.674517 -1.62766
26.4099 25.085 20.2856 -1.0962 0.382845 -0.515349
26.3303 22.4035 19.0941 1.14466 2.44306 -0.623245
28.5956 25.8677 21.9939 -1.30447 0.671328 -1.22847
28.516 23.1862 20.8025 -1.59291 0.397168 -1.13586
30.4306 25.1398 19.8936 1.02971 1.26078 -0.127725
30.3511 22.4583 18.7021 1.09343 -0.853474 -1.30463
32.5368 23.241 20.4105 -1.05136 1.92443 0.535493
34.3718 22.5132 18.3101 -0.31897 0.168961 1.98009
11.1264 26.3675 19.2736 -2.2358 0.218773 -0.607967
10.5585 27.941 21.621 -0.364613 -1.3744 -0.752967
15.2573 29.1797 18.5192 -1.34978 0.457333 -0.162734
12.9079 28.5603 20.0701 -1.06895 -1.92516 -0.321811
16.0963 26.4353 18.789 -0.537229 0.542523 0.94127
18.1489 27.4572 22.2028 1.46799 -1.60251 0.954172
17.8778 28.6281 19.5855 -0.297591 -0.66575 2.64276
15.5284 28.0087 21.1364 2.66501 -0.837955 1.35994
20.9026 26.6664 21.5637 0.664258 2.07753 -0.523394
20.6314 27.8374 18.9465 -0.966858 0.638913 -1.28497
20.0635 29.4108 21.2939 0.0718922 0.788899 -0.81883
22.8172 28.6201 20.6548 1.11492 0.545729 2.34947
23.3851 27.0467 18.3074 1.02686 -0.379922 0.790284
25.5708 27.8293 20.0158 4.36733 -0.935918 0.528257
25.0029 29.4028 22.3632 -1.32481 0.256114 0.39249
28.3245 27.0386 19.3767 -0.973794 -1.34799 1.05338
27.7566 28.612 21.7241 -0.599698 0.961434 0.853881
27.4854 29.783 19.1069 -0.740888 0.782257 0.704733
14.6893 30.7531 20.8666 -0.432487 0.44686 -0.519515
12.34 30.1338 22.4175 -1.39517 0.912728 0.81222
17.3099 30.2015 21.9329 0.378083 0.453085 -2.47773
17.0387 31.3725 19.3157 0.083003 0.217009 1.10783
19.2244 32.1552 21.0241 1.19064 0.342242 -0.845345
19.7924 30.5818 18.6767 0.928416 1.62496 0.395063
21.9781 31.3644 20.385 1.09361 0.0974481 -1.77223
24.7318 30.5737 19.746 -0.376474 -0.174591 -0.178372
24.1638 32.1471 22.0933 -0.958346 -0.00608357 0.0369459
26.9175 31.3564 21.4543 0.455064 -0.170367 1.6923
18.576 10.9281 24.2709 0.651635 -0.850484 -0.76926
14.3028 13.6256 24.3358 0.3377 -0.102168 1.1603
11.6823 14.1772 23.2695 0.162552 0.585731 -2.73539
19.2727 13.6934 23.8513 1.03427 0.391356 0.7983
16.9233 13.074 25.4022 0.172751 0.46809 -0.1338
16.6522 14.245 22.785 0.967442 -1.19503 -0.213116
15.9555 11.4797 23.2045 1.14982 0.680907 0.126691
22.3467 13.389 26.5658 0.0306618 -0.774412 1.28877
22.0756 14.5599 23.9486 0.693202 0.699734 1.05878
19.5438 12.5225 26.4685 -0.364326 -0.37199 0.156192
21.3789 11.7946 24.3682 0.109845 0.361077 -0.792207
25.1495 14.2555 26.6631 0.339556 0.699111 0.369771
24.1817 12.6611 24.4655 0.818334 1.87913 0.534906
26.9846 13.5277 24.5628 -0.554504 -0.822322 -0.554917
10.9975 17.9175 26.5985 0.636294 -0.198821 0.872399
10.0296 16.3231 24.4008 -0.562043 0.0183518 1.55614
13.3469 18.5369 25.0476 -0.152433 -1.00036 -2.05203
15.2707 15.22 26.5335 0.683561 -0.600615 0.890241
14.9995 16.3909 23.9163 -2.39623 1.28324 0.494285
12.6502 15.7716 25.4672 1.14812 -0.710128 -0.245944
12.379 16.9425 22.85 0.504833 -1.59922 0.471156
15.9674 17.9853 26.114 0.90856 -1.49474 -1.77329
17.6201 15.8394 24.9826 -0.178659 -0.899952 0.101248
20.9373 18.0531 25.6294 1.78788 -0.738777 -0.367561
23.0434 16.1543 26.1463 1.07417 -0.538506 -1.16827
22.7723 17.3253 23.5291 0.778743 2.00099 -0.341688
20.2406 15.2878 26.049 -0.340372 -0.833152 -0.318003
19.9694 16.4587 23.4318 -0.0494767 0.885457 -0.917507
24.958 18.1079 25.2374 -0.376941 -1.04559 0.771778
24.8784 15.4265 24.0459 1.45903 0.990266 0.373592
26.793 17.3801 23.1371 -0.446254 -2.26989 -0.896207
27.0641 16.2091 25.7543 0.1543 0.516898 -0.980738
28.9787 18.1628 24.8454 -0.165475 0.757162 1.1306
28.8991 15.4813 23.6539 0.0357159 -0.486558 -0.917825
30.8137 17.4349 22.7451 -0.37827 -1.14779 -0.51306
10.7263 19.0885 23.9813 0.0578524 -0.978849 0.601703
10.1584 20.6619 26.3287 0.169298 -0.308448 1.42471
9.88727 21.8329 23.7115 1.40128 -0.0397389 3.45017
15.1283 20.7297 25.8441 -2.13934 1.38064 -0.26774
14.8572 21.9006 23.2269 0.783016 -0.156383 0.160849
12.5078 21.2813 24.7778 1.45084 2.04896 1.08808
18.3168 18.6047 24.5631 0.778683 -0.227652 -0.168964
15.6962 19.1563 23.4968 -1.32206 -0.544997 -1.96751
17.4777 21.3491 24.2933 -1.67781 0.0770405 -1.0398
20.6661 19.224 23.0122 -0.21608 1.64678 -1.56062
20.0982 20.7975 25.3596 2.0131 -0.318639 0.497136
19.8271 21.9684 22.7424 0.830139 0.511802 -0.929235
22.8519 20.0067 24.7205 -2.81737 -1.77527 -0.325476
25.0376 20.7894 26.4289 -0.609299 1.43091 -0.548606
24.7664 21.9604 23.8117 0.591769 0.22794 -1.28341
24.6869 19.2789 22.6202 -1.23411 -0.227918 2.07437
26.8726 20.0616 24.3285 -0.292995 -0.575568 0.337372
29.0583 20.8443 26.0369 0.0548676 0.131697 0.721292
28.7872 22.0152 23.4197 1.66005 1.61597 0.112279
30.8933 20.1164 23.9365 1.1638 -0.446541 1.29297
32.8079 22.0701 23.0277 -0.0575238 1.22584 2.09955
9.31934 23.4063 26.0589 0.776768 0.220752 0.246513
9.04821 24.5772 23.4417 -0.403513 0.148118 -0.182761
14.2892 23.4741 25.5743 -0.679078 -2.08036 -1.61136
14.0181 24.645 22.9571 -1.35484 1.03557 -1.20895
11.6687 24.0256 24.508 -0.827426 -0.613988 2.16651
19.2591 23.5418 25.0898 -0.0107408 -0.188213 -0.369377
16.9098 22.9225 26.6406 -0.846389 -0.469769 -0.612541
16.6386 24.0934 24.0234 -1.52617 -1.31191 0.189649
16.0707 25.6668 26.3708 -0.665591 0.439188 1.63918
22.0128 22.7511 24.4507 1.18838 0.541852 1.23361
21.1737 25.4955 24.1809 0.712939 -1.19828 0.385102
24.1985 23.5338 26.1591 -0.883918 -1.29169 -1.12073
23.9274 24.7047 23.5419 1.65443 -0.955705 0.701815
26.9522 22.7431 25.52 -2.56383 0.550459 0.789852
26.681 23.914 22.9028 0.0342603 0.205867 -1.54361
26.1131 25.4874 25.2502 -1.82051 1.70901 0.517903
28.8668 24.6967 24.6111 -1.80012 -0.500595 0.199157
30.7018 23.9689 22.5108 -0.08916 -1.41396 -0.975209
30.9729 22.7979 25.128 -0.0337148 -0.431766 0.436428
10.8297 26.77 24.2382 -0.696783 -2.14681 -0.830448
8.48027 26.1507 25.789 -1.26842 -0.521436 -1.29545
8.20913 27.3216 23.1718 0.382083 -0.2654 1.4565
10.2617 28.3434 26.5856 -0.0287172 0.851238 -1.62143
9.99058 29.5144 23.9684 0.853949 -2.48647 -3.03252
13.4502 26.2184 25.3045 -1.12888 -1.33606 0.120505
13.179 27.3894 22.6873 -0.40251 2.5456 -0.308461
15.2316 28.4112 26.101 0.729448 -1.56963 -0.849816
14.9605 29.5822 23.4838 1.59303 -0.188744 -0.649847
12.6111 28.9628 25.0347 0.155447 1.58877 -0.156947
18.4201 26.2862 24.82 2.11334 -1.25014 2.25279
15.7995 26.8378 23.7536 0.41862 0.567602 -1.19848
17.581 29.0306 24.5501 0.00820719 0.880518 0.7576
20.6058 27.0689 26.5283 -1.43086 1.72492 -0.124047
20.3347 28.2398 23.9111 -1.86915 0.347424 0.497899
23.0883 27.4491 23.272 0.864799 0.258558 -2.02945
19.7667 29.8133 26.2585 0.125509 0.557329 -0.126872
22.5204 29.0225 25.6194 0.876426 0.431736 -1.07754
23.3594 26.2782 25.8892 2.49837 -0.404766 0.457194
25.842 26.6584 22.633 0.689513 -0.421482 -0.876
25.274 28.2318 24.9804 -0.960802 -0.115741 1.21266
28.0277 27.4411 24.3413 0.942916 0.927544 -0.801167
19.4956 30.9842 23.6413 0.798962 0.878532 -0.225079
22.2492 30.1935 23.0022 0.178836 2.31155 -1.86364
21.6813 31.7669 25.3496 2.16233 -0.919088 -0.692716
21.4102 32.9379 22.7324 -0.0995312 -1.06 0.811802
24.435 30.9762 24.7105 0.676985 -0.0705516 0.149385
23.5959 33.7205 24.4407 -1.76974 -0.663559 1.17489
26.6207 31.7589 26.4189 -0.806616 1.21501 1.62671
26.3496 32.9298 23.8017 -0.535301 -0.400667 0.541657
27.1886 30.1854 24.0715 -0.18717 0.191017 -1.04719
17.8912 14.6684 27.5998 -0.383209 1.98165 0.0503966
20.5117 14.1168 28.6662 -0.532301 0.266877 1.9673
13.618 17.3659 27.6648 1.45263 2.08083 0.542987
18.859 16.2628 29.7975 -0.0817242 0.544338 0.11825
18.5879 17.4337 27.1803 -1.44906 -0.367426 0.442034
16.2385 16.8144 28.7312 -1.4579 -0.550228 -0.707829
21.4795 15.7112 30.8638 1.03271 0.408512 0.916418
21.2084 16.8821 28.2466 0.853369 0.187246 -0.0966832
20.6405 18.4556 30.594 0.835076 -0.76103 1.06853
23.3941 17.6648 29.9549 -0.00193761 0.274254 1.1734
23.3145 14.9833 28.7635 -0.213467 0.200298 1.56249
25.2291 16.937 27.8546 0.0213118 -0.410539 -0.530362
15.3994 19.5587 28.4613 -1.20734 -0.160706 0.555407
12.7789 20.1103 27.395 0.602521 0.810528 -0.661896
14.5604 22.3031 28.1915 0.343081 0.019833 0.0409291
18.02 19.0071 29.5277 0.390003 0.526235 1.49787
17.7488 20.1781 26.9105 -0.212475 -0.598072 -0.675399
17.1809 21.7515 29.2579 -0.630883 1.47247 -0.717073
20.3693 19.6265 27.9768 -0.073396 -0.512973 0.450746
23.123 18.8358 27.3377 -0.503772 -1.2249 -0.071786
19.8014 21.1999 30.3242 1.68528 -0.537599 -0.380171
22.5551 20.4092 29.6851 0.925898 -0.177766 0.173247
22.2839 21.5802 27.0679 0.206446 1.20798 0.692863
25.3087 19.6185 29.0461 -1.60967 0.889886 1.39782
27.2233 21.5721 28.1372 0.47566 0.19829 0.240431
27.1437 18.8906 26.9457 -0.480119 1.65873 -0.0928863
11.1008 25.5991 26.8554 -0.676157 0.0586388 -1.69963
11.9399 22.8547 27.1252 -1.74159 0.20236 -1.56317
13.7213 25.0475 27.9217 -0.132352 0.672422 -1.5512
18.9623 23.9443 30.0544 1.23286 1.91124 -0.444927
18.6912 25.1153 27.4372 -0.122874 -1.68068 -0.270211
16.3418 24.4959 28.988 -0.574131 2.49703 0.615223
19.5303 22.3709 27.707 0.157917 -1.33042 0.72445
21.716 23.1536 29.4153 -0.000829919 1.65807 2.01913
21.4449 24.3245 26.7981 0.703371 -0.27462 0.362609
20.8769 25.8979 29.1455 2.10711 1.18944 0.205284
24.4697 22.3628 28.7763 -0.210645 -1.36767 1.34301
23.6306 25.1072 28.5064 1.23741 -0.19793 -0.205822
26.3842 24.3165 27.8674 0.0170522 0.933582 -0.73682
29.1379 23.5257 27.2283 1.11794 0.451218 0.859099
12.8822 27.7918 27.6519 -0.712146 -2.56083 -1.64482
18.1233 26.6887 29.7845 -2.71416 -0.614433 0.411513
17.8521 27.8596 27.1673 -0.0012449 2.6694 -0.318511
15.5028 27.2403 28.7182 -0.0455101 -2.20839 -0.379242
20.0379 28.6423 28.8757 -0.279588 3.44405 -0.548664
22.7915 27.8516 28.2366 -0.410997 -0.228552 -0.892347
25.5452 27.0608 27.5976 1.75306 -1.22739 0.56742
24.7061 29.8052 27.3277 2.44688 -1.62788 -1.77459
28.2988 26.2701 26.9585 0.387872 -1.55256 -1.2006
27.4598 29.0145 26.6887 -0.602033 1.55033 -0.684467
21.9524 30.596 27.9668 0.875042 -1.24381 -0.413075
23.867 32.5496 27.0579 -0.315144 0.0587672 -1.8725
ITEM: TIMESTEP
1000
ITEM: NUMBER OF ATOMS
454
ITEM: BOX BOUNDS ss ss ss
8.5252482047900777e+00 3.3749760007929574e+01
7.8516990283709722e+00 3.2946663488683676e+01
9.7156296996887832e+00 3.0922090586449556e+01
ITEM: ATOMS x y z vx vy vz
20.537 10.7611 12.7731 -0.767068 1.279 -1.17311
22.6471 9.04783 13.4245 -0.0314559 0.258831 -0.851834
25.2078 10.0269 13.4965 -0.507833 -0.453267 0.0938685
14.3492 13.9353 12.9931 -0.36493 0.368802 1.97961
16.5666 14.5275 11.4449 1.37655 -0.883172 -0.568696
18.732 12.7782 11.9482 1.55449 0.140605 -0.259193
21.3187 13.2549 11.9441 0.449772 -0.480366 1.57594
24.0575 14.2749 12.1806 -1.55662 -0.210936 -0.25189
25.9793 12.5258 12.904 0.641063 1.29413 0.689649
23.2301 11.6369 12.7973 -0.334754 -0.508841 2.21848
26.5889 15.3415 12.3397 -1.77757 0.466983 -0.17974
14.8281 16.514 12.4969 1.33574 1.53838 0.870602
13.3935 18.4372 13.6959 0.901297 1.36334 1.9807
18.0462 18.558 13.2822 1.25966 -0.824879 1.10825
17.4893 15.8529 13.5564 1.04566 2.24773 1.77696
17.1947 17.1568 11.1562 -1.17937 -1.77874 0.647031
22.8765 17.6486 13.9224 -0.0758442 -0.54329 0.527159
22.5871 18.7688 11.2516 0.690841 -0.106793 1.34096
20.2434 16.8888 13.6378 -1.11991 0.858786 -1.42281
19.7274 18.1816 11.1257 -0.97125 1.66223 -1.02036
21.8338 16.0089 11.595 -0.207229 -1.00645 -1.17226
19.2013 15.3496 11.5573 1.6345 1.60775 1.48103
25.7695 18.3808 13.8575 -0.856175 0.215667 5.67781
24.6332 17.1419 11.5956 -0.168202 -0.613953 -0.150624
27.591 17.7755 12.0564 0.925082 0.360156 -2.37381
29.5478 18.6175 13.6382 -1.34414 1.17545 -0.26023
14.0231 21.1544 13.1778 0.273903 -0.101082 2.4537
18.827 21.3645 12.7556 0.53811 -0.166556 -0.471897
18.6199 22.5974 10.2681 0.672076 -0.535359 2.05966
17.7993 19.8672 10.7323 0.627381 -0.417335 -1.66356
16.3134 21.8548 11.8674 1.49337 0.865583 -0.530542
15.6102 19.2106 12.1355 -0.433618 0.714718 -0.0438238
21.5855 22.2149 12.8916 0.764569 -0.0239191 -0.639013
20.7609 19.6225 13.3499 1.99456 0.200789 0.0684397
20.6013 20.7948 10.7377 -0.324481 -0.833217 -1.95992
23.5825 20.2385 13.4277 3.11898 -1.92068 -1.24823
23.2845 21.266 10.9538 0.0597938 -1.02612 1.42047
25.6284 22.2911 12.4658 -1.73119 0.816813 -0.972293
25.334 19.6589 11.4939 -0.106566 -0.617577 0.104484
27.7131 20.4319 13.0432 -0.506641 -0.227362 1.32536
14.8026 23.7217 12.9355 -0.305779 -0.676692 -1.52679
19.2613 25.1228 9.91127 -0.762733 0.138021 0.574622
17.2773 23.4079 13.9927 0.784376 -0.414296 -0.409832
17.0408 24.4828 11.3479 -1.41833 0.338165 -0.280742
16.5463 26.1142 13.358 -0.749208 -0.806888 0.357019
19.6072 23.9387 12.618 -0.191458 0.376099 -1.84289
21.3783 25.9142 11.5993 -0.245524 0.319946 -0.077613
21.4506 23.3839 10.2897 -0.310533 0.950659 0.860787
23.4889 23.9851 12.0179 0.0871076 -0.150498 -1.51195
25.561 24.7231 13.634 -0.288285 -0.537819 -0.843858
18.7791 26.5201 12.0207 -0.298044 -0.351866 1.60345
20.7996 27.5039 13.7546 -1.4558 2.24308 -0.287821
23.551 26.6188 13.3767 0.118465 0.260762 1.15979
19.1267 10.0312 17.4396 -1.16197 1.87301 -0.487718
21.6984 10.8588 17.544 0.616412 0.0968185 0.236703
21.0621 8.31211 18.1622 0.631215 0.590196 -0.909272
20.6781 9.41327 15.334 0.670745 0.569117 0.285251
22.9269 8.05645 16.0466 0.262853 -0.320085 1.06989
26.5821 10.093 18.2689 -0.485781 1.15517 0.379788
26.5871 11.3834 15.5588 -0.350477 0.914931 -1.12245
23.7348 9.12961 18.2264 -1.92388 2.2059 0.00251551
23.3413 10.6729 15.6134 -0.6623 0.862907 1.33705
25.5251 8.88232 16.1138 -0.353954 0.0313936 -0.909138
10.3741 12.589 16.3111 -1.25726 -1.89561 -1.72287
8.61311 14.4479 17.7315 1.02502 0.108819 -0.568374
15.5115 13.7956 17.9116 0.422721 1.6576 -1.01262
14.6696 12.4679 15.6508 0.81637 2.09865 2.09578
13.0288 14.4647 16.9745 -0.288499 -0.365577 2.23827
12.7306 11.6967 17.4255 -0.827166 -0.135482 0.110794
12.3454 13.1008 14.7357 0.691957 -1.23626 0.0239075
17.6395 14.4646 16.3369 -0.151744 0.344336 -0.548177
17.1277 11.7684 16.7456 0.493167 0.127901 -0.556309
16.7969 13.1473 13.7046 0.919423 -0.290026 -0.362791
18.8137 11.3469 14.5933 -1.16011 -0.209423 0.47574
22.405 13.8077 17.0836 -1.09512 -0.744934 0.38946
22.3257 14.9463 14.2681 0.230827 1.3384 -0.0387664
19.7401 12.8636 16.9518 0.0709598 0.853954 -1.03041
19.5697 14.1479 14.139 0.464248 2.62861 2.93462
21.4707 12.1341 14.7829 -0.223363 -0.0209861 1.14988
25.3938 14.3926 17.1453 -2.95986 0.285291 -0.409026
24.5936 11.7243 17.5284 -0.0692654 -0.345452 -0.330706
24.3897 12.9616 15.0403 0.777251 0.702983 1.38525
27.3654 12.4862 18.0014 0.212671 1.38416 0.881013
27.049 13.8274 14.8288 0.263149 -0.177034 -0.467806
11.4095 16.6537 18.1156 2.63329 -1.49806 0.325003
10.9943 17.6555 15.1849 0.994387 -0.52218 0.0459065
10.6314 15.1785 15.9529 1.00642 -0.0964784 1.62413
8.95901 17.3356 16.9542 -1.51557 2.16007 0.529513
15.209 14.9592 14.9817 0.834175 1.06921 -0.552206
13.7404 17.1934 16.3693 3.87058 -1.1073 -0.125591
12.6122 15.7891 14.3126 1.57652 -0.654132 2.25528
18.4261 17.3231 15.8052 2.21087 -0.858304 0.138503
16.3132 16.6298 17.6638 0.255944 0.842181 -1.06353
15.8095 17.8379 14.6652 -0.192106 -1.76656 -1.31066
21.2435 18.2418 16.0423 -0.00854192 -0.357531 -0.171595
20.466 15.6313 16.4326 -2.45218 2.04805 0.540078
26.2064 16.9778 16.6843 -1.4908 -0.263514 -0.436534
23.4601 16.3877 16.5404 -1.0663 1.51902 -0.358011
24.9836 15.6585 14.1916 -1.68266 2.70126 0.78438
28.1642 15.1199 17.3257 0.658262 1.25947 1.17796
27.8111 16.5494 14.4716 -0.630878 1.98411 0.55056
29.7595 17.1536 16.2235 -0.64889 0.675763 1.83175
31.7684 17.661 17.9786 -1.02688 -0.0943202 0.924569
11.7649 20.6101 14.8653 -0.743003 -0.905476 0.831275
9.77044 19.865 16.2865 0.844058 1.36537 0.056754
15.2029 21.3753 18.3062 -2.00104 0.507449 0.131067
12.6226 21.9448 17.1271 2.73703 -1.84619 1.69399
14.202 19.9354 15.7911 -0.587885 0.160493 -0.796513
11.9921 19.3662 17.4013 2.19892 0.552857 -0.709935
17.4311 22.2019 16.5423 -1.46346 -0.764881 -0.314915
19.1364 20.0229 15.4906 0.140349 -0.851625 0.554075
16.7948 19.3466 17.0291 -0.533005 -0.792283 0.950064
16.514 20.7417 14.416 -1.26593 0.0419048 0.966078
20.1961 21.7368 17.7628 0.845239 -0.731688 3.51516
22.2473 19.6842 18.1543 0.925206 -0.149266 0.626287
21.9435 20.9489 15.5428 -0.762388 -0.606784 0.408333
19.47 18.8605 18.1283 0.344726 -0.533874 -0.16731
24.1613 21.6543 17.173 0.672541 1.23873 0.710985
24.1282 19.0333 16.0686 0.701786 -0.369155 -0.799029
26.2041 19.6152 17.8871 -0.474893 0.387311 -0.577013
25.9303 20.9327 14.9774 -2.29642 0.308465 0.0285994
27.9792 21.6804 17.0103 -0.366384 1.22065 2.1642
27.8345 19.0637 15.6476 -3.36673 1.56109 -1.33172
29.9137 19.7832 17.5018 -0.262931 0.051324 1.03464
29.6186 21.1264 14.745 -0.883791 0.0704026 0.848242