ITEM: TIMESTEP
0
ITEM: NUMBER OF ATOMS
489
ITEM: BOX BOUNDS ss ss ss
4.3080645503290933e+00 3.6481935449670878e+01
5.7260096804759018e+00 3.5063990319524095e+01
5.5857824481115843e+00 3.5204217551888398e+01
ITEM: ATOMS x y z vx vy vz
20.6781 16.3745 9.60307 -1.79604 -0.514074 0.16756
17.951 20.5504 9.51295 -0.114855 -0.39141 -0.629767
20.2239 19.0356 8.59976 -0.200077 2.02382 1.21005
19.7697 21.6967 7.59646 1.31746 0.629503 -0.00458433
21.9717 21.187 9.38125 0.932531 -1.91987 -1.33247
15.2239 24.7263 9.42284 -1.37129 2.52678 0.880678
17.4968 23.2115 8.50965 0.747786 -1.25334 -0.862243
19.2447 25.3629 9.29114 -1.25561 -1.8496 -1.28026
17.0426 25.8726 7.50636 -0.541752 -2.2734 -0.874904
19.3154 24.3578 6.59317 -0.0107876 -2.63574 1.26622
21.5175 23.8481 8.37795 0.561715 -2.22257 1.42828
23.2654 25.9996 9.15944 0.374605 -0.0680444 0.253001
21.0633 26.5092 7.37466 0.80811 -0.820917 -1.01445
18.7904 28.024 8.28785 1.72925 0.0194825 0.0758276
18.8612 27.0189 5.58986 0.760736 0.17362 -0.150708
19.7679 9.90599 13.5262 0.581233 0.634666 -1.49999
22.495 5.73009 13.6163 1.24286 0.565304 1.26696
22.0408 8.39119 12.613 1.29479 1.98615 -0.420971
17.0408 14.0819 13.436 -0.554314 -0.831247 -0.466668
19.3137 12.5671 12.5229 -0.88312 -1.8068 0.225271
23.7886 10.5426 13.3945 -0.0714545 -1.62342 -0.269232
21.5866 11.0523 11.6097 -1.50803 0.251593 -1.1812
23.3344 13.2037 12.3912 1.09401 0.836668 -0.340711
21.1323 13.7134 10.6064 -0.542462 2.56143 0.630941
14.3138 18.2578 13.3459 0.144522 1.60203 -0.476136
16.5866 16.743 12.4328 -1.74138 -1.10604 0.749139
18.8595 15.2282 11.5196 -2.32853 -2.04873 1.19877
18.4053 17.8893 10.5163 -1.81344 1.70662 0.493543
21.0616 14.7185 13.3043 0.3044 0.0839107 -0.0368517
20.6073 17.3796 12.3011 0.363111 0.0826409 0.0699
22.8802 15.8648 11.3879 -0.642681 0.488057 1.63309
25.0823 15.3552 13.1726 -2.18406 0.899239 0.510085
26.8301 17.5066 13.9541 0.112574 0.260155 0.651229
24.628 18.0163 12.1694 0.434395 0.603966 -1.2317
11.5867 22.4337 13.2558 0.0173745 2.69243 -0.323635
13.8595 20.9189 12.3426 -1.41722 1.73861 -0.1357
16.1324 19.4041 11.4294 2.51442 -0.402047 0.439547
15.6782 22.0652 10.4261 -0.190601 0.733406 1.157
18.3345 18.8944 13.2142 -0.342259 0.541522 0.354263
20.0823 21.0459 13.9957 0.610004 0.876265 -0.619849
17.8803 21.5555 12.2109 0.869959 0.249512 -2.07375
20.1531 20.0407 11.2977 0.691418 -0.4395 -0.925503
22.3552 19.5311 13.0825 -0.669093 -2.03314 -1.60789
24.103 21.6825 13.864 -1.35442 1.07442 -1.22815
21.901 22.1922 12.0792 4.36568 -0.967328 0.457475
22.426 18.5259 10.3846 -1.30833 0.646786 -1.28526
24.1738 20.6774 11.166 -0.98583 -1.38801 0.976526
26.3759 20.1677 12.9508 2.67525 -0.816214 1.30703
28.1238 22.3191 13.7323 -1.35371 0.468182 -0.240963
13.3345 24.5851 14.0373 0.0182067 0.888397 0.730745
15.6074 23.0703 13.1241 -1.86475 0.346533 0.463887
13.4053 23.58 11.3393 1.64216 1.57766 0.110924
15.1532 25.7314 12.1208 -1.62393 0.344494 -1.16215
17.3552 25.2217 13.9056 0.0703352 0.775937 -0.877878
19.6281 23.707 12.9924 1.11179 0.524398 2.288
17.426 24.2166 11.2076 1.38405 -0.621381 -0.96263
19.1739 26.3681 11.9891 1.90034 -1.53235 -1.72913
19.6989 22.7018 10.2944 -0.00247651 -0.508974 -0.891135
21.376 25.8584 13.7739 -1.01786 0.474287 0.410513
23.6488 24.3436 12.8607 1.58341 0.384429 2.01061
21.4467 24.8533 11.0759 0.138432 1.27461 0.819061
23.7196 23.3385 10.1627 -0.476373 -0.167706 -1.88725
25.3967 26.495 13.6422 1.11532 0.488289 0.784558
25.9217 22.8288 11.9475 -0.744877 0.000283386 0.287576
27.6695 24.9802 12.729 0.0411054 0.163179 0.664073
25.4675 25.4899 10.9442 0.830457 0.776381 0.125924
16.901 27.8829 12.9023 1.41292 -1.71084 1.40581
18.6489 30.0343 13.6838 1.78591 -0.151215 -0.521301
16.9718 26.8777 10.2043 0.739941 0.294732 -1.82886
18.7197 29.0292 10.9858 -0.417859 2.37942 0.901792
20.9217 28.5195 12.7706 0.571757 -0.0326542 1.76022
23.1946 27.0047 11.8574 -1.15807 -1.04393 -0.503428
20.9925 27.5144 10.0726 0.84767 -0.00175028 1.86859
17.9493 8.75967 15.4427 -1.1933 -0.56473 -1.16718
20.2221 7.24488 14.5295 1.75339 -0.46583 -0.324591
17.8785 9.7648 18.1406 -0.191854 3.5127 -0.553528
20.1514 8.25001 17.2274 1.83655 -1.18574 0.555366
21.97 9.39632 15.311 0.215281 -1.27243 0.758337
24.2429 7.88152 14.3978 -0.32936 -0.488 -1.47352
22.4242 6.73521 16.3143 0.0295486 -0.419179 0.437836
24.1721 8.88665 17.0957 -0.0346061 -1.41541 -0.998969
11.1307 13.3041 18.1822 -2.77995 -1.77737 -0.249896
13.4036 11.7893 17.269 0.736904 -0.907727 1.76874
15.1514 13.9407 18.0505 1.67256 -0.635725 0.0536058
15.6764 10.2745 16.3558 1.54708 0.0873003 -0.832429
15.2222 12.9356 15.3525 -0.158648 -0.880691 0.21156
17.4243 12.4259 17.1373 0.0752578 -0.226625 -0.336308
19.6971 10.9111 16.2241 0.565038 0.209986 1.79401
17.4951 11.4208 14.4394 -1.37165 -0.786948 -0.663351
19.2429 13.5722 15.2208 -0.0282244 0.761992 1.38157
21.445 13.0625 17.0056 0.439746 0.609516 1.5557
23.7179 11.5478 16.0924 0.0377569 -0.141325 -0.360219
21.5158 12.0574 14.3077 -0.947215 -1.26891 1.57544
21.8992 10.4014 18.0089 -0.889694 -0.0852323 1.17828
25.4657 13.6992 16.8739 -0.858675 -0.1146 1.74164
25.9907 10.033 15.1793 0.830316 1.50569 -0.0585288
27.7386 12.1844 15.9607 -0.260005 -0.376246 0.0187886
25.5365 12.6941 14.1759 2.15921 -1.20497 2.23404
25.9199 11.0381 17.8772 1.07717 1.25034 -0.173532
8.40364 17.48 18.0921 0.885216 0.104906 1.00069
10.6765 15.9652 17.1789 0.987123 0.978277 -0.0883034
12.4243 18.1166 17.9604 0.0436609 -0.755075 1.40176
12.9494 14.4504 16.2657 -0.349751 -0.349266 0.292906
14.6972 16.6018 17.0472 1.04214 0.402453 0.912683
12.4951 17.1115 15.2624 0.504151 -1.09736 1.13547
14.768 15.5967 14.3492 1.27986 0.0558668 1.8163
19.1721 14.5773 17.9188 -1.99909 -0.270102 -1.93864
16.9701 15.087 16.134 -1.03914 -0.825678 1.4685
18.7179 17.2384 16.9155 -0.780676 -0.584607 0.277412
16.5158 17.7481 15.1307 0.161478 0.523176 -0.924977
18.7887 16.2333 14.2175 -0.427406 -2.54608 1.24104
23.1929 15.214 17.7871 -0.172197 -0.529026 -0.643787
20.9908 15.7236 16.0023 -0.0152574 -0.263433 2.03955
22.7386 17.8751 16.7838 0.803216 0.52539 0.889961
23.2636 14.2089 15.0891 -0.588105 1.55681 -0.693835
22.8094 16.87 14.0858 0.294685 -0.514436 -1.19552
27.2136 15.8506 17.6554 0.243189 -0.527459 -0.195218
25.0115 16.3603 15.8706 -0.812542 -0.400794 -0.612376
27.2844 14.8455 14.9574 1.50434 -1.57051 0.910406
29.4864 14.3358 16.7422 0.615047 -0.82163 0.962439
31.2343 16.4873 17.5237 -1.5715 0.984115 1.37518
29.0322 16.9969 15.7389 -0.272311 -0.645133 2.57811
7.94941 20.1411 17.0888 0.741032 -1.21351 0.413181
9.69727 22.2925 17.8703 0.683651 2.05414 -0.519788
10.2223 18.6263 16.1756 -2.857 0.63295 -1.61799
11.9701 20.7777 16.9571 1.03878 -0.435627 0.780077
9.76805 21.2874 15.1723 -0.235397 -1.29707 -2.04371
12.0409 19.7726 14.2591 -0.697049 -0.257852 0.656928
14.243 19.2629 16.0439 1.23421 -1.03234 -0.717708
15.9908 21.4143 16.8254 -0.467809 1.67994 -0.0677989
13.7888 21.924 15.0406 -1.13365 0.710475 -0.911408
16.0616 20.4092 14.1274 -0.770715 -2.21212 -0.284643
16.4451 18.7532 17.8287 -0.124147 2.29418 0.205757
18.2637 19.8995 15.9122 -0.448539 -2.28015 -0.863547
20.0116 22.051 16.6937 -0.529456 0.680008 -1.48265
20.4658 19.3899 17.697 -1.02767 -0.300642 0.831296
20.5366 18.3848 14.999 -0.198523 -0.496222 1.17044
22.2844 20.5362 15.7805 -0.0999678 -0.863588 1.42604
24.4865 20.0265 17.5653 -1.18193 -0.0685793 0.580062
26.7593 18.5117 16.6521 -1.5019 -1.25678 0.167703
24.5573 19.0214 14.8673 1.7923 1.10131 1.6234
26.3051 21.1728 15.6488 1.41763 -0.493453 -2.06239
28.5072 20.6632 17.4336 0.0463871 -1.69749 -0.629461
30.7801 19.1484 16.5204 1.06297 0.446395 -1.09138
28.578 19.658 14.7356 0.633152 -0.797991 -0.701291
30.3258 21.8095 15.5171 -1.00576 0.975513 1.66399
32.5279 21.2998 17.3019 0.0333424 1.76935 1.95823
11.5159 23.4388 15.9538 -0.745896 2.21555 -0.512539
13.718 22.9291 17.7386 0.595813 1.99156 -1.82334
13.2638 25.5902 16.7353 -0.420686 0.246401 -0.53098
15.5366 24.0754 15.8221 0.0783052 -0.885283 -0.321546
17.7387 23.5658 17.6069 -0.28906 -0.570125 0.339836
17.2845 26.2269 16.6036 0.669933 -0.551229 0.962473
17.8095 22.5606 14.9089 1.36079 -0.278294 0.386878
19.5573 24.7121 15.6904 0.630917 -0.132641 0.93061
21.7594 24.2024 17.4752 2.976 -0.679898 0.320886
23.5073 26.3538 18.2567 0.391172 0.948851 0.160857
24.0323 22.6876 16.562 0.449258 0.28074 -0.801036
21.8302 23.1973 14.7772 1.45086 2.10373 1.10932
23.578 25.3487 15.5587 1.59109 -0.889361 0.679071
25.7801 24.8391 17.3435 0.333176 0.842567 0.607682
28.053 23.3243 16.4303 0.0884913 0.412414 -0.749558
25.8509 23.8339 14.6455 1.28449 0.141258 -0.134897
27.5988 25.9854 15.427 1.06063 1.55777 0.905992
30.2551 22.8146 18.2151 -0.528855 0.574851 0.873927
29.8008 25.4757 17.2118 1.35159 0.161206 -1.26814
32.0737 23.9609 16.2986 -0.638052 0.600725 1.92553
29.8716 24.4706 14.5138 -2.69558 -0.511415 0.331444
34.2758 23.4512 18.0834 0.729883 -0.178691 0.276204
15.0116 27.7417 17.5168 0.148275 0.500797 -0.0454875
15.0824 26.7365 14.8188 0.37996 0.447692 -2.53227
19.0323 28.3783 17.3851 -2.42274 1.32255 0.542751
16.8302 28.888 15.6003 0.07584 0.198608 1.03503
19.1031 27.3732 14.6871 0.919409 1.60047 0.314474
20.7802 30.5297 18.1666 -0.726545 1.35491 0.452951
21.3052 26.8635 16.4719 0.0430441 -0.926428 0.636322
23.053 29.0149 17.2534 -1.37845 -1.26532 -0.557986
20.851 29.5246 15.4686 1.24098 -0.14569 -0.26824
23.1238 28.0098 14.5554 0.0159258 0.979353 -0.806768
27.528 26.9905 18.125 0.795837 1.92973 0.5541
25.3259 27.5002 16.3402 -1.0437 -0.58681 -0.373952
18.5781 31.0394 16.3818 2.1149 1.25163 0.15023
20.0806 9.25513 19.9254 -0.497062 -0.602762 1.90797
22.3535 7.74034 19.0122 0.447377 1.05636 -0.695702
24.1013 9.89177 19.7937 -0.596513 0.155008 -1.68054
22.2827 8.74547 21.7102 -0.14288 -1.09809 0.615928
13.3328 12.7944 19.967 0.226802 -0.248999 1.52851
15.6057 11.2796 19.0538 -0.0578191 0.741489 -1.50351
15.5349 12.2847 21.7518 0.757449 -1.79179 0.258811
17.3535 13.431 19.8353 -1.06436 -1.28245 0.147285
19.6264 11.9162 18.9221 0.20517 0.609309 -0.154372
17.8077 10.7699 20.8386 0.226294 0.119247 0.575702
19.5556 12.9214 21.6201 1.88498 -0.420764 -0.862393
21.3742 14.0677 19.7036 0.870921 0.918274 -0.275932
23.6471 12.5529 18.7904 -1.26284 0.274455 0.333758
21.8285 11.4066 20.7069 -0.515183 0.0927458 1.66443
23.5763 13.558 21.4884 1.04971 -0.784702 0.0297118
24.0305 10.8969 22.4917 -3.20011 -1.19642 0.202189
27.6678 13.1895 18.6587 -1.53913 0.49865 1.93733
25.8492 12.0432 20.5752 -0.625801 -2.06617 -0.833381
4.31214 17.8484 20.9218 1.07995 0.450301 1.04797
6.585 16.3336 20.0086 -0.0368249 0.588876 0.247334
8.85786 14.8188 19.0954 -0.0242123 -0.484415 0.543025
10.6057 16.9703 19.8769 2.05653 -0.302493 0.566261
8.78708 15.824 21.7934 0.152013 2.13872 -0.822054
11.0599 14.3092 20.8802 2.38115 1.67303 1.28299
12.8786 15.4555 18.9637 -2.17869 -0.359833 -0.305396
14.6264 17.6069 19.7452 -1.84608 0.408503 -0.212533
12.8078 16.4606 21.6617 -3.26746 -1.04848 0.421542
15.0807 14.9458 20.7485 1.45185 0.00740028 3.53356
16.8993 16.0921 18.832 2.39748 -1.06385 -0.518513
18.6471 18.2436 19.6135 0.298127 -1.84002 0.197813
16.8285 17.0973 21.53 1.64973 -0.664869 2.30152
19.1014 15.5825 20.6168 -0.345616 2.59189 -0.305491
20.92 16.7288 18.7003 -0.546482 0.472644 -1.92912
20.8492 17.7339 21.3983 -1.02161 -1.89773 -0.342077
23.1221 16.2191 20.4851 1.2545 0.368562 -0.920273
21.3034 15.0728 22.4016 0.922528 0.465303 -1.03526
24.9407 17.3654 18.5686 -1.64819 0.134338 -1.03191
25.3949 14.7043 19.5719 -0.321824 -0.169527 -0.26111
27.1428 16.8557 20.3534 0.450763 -1.49104 -1.27458
25.3242 15.7094 22.2699 -0.839146 -2.10572 0.139243
27.597 14.1946 21.3567 -0.301804 -1.30537 -0.77901
28.9614 18.0021 18.4369 0.223177 0.935063 1.24871
29.4157 15.341 19.4402 1.20334 -0.410774 1.26039
31.1635 17.4924 20.2217 -0.877252 -0.259853 0.769202
29.3449 16.3461 22.1382 -0.635347 -2.44157 -1.69239
6.06 19.9999 21.7033 0.891724 0.216048 0.010249
7.80786 22.1513 22.4848 1.81889 -0.723935 -0.284221
6.13078 18.9947 19.0053 -0.38957 -0.0395435 0.913414
7.87863 21.1462 19.7868 -1.17021 -0.428748 -1.40698
8.33286 18.4851 20.7901 -1.41468 -0.336829 0.548347
10.0807 20.6365 21.5716 0.807504 -0.209544 -0.0867126
10.1515 19.6314 18.8736 3.4936 -0.681844 0.454947
11.8993 21.7828 19.6551 0.35086 0.717653 0.456204
12.3536 19.1217 20.6584 0.863305 0.516412 -0.885297
14.1014 21.2732 21.4399 -0.795886 2.10771 -2.36962
14.1722 20.268 18.7419 0.698483 0.708426 1.14824
15.9201 22.4195 19.5234 1.0815 -0.0823096 -0.0550341
14.5557 18.612 22.4432 1.58031 1.67148 -1.57201
16.3743 19.7584 20.5267 -1.741 -1.13166 1.19228
18.1221 21.9098 21.3082 1.11675 -0.364402 0.319915
18.1929 20.9047 18.6102 -1.0859 -1.19678 1.0553
18.5764 19.2487 22.3115 0.207852 0.154188 -1.09486
20.395 20.395 20.395 1.0554 1.61534 -1.83247
22.6679 18.8802 19.4818 -1.42728 -0.458391 -0.653385
24.4157 21.0316 20.2633 0.933813 -1.41689 -1.74354
22.2136 21.5413 18.4785 -0.353684 -1.48672 0.329362
22.5971 19.8853 22.1798 0.0226792 -2.10859 -0.411053
26.6886 19.5168 19.3501 -1.81741 2.0237 0.331973
28.4364 21.6683 20.1316 0.565024 2.39343 -2.91458
26.2343 22.178 18.3468 -2.12386 1.46221 -0.26744
24.8699 18.3705 21.2666 -0.342157 -0.144661 -0.957169
26.6178 20.522 22.0481 0.938412 0.503857 -1.16583
30.7093 20.1535 19.2184 0.244395 -0.113162 0.80793
32.4571 22.3049 19.9999 0.963238 -0.0605676 0.126946
28.8907 19.0072 21.1349 0.997941 0.979808 -0.897813
30.6385 21.1586 21.9164 -0.555437 1.00106 0.736302
32.9821 18.6387 18.3052 -0.578388 1.5132 -0.597145
34.73 20.7901 19.0867 0.615706 0.295891 -1.35619
32.9114 19.6438 21.0032 1.11561 -0.843633 -1.38723
34.6592 21.7953 21.7847 0.735544 0.379095 -0.190211
11.8286 22.7879 22.3531 0.747128 0.0261872 0.60309
9.62649 23.2976 20.5683 0.646835 -0.637997 2.34828
11.3743 25.449 21.3498 0.0381846 -0.380175 -0.477073
11.4451 24.4439 18.6518 -0.958351 0.600855 -1.30563
15.8493 23.4246 22.2214 -0.633286 0.046764 -0.182178
13.6472 23.9343 20.4366 1.46324 0.996529 0.436812
15.3951 26.0857 21.2181 -0.977928 -0.440855 1.94269
13.193 26.5954 19.4333 -0.776851 -0.240312 0.825363
15.4658 25.0806 18.5201 0.495299 0.230837 0.234079
19.87 24.0612 22.0897 -1.20607 0.406881 0.481039
17.6679 24.5709 20.3049 -0.454272 0.21504 -0.0800915
19.9408 23.0561 19.3917 0.479765 -0.636932 0.774443
19.4866 25.7172 18.3884 -1.63714 0.111877 -1.01667
22.1429 22.5464 21.1765 -0.51239 0.35181 2.02504
23.8907 24.6979 21.958 -0.328828 -0.762421 -0.28663
21.6886 25.2075 20.1732 -1.1282 -0.52435 0.325678
23.9615 23.6927 19.26 -0.0815731 -1.60333 -0.293451
26.1636 23.1831 21.0448 -1.30852 -0.478516 -1.96124
27.9114 25.3345 21.8263 0.183072 0.840581 -1.12623
25.7093 25.8442 20.0415 1.46514 2.18609 0.567283
27.9822 24.3294 19.1283 0.793907 -0.0896132 0.138523
30.1843 23.8197 20.9131 0.207195 1.2885 0.466009
31.9321 25.9712 21.6946 -0.997779 0.0460305 0.908605
29.7301 26.4808 19.9098 -0.0853371 -1.16719 -0.800862
32.0029 24.966 18.9966 -0.794157 0.479173 -0.0154157
34.205 24.4564 20.7814 0.23416 1.31441 0.624061
36.4779 22.9416 19.8682 -0.354484 -0.572871 -1.49873
13.1222 27.6005 22.1313 -0.369251 -1.02879 0.803647
14.9408 28.7468 20.2148 -0.19261 -1.32104 1.33059
17.1429 28.2371 21.9996 -0.73274 0.0484824 0.439754
19.4158 26.7223 21.0864 1.31823 -1.17376 -2.16055
17.2137 27.232 19.3016 -2.55702 0.570811 0.761041
18.9615 29.3834 20.0831 0.0360234 0.213061 -1.59886
16.7595 29.8931 18.2983 0.93543 -1.1773 -0.148131
21.1636 28.8738 21.8679 -1.00757 0.0783587 1.29202
23.4365 27.359 20.9547 -0.44661 -0.109923 2.82773
21.2344 27.8686 19.1699 1.13332 2.42731 -0.668544
22.9823 30.0201 19.9514 -1.49245 -0.04306 -3.22242
25.1843 29.5104 21.7362 -0.385222 2.07874 0.073621
27.4572 27.9956 20.823 -0.150775 -0.912035 -2.05454
25.2551 28.5053 19.0382 -0.490121 -2.40864 -2.52431
16.6887 30.8982 20.9963 -0.875446 -1.25764 -1.15977
18.4365 33.0497 21.7778 1.65777 -0.933876 0.642074
18.5073 32.0445 19.0798 -0.471243 -0.554106 1.75158
20.7094 31.5349 20.8646 -1.10463 0.377602 -0.592399
22.2119 9.75059 24.4082 -0.634961 -0.774098 -0.0726666
13.262 13.7995 22.665 0.782421 0.492015 0.190292
15.4641 13.2898 24.4498 -0.373119 0.379125 1.06029
17.737 11.7751 23.5366 1.51815 -0.143792 -1.56531
19.4848 13.9265 24.3181 -1.17411 -0.645745 0.640865
20.0098 10.2603 22.6234 -1.04339 0.738119 0.00251106
17.6662 12.7802 26.2346 -0.390935 -1.91917 0.01289
19.939 11.2654 25.3214 -1.22258 0.252504 1.19297
21.7577 12.4117 23.4049 -1.48141 -2.28273 -1.40419
21.6869 13.4168 26.1029 1.0675 0.794171 -1.49138
23.9598 11.902 25.1897 -0.701739 -0.748356 0.391471
25.7784 13.0483 23.2732 -0.839364 -0.773829 0.232707
25.7076 14.0535 25.9712 1.94479 -1.38792 -1.54291
6.51422 17.3388 22.7066 -1.44917 -0.510765 0.886114
10.5349 17.9754 22.5749 1.16922 0.699962 0.282009
8.7163 16.8291 24.4914 -0.334802 -1.17386 -0.441964
10.9892 15.3143 23.5782 -0.448969 -1.36655 0.0108317
10.9184 16.3194 26.2762 0.980162 -1.19073 -0.431019
12.737 17.4657 24.3597 0.422188 -0.785464 -0.461588
15.0099 15.9509 23.4465 0.55556 1.64053 -0.127041
13.1912 14.8046 25.363 -0.506006 1.58673 -0.711518
14.9391 16.9561 26.1445 -0.0992027 0.212855 -1.09796
16.7577 18.1024 24.228 0.346338 -0.778868 -0.0409481
17.2827 14.4362 22.5333 1.14385 0.493027 0.404647
19.0306 16.5876 23.3148 -0.434185 2.84235 0.695456
17.212 15.4413 25.2313 -2.37749 -2.91414 0.285474
18.9598 17.5927 26.0128 0.562012 -0.794929 0.10479
23.0513 17.2242 23.1831 0.286191 0.556285 -0.823049
21.2327 16.0779 25.0996 -0.382646 0.655092 0.73987
22.9805 18.2294 25.8811 0.802212 1.25415 -0.937443
23.5055 14.5631 24.1864 0.329118 0.685414 -0.489605
27.072 17.8609 23.0514 -0.179997 2.4178 -1.19381
25.2534 16.7146 24.9679 -0.59563 0.655013 -0.317199
27.5262 15.1998 24.0547 0.941401 -2.85481 0.51727
29.2741 17.3512 24.8362 -0.784582 0.42158 1.91454
8.26208 19.4902 23.4881 -0.438575 -2.27095 1.03797
10.0099 21.6416 24.2696 0.401335 1.20865 -3.11838
12.2828 20.1268 23.3564 -0.563418 0.673577 0.50001
10.4642 18.9805 25.2729 0.0215601 0.831635 -0.0187585
12.212 21.132 26.0544 1.4141 -0.904023 -2.5356
14.0307 22.2783 24.1379 0.617346 -0.00467625 0.911432
16.3035 20.7635 23.2247 1.17944 -0.644747 -0.150043
14.4849 19.6172 25.1412 -0.22411 0.399866 -2.12195
16.2327 21.7686 25.9227 -0.247764 -0.58699 0.455682
20.3242 21.4001 23.093 -1.69319 0.297233 -1.54461
18.5056 20.2538 25.0095 -0.905631 0.265649 -1.78656
20.2534 22.4052 25.791 0.0270819 -1.74461 -0.971443
24.3449 22.0368 22.9613 0.790075 -1.48163 -0.905495
20.7784 18.739 24.0963 -1.69536 1.17087 1.42701
22.5263 20.8905 24.8778 1.86973 -0.417646 -1.13974
24.7992 19.3757 23.9646 0.189266 0.667372 -2.65869
26.547 21.5271 24.7461 -2.12631 0.331354 1.95864
24.7284 20.3808 26.6626 1.5465 0.594603 -0.409674
27.0012 18.866 25.7494 1.35988 0.156688 -0.908303
28.8199 20.0123 23.8329 0.834509 0.343799 0.23917
30.5677 22.1637 24.6144 -0.356035 0.258383 -0.213914
31.0927 18.4975 22.9197 0.224811 1.70109 -0.225681
28.7491 21.0174 26.5309 -1.63669 1.46194 1.59845
31.022 19.5026 25.6177 0.83377 0.0787703 0.352208
32.8406 20.6489 23.7012 -1.33658 1.01142 0.721606
9.55571 24.3027 23.2663 -0.196468 1.65224 -1.50214
11.3036 26.4542 24.0478 -1.6847 1.36059 0.427336
11.7578 23.7931 25.0511 -1.17971 1.01458 1.66969
13.5764 24.9394 23.1346 0.0696065 -0.152385 1.16761
13.5056 25.9445 25.8326 0.695489 1.10541 0.0202788
15.7785 24.4297 24.9194 0.710221 -0.727523 -0.997786
17.5971 25.576 23.0029 0.977388 0.571774 1.11017
17.5264 26.5811 25.7009 -1.1898 1.01195 1.84586
18.0514 22.9149 24.0062 0.526638 -1.54774 0.54483
19.7992 25.0664 24.7877 -1.00212 -1.07046 -0.792481
17.9806 23.92 26.7042 0.05108 -0.332012 -0.536682
21.6179 26.2127 22.8712 -0.195238 0.282308 1.59439
22.0721 23.5516 23.8745 -0.786396 -0.532925 2.167
23.8199 25.703 24.656 -0.379414 0.674642 0.017516
22.0013 24.5567 26.5725 -0.958383 0.408153 -0.0879107
24.2742 23.0419 25.6593 -1.21965 -0.0199123 -0.404048
26.0928 24.1882 23.7428 1.64621 -0.111513 -0.728468
27.8406 26.3396 24.5243 -0.390731 0.512288 -0.621174
28.3657 22.6734 22.8296 0.231226 2.37359 -1.97624
26.022 25.1933 26.4408 -0.848295 0.649612 1.16322
28.2949 23.6785 25.5276 -0.432655 1.04705 -1.53403
30.1135 24.8248 23.6111 1.13863 0.143745 -1.90792
32.3864 23.31 22.6979 -0.705455 0.808957 0.56373
13.0514 28.6056 24.8293 0.425594 0.534572 -1.03519
14.7993 30.757 25.6107 1.03589 1.08099 0.33099
15.3243 27.0908 23.9161 0.396829 0.0547733 -0.365578
14.8701 29.7519 22.9128 -1.23624 -0.222665 2.08482
15.2535 28.0959 26.6141 -1.63403 0.471219 0.524973
17.0721 29.2422 24.6976 -1.05645 1.04677 -0.967374
19.345 27.7275 23.7844 -1.46539 -0.58706 -2.16182
18.8908 30.3886 22.7811 -0.993139 0.228673 0.461435
19.2742 28.7326 26.4823 0.34676 -0.029485 1.23248
21.0929 29.8789 24.5659 0.0225928 0.36972 1.17286
23.3657 28.3641 23.6527 1.08555 -0.470198 -1.16336
21.5471 27.2178 25.5692 0.801319 1.29518 1.23531
23.2949 29.3692 26.3506 -0.499055 -0.950417 -0.155479
25.1136 30.5155 24.4342 0.781077 2.06012 -0.358853
25.6386 26.8493 22.7395 -0.0461645 0.945881 -0.91018
27.3864 29.0007 23.521 -0.759787 0.0118025 -1.86079
25.5678 27.8544 25.4375 -2.21398 0.275623 -0.657745
29.6593 27.4859 22.6078 -1.23041 0.615064 0.45244
16.5471 32.9085 26.3922 1.38306 0.559575 0.466188
18.82 31.3937 25.479 1.00748 -0.107369 0.761484
16.6179 31.9034 23.6943 -0.270177 1.43239 1.04454
18.3658 34.0548 24.4757 0.609762 -0.439307 1.69069
20.5679 33.5451 26.2605 0.860106 -0.650754 1.06026
22.8407 32.0303 25.3473 -0.488567 -1.14419 -0.0972607
20.6386 32.54 23.5626 -0.873329 -2.0603 -0.34717
22.9115 31.0252 22.6494 -0.296909 -1.10461 0.76619
17.5954 13.7853 28.9326 -2.21218 -0.334979 1.18307
19.8683 12.2705 28.0194 -0.14302 0.268614 -2.12201
19.7975 13.2756 30.7174 2.25145 -0.172941 -0.0219707
22.1411 10.7557 27.1062 -1.13543 0.295323 1.3836
23.889 12.9071 27.8877 -0.420001 -1.97278 -2.3361
22.0703 11.7608 29.8042 -0.0492176 -0.659141 0.314656
23.8182 13.9123 30.5857 -0.11319 -1.288 0.529514
13.1205 15.8098 28.061 -1.17534 -0.437029 -1.24431
14.8683 17.9612 28.8425 0.468817 -0.193321 1.48821
15.3933 14.295 27.1478 -1.66057 -0.625713 1.11565
15.3225 15.3001 29.8458 0.945258 -0.243378 -0.065345
17.1412 16.4464 27.9293 -0.698859 1.27203 1.56061
19.414 14.9316 27.0161 -0.651918 0.399229 -2.14492
17.0704 17.4515 30.6273 1.31232 -0.553123 -0.573889
19.3433 15.9367 29.7141 0.324658 0.645438 0.874739
21.1619 17.083 27.7976 0.514232 -0.231308 0.674216
23.4348 15.5683 26.8844 -0.557127 -2.95411 -0.434817
21.0911 18.0882 30.4956 0.492723 -1.22494 -1.1912
21.6161 14.4219 28.8009 -1.08539 -0.962044 0.426622
23.364 16.5734 29.5824 -0.414864 -0.046685 -0.955064
25.1826 17.7197 27.6659 0.267582 1.49824 0.434374
27.4555 16.2049 26.7527 1.48579 -0.174265 -0.397431
25.6368 15.0586 28.6692 0.18416 -1.18034 0.12985
27.3847 17.21 29.4507 0.467405 1.56884 -0.0127663
12.6662 18.4709 27.0577 2.26059 -0.878242 -0.734265
14.4141 20.6223 27.8392 -0.0130232 -1.03203 0.749113
16.687 19.1075 26.926 0.535285 -0.161711 1.62209
18.4348 21.2589 27.7075 -0.001242 1.24214 2.07406
16.6162 20.1126 29.624 0.0669553 0.955846 -1.62309
18.364 22.2641 30.4054 0.942208 -2.39916 -3.05935
18.889 18.5978 28.7108 -0.435803 -0.358555 0.450836
20.7077 19.7441 26.7943 -0.994871 -0.948437 0.405653
22.4555 21.8956 27.5758 -0.678394 -3.45538 -2.81016
20.6369 20.7493 29.4923 -0.185839 0.942279 -0.783369
22.9097 19.2345 28.5791 2.46279 0.359101 -0.147511
24.6576 21.3859 29.3606 2.22314 -2.27312 -1.46233
26.9305 19.8711 28.4474 1.86038 1.92177 -0.761522
25.1118 18.7248 30.3639 0.0450811 -0.971097 1.46646
29.2033 18.3563 27.5342 -0.341768 0.380981 -0.684479
13.9599 23.2834 26.8359 -1.66947 0.698277 2.86917
15.7077 25.4348 27.6174 0.24983 0.62215 0.961163
16.162 22.7737 28.6206 2.53912 -1.56322 -1.83951
19.7284 26.0715 27.4857 -0.284663 -0.0665342 -0.437132
17.9098 24.9252 29.4021 0.758154 -0.0164247 0.0639033
20.1827 23.4104 28.4889 -1.00508 1.92901 0.484628
21.9305 25.5618 29.2704 1.24351 -0.0785216 -0.444402
24.2034 24.047 28.3572 -2.69573 -0.152678 -1.78082
22.3847 22.9007 30.2737 -0.270749 0.161872 1.9238
26.4762 22.5322 27.4441 0.715036 -1.07422 1.23297
17.0014 30.2474 27.3955 -0.620782 -1.12276 -0.869385
17.4556 27.5863 28.3988 1.02211 -1.715 -0.457387
19.2034 29.7377 29.1803 0.865388 -0.858831 2.72465
19.6577 27.0766 30.1836 -0.888069 0.0354508 -0.0719095
21.4763 28.2229 28.2671 0.501536 1.17534 -0.972414
23.7492 26.7081 27.354 2.09437 1.11831 1.34502
18.295 35.0599 27.1737 -1.35537 1.25658 0.865695
18.7492 32.3988 28.177 0.497703 -0.408168 1.3044
21.0221 30.884 27.2638 -0.752132 -0.181107 1.45222
21.9996 12.766 32.5022 -1.85992 1.10638 0.546295
21.9288 13.7711 35.2001 -0.575283 1.26067 1.86916
17.5246 14.7904 31.6306 -1.10449 -0.0101539 -1.61714
19.2725 16.9419 32.412 -1.11726 1.44842 -0.5127
19.7267 14.2808 33.4153 0.17356 0.0894354 0.360029
21.5453 15.4271 31.4989 -0.884549 0.857342 -1.13422
23.2932 17.5785 32.2803 0.759884 -0.537731 -0.984124
21.4746 16.4322 34.1968 -1.78525 -0.632157 0.557733
23.7474 14.9174 33.2836 1.77705 -0.721003 -1.34732
25.5661 16.0637 31.3672 -0.487107 -1.88521 -0.747912
18.8183 19.603 31.4087 -1.74729 0.720683 -0.16417
20.5661 21.7544 32.1902 -0.140813 1.33877 -0.243807
22.839 20.2396 31.277 -1.04069 3.19827 -2.51782
21.0203 19.0933 33.1935 0.868269 0.779098 1.35766
20.1119 24.4155 31.1869 -0.214701 0.146846 -1.9798
ITEM: TIMESTEP
1000
ITEM: NUMBER OF ATOMS
489
ITEM: BOX BOUNDS ss ss ss
5.9490701322491670e+00 3.4902518057533264e+01
7.2638843981625989e+00 3.3634553868872345e+01
6.8097580655066023e+00 3.3632610203126298e+01
ITEM: ATOMS x y z vx vy vz
20.6845 16.3671 9.64097 -0.135976 -0.357222 -0.574154
18.0173 20.3704 9.6049 0.720132 0.687854 0.222307
20.2873 18.6756 8.70993 0.00581987 -1.01409 -1.72583
19.9788 21.1865 8.04091 0.0412485 2.10504 -0.986551
22.2337 20.8528 9.37241 0.428432 2.07508 -0.687122
15.2835 24.5034 9.74366 0.151378 -2.05009 0.422114
17.3998 22.7564 8.7942 0.462633 0.831505 0.979248
19.2577 24.9979 9.79846 -0.728948 -0.643368 1.12678
17.005 25.4648 8.1405 -2.00137 0.689647 -2.56271
19.2616 23.8719 7.40418 -1.32961 0.721341 -0.762976
21.6268 23.5234 8.87503 1.62229 -0.0527916 0.892486
23.5699 25.5425 9.74192 0.255921 1.78476 0.531582
21.3077 26.1833 8.34978 0.717705 1.86035 -1.71709
18.9886 27.7416 9.26092 -0.931686 1.50345 -0.694455
19.1713 26.5674 6.90697 -1.81545 2.42394 -1.97228
19.615 10.2579 13.6804 -0.0991769 0.493511 1.21041
22.4258 6.62754 14.4483 0.102998 -3.99442 1.98177
21.8293 9.03007 12.9083 1.03831 -1.20756 -1.32736
16.8998 13.9856 13.3077 1.97867 -0.0486358 -0.718861
19.3112 12.6416 12.4237 0.804688 -1.82807 0.680901
23.6891 10.8438 13.5145 1.02237 -0.138501 -1.05958
21.5329 11.4344 11.6191 -0.0888423 -0.774322 2.73124
23.53 13.2078 12.2386 0.977198 -0.683932 0.373557
21.2274 13.9872 10.7624 -1.64118 1.20476 -0.11734
14.4353 18.232 13.272 0.478424 0.485017 0.794446
16.7037 16.7976 12.4949 0.757277 -0.72535 -0.56479
18.7883 15.2038 11.244 1.43881 0.658877 0.55444
18.4941 17.927 10.441 1.04764 1.0827 1.24761
21.1868 14.6431 13.2367 -1.51041 0.748642 -0.195851
20.6456 17.0919 12.1573 -0.869093 2.82328 3.54498
22.9535 15.7284 11.3721 -0.748013 -1.84612 -0.822436
25.1519 15.2659 13.1146 -0.785057 -0.335956 -0.665714
26.8168 17.4124 14.1433 0.389308 -0.295797 -0.734633
24.4158 17.7727 12.3943 -0.24474 0.0484618 1.22361
11.9683 22.4607 13.1892 -1.11132 0.194096 -0.648687
13.7762 20.8103 12.2539 1.50182 -0.225084 -0.0620945
16.2003 19.299 11.5301 0.582412 0.730521 -1.28723
15.6609 21.8805 10.5687 0.170701 -0.230544 -1.41521
18.3868 18.8304 13.0359 -1.32577 0.0581055 -0.0680358
20.0486 20.9452 13.9996 0.306901 0.217645 -0.68284
17.9186 21.3476 12.1645 -0.470386 0.321286 -0.337125
20.2888 19.7753 11.1959 0.991945 -1.24209 1.19523
22.4159 19.3367 13.0791 0.636703 -1.52482 0.37683
24.0039 21.672 13.8074 -0.24472 -0.247395 1.36341
22.0644 21.8644 12.017 -1.65948 -0.214726 -0.230693
22.4811 18.3889 10.3985 -0.272334 -0.343124 1.73256
24.3465 20.4522 11.2936 -0.914167 0.259272 -0.380834
26.4126 19.9022 12.9885 0.128786 -0.517625 1.71808
28.2213 22.0897 13.4379 -2.20607 -1.10732 1.55533
13.3503 24.6922 13.8573 0.59275 0.760156 0.874732
15.4468 23.0502 13.1326 1.17013 -1.78626 2.42638
13.433 23.5092 11.4438 -0.381842 0.805112 -0.525283
15.1033 25.666 12.2052 1.65423 -0.256013 -0.684402
17.1434 25.3035 14.0742 0.564666 -0.984415 0.359345
19.6319 23.5937 13.0769 -0.835937 0.817585 -0.881073
17.3687 23.9812 11.4354 -0.626862 -0.332341 -0.0368415
19.0817 26.3268 12.2504 -0.243438 0.155765 -2.58376
19.7088 22.4992 10.3001 -0.539199 -0.88786 0.85068
21.4084 25.8471 13.8864 1.43399 1.70607 -0.0451075
23.7868 24.2732 12.9616 -1.30437 -0.797093 0.325947
21.5939 24.8208 11.2767 -1.43137 -0.938815 -1.68898
23.994 23.1212 10.3405 -2.16713 1.53932 0.365582
25.5103 26.4227 13.7133 -1.3722 0.427128 -1.37
26.024 22.5135 12.1307 -1.01835 -0.401139 -1.00096
27.5474 24.7634 12.8696 -0.864755 -0.313718 -0.152928
25.4997 25.1716 11.3696 -1.42973 1.35857 -0.319027
16.7753 27.9555 13.0536 -0.394656 -0.336803 -0.241838
18.6814 30.0107 14.1589 0.76149 0.911376 1.78878
17.0302 26.6167 10.6595 -0.928394 1.86438 -0.353108
18.5724 28.9408 11.5834 0.496584 -2.05643 0.19892
20.8745 28.5246 13.0777 -1.73284 -1.34021 -0.19945
23.3588 26.9085 12.2105 -0.929818 -0.403674 -0.42428
21.0305 27.3896 10.7924 -2.64892 -0.351488 -1.08638
17.792 9.12766 15.6017 0.184605 0.614298 0.284703
20.0258 7.82106 15.0058 0.58245 0.145374 -1.69939
17.6227 9.93207 18.2482 1.47694 -0.226767 -1.33164
19.8382 8.64969 17.53 0.871427 0.891571 -0.727814
21.8762 9.9459 15.5046 0.434086 -2.19497 2.0133
24.1837 8.53732 15.0087 -0.19784 -2.85856 0.00135991
22.3312 7.44551 17.0498 -0.65658 -3.22985 -0.315546
24.2181 9.40205 17.4178 0.984759 -0.205566 0.056334
11.5698 13.1516 17.9825 -0.736178 0.809617 -0.589115
13.624 11.7208 17.2041 -1.73112 -0.506367 0.167609
14.8909 13.8209 17.9818 0.350744 2.11132 1.09598
15.8062 10.3483 16.2226 -0.105384 -1.31329 0.146191
14.9494 13.0175 15.2104 1.64781 2.04875 0.821167
17.1875 12.37 17.0093 -1.74281 0.920403 0.117163
19.5864 11.0547 16.2854 0.796518 0.147952 0.690195
17.3105 11.4162 14.331 0.862748 -0.022322 1.11964