ITEM: TIMESTEP
0
ITEM: NUMBER OF ATOMS
484
ITEM: BOX BOUNDS ss ss ss
6.8627597766854302e+00 3.2891580111775639e+01
7.0074340204926306e+00 3.3732668892682284e+01
9.9221072516943600e+00 3.0867893291149255e+01
ITEM: ATOMS x y z vx vy vz
13.4775 10.6328 13.5748 -1.18985 0.274157 1.34661
17.9331 9.35342 12.5408 -1.13337 -0.987578 0.407446
20.7359 10.2199 12.6381 0.449465 -1.25489 -1.19498
14.1742 13.3982 13.1553 0.21502 1.6642 -0.197061
16.5236 14.0175 11.6044 0.141535 2.17821 -0.892591
18.6298 12.1187 12.1212 -0.190684 2.39297 -1.17615
15.8269 11.2522 12.0239 -0.619246 0.150993 -1.70706
21.4326 12.9853 12.2186 -0.522415 -0.595476 1.87398
23.5387 11.0865 12.7354 -0.17937 1.30442 -0.232187
24.2354 13.8518 12.3159 0.272887 0.542749 -0.812884
26.3416 11.953 12.8328 0.895715 -0.253815 -0.0910105
29.1444 12.8195 12.9301 1.90778 -1.42046 -1.52227
14.8709 16.1635 12.7357 -1.18368 1.01035 1.84486
13.2183 18.3094 13.867 1.57267 1.68997 -1.61376
18.1882 18.3772 13.3825 -1.10367 -0.522805 0.345485
17.4915 15.6119 13.802 -0.710544 2.26381 -0.544409
17.2203 16.7829 11.1848 -0.376222 0.287536 -0.54854
19.3265 14.8841 11.7017 -1.17815 1.03324 1.64335
23.0972 17.3449 13.9967 1.81794 1.10917 1.64492
20.2943 16.4784 13.8994 -2.16315 0.91152 0.516196
20.0232 17.6494 11.2822 0.142605 0.265315 0.671652
22.1293 15.7506 11.799 0.894182 -0.776535 -0.986395
25.9 18.2115 14.094 0.479594 0.284179 -0.764134
27.735 17.4836 11.9937 -0.339019 2.41849 0.939674
24.9322 16.6171 11.8963 0.634826 -2.18359 1.45562
27.0383 14.7183 12.4132 -0.849566 0.615245 1.21758
29.9207 18.2663 13.702 -0.964015 0.385292 -0.0457302
29.8411 15.5848 12.5105 -0.450115 2.84014 0.698134
13.915 21.0747 13.4475 1.39974 -0.246235 0.374205
18.8849 21.1425 12.9629 -1.9981 -0.253111 -1.96129
17.917 19.5482 10.7653 -0.412968 -0.115491 2.86187
16.2644 21.6941 11.8966 -0.0543621 -1.60524 -0.271285
15.5677 18.9288 12.3162 0.120006 -0.848692 -0.336664
21.6877 22.0091 13.0603 0.303843 -1.82746 0.19058
23.7939 20.1103 13.5771 -0.839386 -2.0676 -0.296567
23.5227 21.2812 10.9599 0.999815 1.02505 -0.133624
20.991 19.2437 13.4798 -0.978332 0.0754901 1.32723
20.7199 20.4147 10.8626 -0.258559 -1.1146 0.815711
22.826 18.5159 11.3795 1.45237 -0.492718 -2.02658
25.7085 22.0639 12.6683 -0.447717 -2.41656 -2.46238
25.6289 19.3824 11.4768 0.37262 0.838894 0.658906
27.8146 20.1651 13.1851 0.990957 -1.88676 -1.30466
14.6117 23.8401 13.0279 0.561849 0.231676 1.75448
19.5816 23.9079 12.5434 1.40904 0.557924 0.493642
19.3104 25.0788 9.92619 -1.32031 1.24782 0.907462
17.2322 23.2885 14.0943 -1.0384 1.04879 -0.954339
16.9611 24.4594 11.4771 1.03466 -0.112475 0.788843
18.6137 22.3135 10.3457 -0.536371 0.482524 -1.93746
16.3931 26.0329 13.8244 -0.976368 0.00955167 0.97416
21.4962 25.8615 11.6345 -1.18829 0.408126 0.498852
21.4166 23.18 10.4431 1.07023 1.62081 -1.82541
23.6023 23.9627 12.1514 3.50927 -0.639297 0.420365
25.788 24.7454 13.8597 1.29854 0.0967224 1.79315
18.7425 26.6522 12.2736 -1.44399 -0.589165 -2.13963
20.9282 27.4349 13.9819 0.619753 -0.835357 0.989676
23.6819 26.6442 13.3429 0.665457 -0.599666 2.32444
13.7487 9.46189 16.192 -0.00273634 -1.0135 1.46784
19.172 9.77683 17.3557 1.02081 -0.795321 0.0187598
16.3692 8.91031 17.2583 -0.370277 0.215637 -0.173194
16.098 10.0813 14.6411 0.415543 1.05947 -0.736524
18.4753 7.01151 17.7752 -1.09118 3.15865 -2.51295
18.2042 8.18247 15.158 -0.200097 0.250206 -2.15552
21.9749 10.6434 17.453 -2.14319 0.299913 1.99188
24.081 8.74456 17.9698 1.25556 -0.573258 -0.590894
23.8099 9.91551 15.3526 -1.79497 0.693441 -0.166861
21.2782 7.87803 17.8725 -2.27368 -0.350694 1.15068
21.007 9.04898 15.2553 0.27229 0.622615 0.856655
26.8839 9.61108 18.0672 1.44156 -0.216493 -0.368121
26.6127 10.782 15.45 -0.376909 0.331641 -0.640861
29.6867 10.4776 18.1645 -0.690208 -0.792401 -0.0806414
15.4132 13.8216 17.9701 0.605257 0.00794745 0.8818
14.4454 12.2272 15.7725 -0.654253 -2.47137 -1.67809
12.7927 14.3732 16.9038 2.22584 -0.869527 -0.786932
12.096 11.6078 17.3233 0.129909 -1.21908 0.119277
11.8249 12.7788 14.7061 0.422266 1.52301 -0.00902929
17.7626 14.4409 16.4192 -0.20915 -1.24171 -2.08991
19.8687 12.5422 16.9361 -0.455234 -2.23808 0.982998
19.5976 13.7131 14.3189 0.393792 1.23443 -3.15907
17.0659 11.6756 16.8388 -0.619111 -1.13022 -0.858308
16.7948 12.8466 14.2216 0.508492 -0.422746 1.3298
18.9009 10.9478 14.7385 -0.858947 -2.12346 0.142603
22.6716 13.4087 17.0334 1.80547 0.0661676 0.0991798
22.4004 14.5796 14.4162 0.0661691 -2.58425 1.27998
21.7037 11.8143 14.8358 -0.440411 1.0085 -1.48651
25.4744 14.2752 17.1307 0.9146 0.0313384 1.90562
27.5806 12.3764 17.6476 1.85026 -0.437788 -1.11403
27.3094 13.5474 15.0304 -1.23003 -0.0471674 -0.364016
24.7777 11.5099 17.5503 1.85347 -0.420075 -0.88085
24.5066 12.6808 14.9331 0.90012 0.458883 -1.0394
30.3834 13.2429 17.7449 0.72331 -1.77981 0.232864
30.1123 14.4139 15.1277 1.11882 0.497911 0.393012
29.4156 11.6486 15.5473 -0.747878 -0.773775 0.397811
11.14 16.5191 18.0351 -0.909904 0.0112887 -0.0694445
10.8689 17.69 15.4179 -0.541767 1.60022 -0.776209
10.1722 14.9247 15.8374 0.811518 0.741923 1.3378
8.51951 17.0707 16.9688 0.700366 -0.579453 -1.00156
15.1421 14.9925 15.3529 0.707241 -0.722022 -1.01312
13.4894 17.1385 16.4842 -3.28424 -1.0229 0.365495
12.5216 15.5441 14.2866 -0.0386785 -1.03043 0.710768
18.4593 17.2063 15.9997 0.495197 -0.628271 0.779942
16.1099 16.5869 17.5506 -0.673572 -0.207023 0.613195
15.8388 17.7578 14.9334 -1.10107 0.754195 -0.940841
21.2622 18.0728 16.097 1.33838 -1.16952 -2.13968
23.3683 16.174 16.6139 0.311205 -0.499467 -1.18834
20.5654 15.3075 16.5166 1.10583 0.856065 -0.348917
26.1711 17.0405 16.7112 -0.0787442 -0.853041 1.44865
28.2773 15.1417 17.2281 -1.31067 2.58008 0.889937
28.0061 16.3127 14.6109 0.809681 0.340906 -1.80531
25.2033 15.4461 14.5135 1.38147 0.675622 0.0084411
30.1919 17.0954 16.3192 0.0123483 -1.76037 -0.94358
32.3776 17.878 18.0275 -1.27482 0.238114 1.18836
32.298 15.1966 16.8361 0.228094 1.45972 0.471711
32.0269 16.3675 14.2189 1.83001 1.87615 -0.709883
7.56355 21.982 17.6806 0.196166 0.159796 -1.12709
9.21622 19.836 16.5492 -1.02791 1.90963 0.475074
6.86684 19.2166 18.1001 -0.5494 -1.93147 -0.762911
15.154 21.4982 18.2623 -1.21779 0.581613 0.508903
12.5334 22.0498 17.196 -0.0104633 -0.246403 2.01621
14.1861 19.9038 16.0647 -0.740895 -2.17296 -0.311632
11.8367 19.2844 17.6156 0.801174 1.27969 1.24878
11.5656 20.4554 14.9983 -0.490102 -0.973043 -0.127704
17.5033 22.1175 16.7115 0.405783 0.063902 -0.36685
19.4271 18.8006 18.1973 1.52989 0.118527 -0.883692
19.156 19.9716 15.5801 0.0671565 -0.202518 -0.373257
16.8066 19.3522 17.131 -1.01868 -0.288309 0.824848
16.5355 20.5232 14.5138 -0.335583 -1.48151 0.337222
20.1239 21.566 17.7778 0.433344 0.547154 -1.03637
22.23 19.6672 18.2947 1.66007 -0.608922 0.0177493
21.9589 20.8381 15.6775 2.3941 -1.04417 -0.540063
24.1446 21.6208 17.3858 0.637574 -0.443698 1.73773
24.065 18.9393 16.1943 -0.968306 0.228504 0.497733
26.2507 19.722 17.9027 3.00022 -0.673565 0.35422
25.9796 20.8929 15.2855 0.424474 0.94808 0.2085
28.1653 21.6756 16.9938 0.632403 -0.00856844 1.80839
28.0857 18.9942 15.8023 -0.150769 2.06407 1.22357
30.2715 19.7768 17.5107 0.75129 0.50861 0.161823
30.0003 20.9478 14.8935 0.533536 1.65001 -0.141201
32.186 21.7305 16.6018 2.42632 0.325173 -0.112699
32.1065 19.049 15.4103 1.02439 0.772669 -1.48169
9.91293 22.6014 16.1297 -0.312968 0.577194 0.32476
14.8828 22.6691 15.6451 -1.20561 -0.535929 -1.22104
12.2623 23.2207 14.5788 0.817125 0.535309 0.880918
14.3149 24.2425 17.9925 0.576602 0.662913 -1.54289
14.0438 25.4135 15.3753 -0.942749 -1.24779 1.54687
11.6944 24.7941 16.9262 -2.30501 -2.01007 1.16413
19.8527 22.7369 15.1606 1.05276 1.08645 0.344132
19.2848 24.3103 17.508 -0.630102 0.0588971 -0.188595
19.0137 25.4813 14.8908 0.989694 0.576795 1.11808
16.6643 24.8619 16.4417 0.219506 1.25915 0.51725
22.0384 23.5196 16.8689 -1.74144 -1.11619 1.18148
21.7673 24.6905 14.2517 1.12544 -0.356046 0.323417
23.953 25.4732 15.9601 -1.16071 -0.383298 -1.44516
23.8735 22.7917 14.7686 0.891765 0.154576 0.951796
26.0592 23.5744 16.4769 -1.4562 -0.0480549 -3.16407
28.2449 24.3571 18.1853 1.4692 -1.67457 1.43593
27.9738 25.5281 15.5681 1.8513 -0.122051 -0.476879
27.8942 22.8466 14.3766 -0.0608067 -0.346095 -0.619992
30.0799 23.6293 16.0849 0.0393545 -0.343168 -0.511337
32.2656 24.412 17.7933 -0.440155 -1.92899 0.00574975
13.4758 26.9869 17.7227 1.10145 1.5547 0.947662
18.4457 27.0547 17.2382 0.226059 0.916918 1.28043
18.1746 28.2256 14.621 0.256385 -0.138431 0.85395
15.8252 27.6063 16.1718 -0.768746 0.450341 0.0467031
17.6067 29.7991 16.9683 1.07897 0.428773 -1.0488
21.1994 26.264 16.5991 -0.264413 -0.382853 0.0317078
20.3603 29.0083 16.3293 -0.747984 -0.210359 0.821735
23.114 28.2176 15.6902 0.621072 2.02487 -1.83139
22.546 29.791 18.0376 -0.97037 0.494569 0.444156
26.1388 26.2559 17.6684 0.516681 -1.05361 1.10874
25.8676 27.4269 15.0512 1.25585 -0.995708 -0.730142
25.2997 29.0003 17.3986 1.63096 0.399847 2.05426
28.0534 28.2096 16.7595 -0.697288 0.0108337 0.3412
30.1595 26.3108 17.2764 -0.477101 -1.34537 -0.0201594
14.9876 9.8853 21.0069 -0.662924 -2.08173 -0.847699
14.0198 8.29094 18.8092 -0.471793 -0.0819688 -0.968009
12.3671 10.4369 19.9405 -0.483365 -2.00441 -2.361
17.6082 9.33372 22.0732 0.678953 1.11219 0.00274025
17.337 10.5047 19.456 -1.64148 0.470881 0.52175
19.4432 8.60588 19.9729 -0.553198 0.0892505 1.63918
16.6403 7.73935 19.8755 0.811167 0.30817 0.265583
20.411 10.2002 22.1705 0.834334 0.227248 -0.136005
22.246 9.4724 20.0702 0.163298 0.64305 -2.6398
25.0489 10.3389 20.1675 0.185663 0.127057 0.542944
10.7145 12.5828 21.0719 -1.17948 -0.0331021 -1.66564
10.4433 13.7538 18.4546 -1.18313 1.41836 -0.546888
14.7165 11.0562 18.3897 -0.329816 -1.32805 -0.779016
13.335 12.0312 22.1382 -1.36077 0.962998 0.762427
13.0638 13.2022 19.521 0.936296 -1.1749 -0.497995
18.3049 12.099 21.6536 -0.990172 0.960597 1.70762
18.0337 13.27 19.0364 -0.613354 0.57869 1.98348
15.6844 12.6506 20.5873 -0.584625 0.693323 0.456064
23.9106 13.8321 21.8483 -0.884826 -1.77761 0.203848
21.1077 12.9656 21.751 1.3719 0.141865 -1.20913
20.8366 14.1365 19.1338 -1.50534 0.278103 -1.20372
23.2139 11.0668 22.2678 0.429612 -0.0409225 0.289156
22.9427 12.2377 19.6506 -0.474651 -2.21962 -0.86587
20.1399 11.3712 19.5533 -1.47494 -0.470769 0.816832
28.5484 13.9708 19.8453 0.881627 0.790313 0.18154
26.0167 11.9333 22.3651 0.796498 -1.20603 -0.853858
25.7456 13.1042 19.7479 -1.19781 -1.80941 -1.25756
27.8517 11.2054 20.2648 -1.72397 1.15785 1.43844
28.8196 12.7998 22.4625 -0.434322 -0.146664 -1.84596
30.6546 12.072 20.3621 2.07783 1.08447 1.40062
32.5691 14.0256 19.4533 -0.60573 -2.98554 -0.411797
9.7585 17.4941 21.7836 0.49425 -0.166882 1.58392
9.06179 14.7288 22.2032 2.17373 -0.200427 -0.068026
8.79065 15.8997 19.586 -0.953188 0.822747 -1.16597
7.13798 18.0457 20.7173 -0.184589 -1.32715 0.500214
14.7284 17.5619 21.2991 -0.691904 1.36357 0.478806
14.0317 14.7966 21.7186 -0.756737 -0.202459 1.47779
13.7605 15.9675 19.1014 2.35531 1.70575 1.21264
12.1079 18.1135 20.2328 -1.01139 -1.07885 -0.793333
11.4112 15.3481 20.6523 0.727222 -0.0334705 0.0520583
19.6983 17.6297 20.8145 -0.75207 -0.0192333 -1.80175
19.0016 14.8644 21.2341 -0.126937 2.31709 0.182629
18.7304 16.0353 18.6169 -1.07959 -1.181 1.04649
17.3489 17.0103 22.3654 -1.04838 -0.799116 1.43343
17.0778 18.1813 19.7482 -0.780797 -0.565158 0.256649
16.3811 15.4159 20.1678 -0.433835 -0.540924 1.77501
21.8044 15.7309 21.3314 1.08343 -0.0638295 -0.0627629
21.5333 16.9018 18.7142 -0.44325 0.226406 -0.0735094
23.6394 15.003 19.2311 0.311812 0.106001 -0.0439663
24.6073 16.5974 21.4287 -0.971312 -0.426797 1.95037
24.3361 17.7684 18.8115 -0.717013 0.0554282 0.461741
26.7134 14.6986 21.9456 -0.424402 -2.52131 1.23502
26.4423 15.8696 19.3284 -0.186409 -0.478555 1.17873
28.3569 17.8232 18.4195 -1.10218 -1.02493 -0.451546
28.628 16.6522 21.0367 0.185227 1.30074 0.856641
30.7341 14.7535 21.5536 0.313389 -0.780388 -0.0417005
30.463 15.9244 18.9364 -0.92948 0.25702 -1.77302
32.6487 16.7071 20.6447 2.18119 -2.31697 -1.4142
10.4552 20.2594 21.3641 -1.34434 -1.26019 -0.534657
10.1841 21.4304 18.7469 -1.72121 -1.06326 0.705327
7.83468 20.811 20.2978 1.62895 -0.65215 2.25501
9.48736 18.665 19.1664 -0.0331723 1.22986 2.05021
15.4251 20.3272 20.8795 0.186596 0.814247 -1.08409
13.0757 19.7079 22.4304 -1.38508 -0.755689 -0.715339
12.8046 20.8788 19.8132 -0.0325391 0.786146 1.34391
14.4573 18.7328 18.6819 0.16524 1.64833 -0.517438
18.0456 19.7756 21.9459 0.737868 0.049549 0.573203
17.7745 20.9466 19.3287 0.0694497 -0.136142 1.15204
20.395 20.395 20.395 -1.68607 1.3803 0.411856
22.5807 21.1777 22.1033 -2.19736 -0.330128 -0.344833
22.5011 18.4962 20.9119 0.715297 -0.87381 1.71858
24.4157 20.4498 20.003 -0.251481 1.43513 1.07726
26.6015 21.2325 21.7113 -1.6191 0.121117 -0.986927
26.5219 18.551 20.5199 -0.514378 0.693468 -1.46364
28.4365 20.5047 19.611 1.95189 -1.50116 -1.6953
28.7076 19.3337 22.2282 1.42649 -0.583067 -0.943104
30.6222 21.2874 21.3193 -0.254055 0.402949 -2.12524
30.5426 18.6059 20.1279 0.488 1.14609 -0.919354
32.7283 19.3886 21.8362 -0.706622 0.379535 -2.13874
32.4572 20.5595 19.219 0.468646 -0.258124 0.694723
9.61613 23.0038 21.0943 -0.386605 0.65382 0.0329162
9.34499 24.1748 18.4771 -2.21208 0.247682 -0.628039
6.99562 23.5554 20.0279 -2.41837 -2.91427 0.234692
8.77707 25.7482 20.8245 -0.709323 -3.48086 -2.81342
14.586 23.0716 20.6097 -0.0687085 -1.19301 -0.747837
12.2366 22.4522 22.1606 1.61945 -0.881222 0.697263
11.9655 23.6232 19.5434 -1.00625 -0.585786 -0.341457
13.747 25.816 20.3399 1.3162 0.145292 -0.107547
11.3976 25.1966 21.8908 -0.369573 2.5987 -0.338401
19.5559 23.1394 20.1252 -0.801811 2.12697 -2.39037
17.2065 22.52 21.6761 -1.82333 2.00859 0.35459
16.9354 23.691 19.0589 0.56823 2.37121 -2.87768
18.988 24.7128 22.4726 -0.874019 -0.11852 1.74474
18.7169 25.8837 19.8554 0.236963 -0.538498 -0.177828
16.3675 25.2644 21.4062 0.0535868 -1.71211 -0.595969
22.3096 22.3486 19.4861 -1.85563 0.431097 -0.237657
21.7417 23.9221 21.8335 -0.351987 -0.480374 -1.48923
21.4705 25.093 19.2163 0.816807 1.50621 -0.0599212
23.6562 25.8757 20.9246 -2.84998 0.680485 -1.65466
24.4953 23.1313 21.1945 -0.350356 -0.623076 -1.4086
24.2242 24.3023 18.5773 -0.389173 0.0130255 0.860946
26.4099 25.085 20.2856 -1.07451 0.375511 -0.537605
26.3303 22.4035 19.0941 1.16048 2.42945 -0.624484
28.516 23.1862 20.8025 -1.57678 0.387895 -1.14636
28.5956 25.8677 21.9939 -1.27896 0.671574 -1.26027
30.4306 25.1398 19.8936 0.854862 -0.883503 2.77522
30.3511 22.4583 18.7021 -0.2686 -0.591032 0.466723
32.6164 25.9225 21.6019 -0.750556 1.25694 1.56429
32.5368 23.241 20.4105 -0.309708 0.122638 1.96944
11.1264 26.3675 19.2736 -1.03646 -1.89807 -0.360677
10.5585 27.941 21.621 -1.21814 -0.651787 0.603705
15.5284 28.0087 21.1364 2.70121 -0.809182 1.32924
15.2573 29.1797 18.5192 -1.31868 0.468106 -0.204449
12.9079 28.5603 20.0701 -0.391972 0.478421 -0.577848
16.0963 26.4353 18.789 -0.51255 0.553136 0.921741
18.1489 27.4572 22.2028 1.50212 -1.57391 0.924376
17.8778 28.6281 19.5855 -0.265435 -0.655647 2.6064
20.9026 26.6664 21.5637 0.694312 2.09835 -0.552049
20.6314 27.8374 18.9465 -0.938594 0.637931 -1.32359
23.3851 27.0467 18.3074 1.05493 -0.395216 0.757741
20.0635 29.4108 21.2939 0.108674 0.808202 -0.868547
22.8172 28.6201 20.6548 1.15019 0.551797 2.30734
25.5708 27.8293 20.0158 4.40415 -0.944805 0.486798
28.3245 27.0386 19.3767 -0.947351 -1.37035 1.01584
25.0029 29.4028 22.3632 1.05018 1.24038 -0.163334
27.7566 28.612 21.7241 1.10437 -0.886825 -1.31437
27.4854 29.783 19.1069 0.733409 0.328796 -0.103025
30.5102 27.8213 21.0851 1.38718 -0.896356 -2.54142
30.2391 28.9922 18.4679 -1.68731 0.698839 2.87771
32.3452 27.0934 18.9847 -0.478389 -0.380778 0.46882
14.6893 30.7531 20.8666 1.23651 0.362317 -0.925258
12.34 30.1338 22.4175 1.51243 0.563226 -0.399302
17.3099 30.2015 21.9329 0.418252 0.484819 -2.53294
17.0387 31.3725 19.3157 0.123238 0.228616 1.04869
19.7924 30.5818 18.6767 0.966863 1.62562 0.338125
16.4708 32.9459 21.6631 1.13424 0.103948 -1.85099
19.2244 32.1552 21.0241 -0.340846 -0.181366 -0.251721
21.9781 31.3644 20.385 -0.708728 0.763914 0.635803
24.1638 32.1471 22.0933 -0.819621 0.378634 1.95879
24.7318 30.5737 19.746 -1.55703 0.481564 1.96185
26.9175 31.3564 21.4543 0.419711 -0.20257 1.47791
29.6712 30.5657 20.8152 -0.251729 0.112593 -1.94184
14.3028 13.6256 24.3358 0.333055 -0.0437186 1.24374
11.6823 14.1772 23.2695 2.49909 -1.57316 -1.86568
19.5438 12.5225 26.4685 -0.37076 -0.312136 0.241157
19.2727 13.6934 23.8513 1.03025 0.432471 0.87525
18.576 10.9281 24.2709 0.639641 -0.805803 -0.671985
16.9233 13.074 25.4022 0.16747 0.528221 -0.0506974
16.6522 14.245 22.785 0.96374 -1.15701 -0.139031
15.9555 11.4797 23.2045 1.13892 0.726825 0.223751
22.3467 13.389 26.5658 0.0273609 -0.722367 1.36542
22.0756 14.5599 23.9486 0.691297 0.734028 1.12621
24.1817 12.6611 24.4655 0.811741 1.9131 0.614217
21.3789 11.7946 24.3682 0.0996832 0.400191 -0.704852
25.1495 14.2555 26.6631 0.339268 0.745953 0.435257
26.9846 13.5277 24.5628 -0.56042 -0.79935 -0.487007
10.9975 17.9175 26.5985 0.646818 -0.113268 0.925328
10.0296 16.3231 24.4008 -0.149351 0.214803 -1.15045
7.40911 16.8747 23.3345 -0.129725 -0.691166 0.271043
15.2707 15.22 26.5335 0.686367 -0.52835 0.95971
14.9995 16.3909 23.9163 -2.39723 1.33833 0.554297
12.6502 15.7716 25.4672 1.15197 -0.638904 -0.179513
12.379 16.9425 22.85 0.508273 -1.54902 0.529676
15.9674 17.9853 26.114 0.919125 -1.429 -1.73002
17.6201 15.8394 24.9826 -0.176981 -0.847012 0.162174
20.9373 18.0531 25.6294 1.79932 -0.690013 -0.328328
23.0434 16.1543 26.1463 1.07977 -0.491423 -1.11754
22.7723 17.3253 23.5291 0.784403 2.0318 -0.298712
20.2406 15.2878 26.049 -0.339326 -0.779229 -0.256199
19.9694 16.4587 23.4318 -0.0475512 0.921968 -0.865443
24.958 18.1079 25.2374 -0.368773 -1.01184 0.807748
24.8784 15.4265 24.0459 1.46077 1.01772 0.430176
27.0641 16.2091 25.7543 0.158344 0.550868 -0.934586
26.793 17.3801 23.1371 -0.442569 -2.25959 -0.858845
28.9787 18.1628 24.8454 -0.157286 0.778847 1.16223
28.8991 15.4813 23.6539 0.0352087 -0.475738 -0.867878
30.8137 17.4349 22.7451 -0.307314 -0.0886766 -0.398379
10.7263 19.0885 23.9813 0.0680494 -0.914178 0.645349
8.37696 18.4691 25.5322 0.18779 -0.222044 1.45337
8.10582 19.6401 22.915 1.42196 0.0272403 3.47274
10.1584 20.6619 26.3287 -1.71861 0.290642 -1.55784
9.88727 21.8329 23.7115 -0.802699 -0.546639 2.16811
7.5379 21.2135 25.2624 1.20748 -0.109159 -0.44235
13.3469 18.5369 25.0476 -0.142935 -0.934832 -2.01061
15.1283 20.7297 25.8441 -2.12546 1.45064 -0.243034
14.8572 21.9006 23.2269 0.801433 -0.108311 0.177243
12.5078 21.2813 24.7778 1.47012 2.11901 1.11321
18.3168 18.6047 24.5631 0.789136 -0.179068 -0.130915
19.8271 21.9684 22.7424 0.848284 0.542782 -0.920342
15.6962 19.1563 23.4968 -1.31411 -0.497743 -1.93342
17.4777 21.3491 24.2933 -1.66322 0.126326 -1.02362
20.6661 19.224 23.0122 -0.20694 1.67906 -1.53195
20.0982 20.7975 25.3596 2.03241 -0.269013 0.516917
22.8519 20.0067 24.7205 -2.80773 -1.74056 -0.303644
25.0376 20.7894 26.4289 -0.592479 1.47725 -0.535635
24.7664 21.9604 23.8117 0.610733 0.252809 -1.28037
24.6869 19.2789 22.6202 -1.22666 -0.212821 2.10324
26.8726 20.0616 24.3285 -0.280122 -0.553774 0.355281
29.0583 20.8443 26.0369 0.0723367 0.161652 0.731183
28.7872 22.0152 23.4197 1.68023 1.62819 0.112417
30.8933 20.1164 23.9365 0.383139 -0.775273 -0.479176
32.8079 22.0701 23.0277 -0.233905 0.910167 -0.752063
7.26676 22.3845 22.6452 -0.423093 0.386135 0.995204
9.31934 23.4063 26.0589 0.512875 -0.806155 0.0729246
9.04821 24.5772 23.4417 -1.03491 -0.966781 0.388101
14.2892 23.4741 25.5743 -0.655617 -2.01489 -1.60917
14.0181 24.645 22.9571 -1.33184 1.08558 -1.21511
11.6687 24.0256 24.508 -1.09743 -1.26855 0.100067
19.2591 23.5418 25.0898 0.0133111 -0.138129 -0.371452
16.9098 22.9225 26.6406 -0.823566 -0.401167 -0.607506
16.6386 24.0934 24.0234 -1.50382 -1.26427 0.18689
16.0707 25.6668 26.3708 -0.634966 0.509331 1.62669
22.0128 22.7511 24.4507 1.21114 0.580054 1.23695
21.1737 25.4955 24.1809 0.742584 -1.16222 0.366616
24.1985 23.5338 26.1591 -0.859928 -1.24885 -1.1292
23.9274 24.7047 23.5419 1.68242 -0.932202 0.686963
26.9522 22.7431 25.52 -2.54513 0.582955 0.787223
26.681 23.914 22.9028 0.0570385 0.218086 -1.55838
26.1131 25.4874 25.2502 -1.79323 1.74339 0.494244
28.8668 24.6967 24.6111 -1.77578 -0.482178 0.178249
31.0525 25.4794 26.3195 -0.379957 -1.15196 -0.476384
30.9729 22.7979 25.128 0.221082 0.611723 0.983094
30.7018 23.9689 22.5108 1.00248 -1.73256 -0.421155
32.8875 24.7515 24.2191 -1.72138 -0.633705 1.10502
10.8297 26.77 24.2382 1.46503 -0.142714 -1.6168
13.4502 26.2184 25.3045 0.770626 -1.50127 -0.890794
13.179 27.3894 22.6873 1.63588 -0.138267 -0.699454
15.2316 28.4112 26.101 0.168951 0.617299 -0.187973
14.9605 29.5822 23.4838 0.843814 0.919149 -0.295223
12.6111 28.9628 25.0347 0.759028 1.22989 -0.941386
18.4201 26.2862 24.82 2.14789 -1.20126 2.23371
15.7995 26.8378 23.7536 0.451226 0.618125 -1.22381
17.581 29.0306 24.5501 0.0473871 0.932643 0.715786
19.7667 29.8133 26.2585 -0.926937 -0.0828373 1.15906
20.6058 27.0689 26.5283 -1.39711 1.78512 -0.154985
20.3347 28.2398 23.9111 -1.83554 0.385912 0.458917
23.3594 26.2782 25.8892 2.53461 -0.360422 0.430257
23.0883 27.4491 23.272 0.899244 0.284025 -2.06875
22.5204 29.0225 25.6194 0.976463 0.948999 -0.854373
25.842 26.6584 22.633 0.720752 -0.409856 -0.910501
25.274 28.2318 24.9804 -0.070715 -1.41827 -1.00309
28.0277 27.4411 24.3413 -0.897616 -0.295924 0.827773
30.7814 26.6503 23.7023 -0.0144837 0.846432 -0.0388635
30.2134 28.2238 26.0496 0.0117113 0.935833 -1.61375
29.9423 29.3947 23.4324 0.896079 -2.42631 -3.03571
14.3926 31.1556 25.8312 -1.09969 0.733277 -0.0353461
14.1214 32.3265 23.214 -1.5286 -2.29471 -1.42774
16.7419 31.775 24.2803 0.217722 2.34092 -1.93361
19.4956 30.9842 23.6413 -1.29098 0.269736 0.328841
18.9277 32.5576 25.9887 -0.640904 0.624438 -0.30239
18.6565 33.7286 23.3714 1.32373 0.118993 -0.879187
22.2492 30.1935 23.0022 -0.567818 0.963137 0.794066
21.6813 31.7669 25.3496 -0.199106 -1.10892 0.597573
21.4102 32.9379 22.7324 -3.24725 -1.21437 0.198142
24.435 30.9762 24.7105 0.897267 -2.89067 0.547205
27.1886 30.1854 24.0715 -1.23356 -0.439163 -1.26895
20.5117 14.1168 28.6662 -0.531997 0.342126 2.04118
13.618 17.3659 27.6648 1.46388 2.17043 0.596918
18.859 16.2628 29.7975 -0.0734173 0.633591 0.174512
18.5879 17.4337 27.1803 -1.44217 -0.299237 0.489838
16.2385 16.8144 28.7312 -1.4511 -0.463385 -0.654175
17.8912 14.6684 27.5998 -0.382292 2.05839 0.120159
21.4795 15.7112 30.8638 1.04216 0.498466 0.975248
21.2084 16.8821 28.2466 0.863043 0.257094 -0.0481673
20.6405 18.4556 30.594 0.8518 -0.672422 1.10692
23.3941 17.6648 29.9549 0.0106618 0.351402 1.21513
23.3145 14.9833 28.7635 -0.210137 0.268205 1.62592
25.2291 16.937 27.8546 0.0295572 -0.356099 -0.487293
15.3994 19.5587 28.4613 -1.19264 -0.0730432 0.590164
12.7789 20.1103 27.395 0.620143 0.89865 -0.63029
18.02 19.0071 29.5277 0.406516 0.615741 1.53539
17.7488 20.1781 26.9105 -0.196323 -0.529926 -0.649799
19.8014 21.1999 30.3242 1.71074 -0.448403 -0.364446
17.1809 21.7515 29.2579 -0.608237 1.56357 -0.703276
20.3693 19.6265 27.9768 -0.0574578 -0.443819 0.479369
23.123 18.8358 27.3377 -0.491394 -1.16963 -0.0406942
22.5551 20.4092 29.6851 0.947336 -0.100967 0.192934
22.2839 21.5802 27.0679 0.227362 1.2669 0.704364
25.3087 19.6185 29.0461 -1.59471 0.955271 1.4224
27.2233 21.5721 28.1372 0.4981 0.250095 0.245946
27.1437 18.8906 26.9457 -0.467981 1.70343 -0.0666677
11.1008 25.5991 26.8554 -2.73495 -0.189244 -1.76516
14.5604 22.3031 28.1915 0.367486 0.108024 0.0543186
11.9399 22.8547 27.1252 -0.0999915 0.762524 -1.56505
13.7213 25.0475 27.9217 -0.00588495 -2.12112 -0.410659
19.5303 22.3709 27.707 0.181728 -1.26212 0.732802
18.9623 23.9443 30.0544 1.26524 2.00412 -0.449945
18.6912 25.1153 27.4372 -0.0919029 -1.61259 -0.283893
16.3418 24.4959 28.988 -0.543855 2.58983 0.610217
21.716 23.1536 29.4153 0.0268728 1.73769 2.02072
21.4449 24.3245 26.7981 0.732527 -0.217476 0.353
20.8769 25.8979 29.1455 2.14529 1.2687 0.18371
23.6306 25.1072 28.5064 1.27142 -0.1335 -0.224773
24.4697 22.3628 28.7763 -0.186195 -1.30514 1.34687
26.3842 24.3165 27.8674 0.046406 0.986687 -0.753314
29.1379 23.5257 27.2283 1.14586 0.490755 0.848015
15.5028 27.2403 28.7182 -0.237185 3.52783 -0.601444
12.8822 27.7918 27.6519 -0.434947 0.637949 0.721629
18.1233 26.6887 29.7845 -2.67971 -0.524787 0.387033
17.8521 27.8596 27.1673 0.0374462 2.74381 -0.352913
17.2842 29.433 29.5147 -0.373882 -0.16311 -0.94316
20.0379 28.6423 28.8757 1.79022 -1.17623 0.521828
22.7915 27.8516 28.2366 0.420172 -1.51475 -1.24546
25.5452 27.0608 27.5976 -0.0156686 -0.414922 0.419417
28.2988 26.2701 26.9585 1.17388 -0.43973 1.30466
24.7061 29.8052 27.3277 -0.89262 -0.802551 0.248328
27.4598 29.0145 26.6887 0.792609 0.025049 0.416121
14.6637 29.9846 28.4484 0.672682 -1.11672 1.26227
17.0131 30.604 26.8975 0.915805 0.478296 -1.13752
19.1988 31.3867 28.6059 0.274742 0.661956 -0.489108
21.9524 30.5959 27.9668 -1.679 1.41348 1.64725
ITEM: TIMESTEP
1000
ITEM: NUMBER OF ATOMS
484
ITEM: BOX BOUNDS ss ss ss
6.8627597766854302e+00 3.2891580111775639e+01
7.0074340204926306e+00 3.3732668892682284e+01
9.9221072516943600e+00 3.0867893291149255e+01
ITEM: ATOMS x y z vx vy vz
13.8425 11.0423 13.5353 0.650571 -1.44762 -0.492792
18.1957 9.88505 12.5096 0.0946511 -1.49678 -2.06837
20.5506 10.624 12.8756 1.9489 -0.106766 0.734685
14.3338 13.6959 13.0725 1.38948 0.0980187 1.18729
16.635 14.2487 11.6984 0.452038 1.40005 -1.32087
18.6751 12.4369 11.8488 0.540971 1.69608 1.19627
15.971 11.6708 12.0378 1.13918 -0.49564 -0.0964023
21.305 13.1619 12.1587 -1.26101 -0.0331726 0.613083
23.217 11.6381 13.0291 1.53796 1.08368 -1.05746
24.1232 14.0739 12.3471 0.000134757 0.988829 -1.62659
26.0602 12.3176 13.0801 -0.631517 -2.55293 0.366094
28.6422 13.2697 13.1031 0.527972 0.0949983 -2.46202
14.9382 16.4115 12.5619 0.835543 -0.849943 1.24471
13.1917 18.2748 13.9478 0.89808 -1.7415 -0.0533928
18.09 18.6603 13.1129 0.805123 -1.44716 1.69104
17.3872 16.0274 13.6166 0.317944 0.950301 1.94097
17.3045 17.1168 11.2158 -1.55683 -0.675562 1.77944
19.1838 15.2567 11.658 1.23009 1.79639 0.366491
22.9743 17.8434 13.7911 -0.658231 -1.30549 1.35233
20.3546 16.8474 13.5583 0.687148 1.32218 -1.32724
19.9092 18.0079 11.059 -0.487682 2.30373 -0.427624
22.1759 15.9327 11.6691 -0.547923 -1.21719 0.0643835
25.8395 18.4705 13.9249 -1.04358 1.22054 2.84069
27.503 17.6844 12.0695 -2.32176 0.917091 -0.869027
24.73 16.9716 11.7225 -1.73479 -1.10045 0.841554
26.796 15.1044 12.3424 -0.835567 2.69696 2.25829
29.8292 18.5078 13.7662 -1.13057 0.592461 0.502506
29.6752 15.8763 12.6424 0.761892 -1.02221 -1.66861
13.8639 21.0707 13.1811 1.68263 0.501754 3.07435
18.8435 21.4723 12.403 1.13514 -0.369357 -1.49788
17.8809 19.826 10.5857 -0.295095 -1.27472 -1.03426
16.18 21.8718 11.6732 0.538642 0.557877 -0.790614
15.5561 19.2036 12.066 -0.832402 -0.76061 -0.446279
21.6566 22.3263 12.7098 2.31878 -0.553709 -1.26695
23.7011 20.3819 13.3276 1.88493 -0.595428 -0.233975
23.4019 21.3143 10.9666 -0.412393 -1.56525 0.746252
20.8168 19.6127 13.0699 0.481924 -1.32074 0.0124581
20.6919 20.794 10.4617 -0.383456 -1.02135 -2.32561
22.6606 18.7261 11.1388 0.464032 -0.979715 1.40012
25.6501 22.2809 12.443 -1.12875 0.53099 0.117665
25.4456 19.6247 11.5328 -1.79404 -0.305124 -0.921695
27.6981 20.399 13.1192 -0.36093 0.87832 2.03475
14.6621 23.7869 12.9971 -1.4481 -1.96121 -0.953284
19.5831 24.0743 12.3541 0.658265 1.41704 -3.50041
19.2128 25.2484 9.83245 -0.571898 0.299347 0.562165
17.2357 23.5854 13.6374 -0.00934616 -0.0429589 -0.973766
16.9048 24.6661 11.182 -2.08061 0.713832 -0.611022
18.6279 22.6603 10.1456 0.28528 -0.114801 1.33887
16.3306 26.3444 13.2705 -1.39477 -0.399005 -1.11992
21.3698 26.058 11.553 0.437243 1.02549 -0.403287
21.4903 23.4554 10.2795 -0.360939 1.09255 0.514298
23.5577 24.0907 12.0373 1.00105 0.610731 -0.899066
25.7616 24.7469 13.6382 1.84614 -2.13846 -1.1769
18.6943 26.6735 11.9182 -1.27794 0.133512 -0.0140221
20.8794 27.6645 13.6681 -1.50893 3.669 -1.31763
23.5751 26.6668 13.3255 0.983518 0.343649 1.50987
13.7801 10.0212 16.2478 -0.95717 -0.737381 1.46399
19.106 10.2141 17.644 -0.313693 2.69808 -0.504327
16.3402 9.06948 17.074 0.04023 -0.476445 0.411239
16.1144 10.1933 14.6709 -1.62873 0.490208 -0.685186
18.3492 7.55045 18.0148 -0.2696 -0.920946 -1.00926
18.4169 8.8749 15.306 0.627951 -1.24472 -1.83411
21.7837 11.0897 17.523 -0.197419 2.36513 -0.697391
23.7345 9.40578 18.1099 0.0721108 1.03122 -1.7864
23.7802 10.2851 15.5914 -0.776069 -0.496204 0.434865
21.1453 8.32597 17.933 -0.645807 0.271706 0.43919
20.8751 9.5803 15.425 0.731268 2.21263 1.43397
26.8537 10.0454 18.2228 -1.66385 -2.01143 -0.574428
26.3658 11.1738 15.6423 -2.18898 -0.00864688 0.205811
29.3585 10.8842 18.3539 0.248366 -0.435038 2.812
15.6965 14.1297 18.1722 -0.397395 -2.34965 -0.89594
14.7923 12.6143 15.7616 1.0393 1.99665 2.31727
13.1151 14.5741 16.959 1.77387 1.18635 2.48598
12.3153 11.938 17.3542 0.338148 -0.71908 1.50156
12.3345 12.9607 14.7986 -1.02121 -1.01207 -0.530596
17.6925 14.707 16.3023 -0.728023 1.65266 -0.177509
19.7175 12.8983 16.9064 -0.220003 -0.713822 0.567482
19.6463 14.0729 13.9395 0.0756948 -0.448 1.45125
17.1652 11.871 16.8518 0.491384 0.0415243 1.16092
16.8218 13.2366 13.9619 1.63618 0.220445 0.281445
18.7818 11.381 14.6 0.0260924 0.410934 1.99261
22.5789 13.7866 17.2558 0.920259 0.608818 0.990091
22.3883 14.7657 14.3958 0.166933 2.01706 0.254532
21.5243 12.1337 15.0638 0.462348 1.14385 1.48775
25.3864 14.5569 17.2068 0.936636 0.977824 -0.719145
27.4948 12.6734 17.9013 -0.592564 1.67848 -0.0972372
27.0156 13.8871 15.0672 0.731417 0.602313 1.11323
24.5901 11.8508 17.6082 -1.02826 1.62188 -0.737364
24.322 13.0228 15.0091 -2.17168 1.39351 1.58101
30.4228 13.1364 17.538 -0.328615 0.629724 -1.1231
29.994 14.3263 15.1535 -0.968698 0.359536 -1.08
28.7535 11.8926 15.4758 0.739009 -1.51187 -0.673655
11.364 16.3574 18.2314 2.79829 0.590511 2.11634
10.865 17.5602 15.6095 0.614644 -1.40797 -0.156409
10.7139 14.9572 16.0961 -0.05701 0.656279 0.544504