ITEM: TIMESTEP
0
ITEM: NUMBER OF ATOMS
490
ITEM: BOX BOUNDS ss ss ss
9.2891318332714814e+00 3.1500868166728484e+01
7.9133969805471507e+00 3.2876603019452851e+01
7.7483435000488035e+00 3.3041656499951173e+01
ITEM: ATOMS x y z vx vy vz
16.8491 14.9099 11.5854 -0.715744 2.11864 -0.453847
19.122 13.3951 10.6722 0.113685 -1.01771 -0.217966
20.8698 15.5465 11.4537 0.710067 -0.677811 1.04872
18.6678 16.0562 9.66892 0.972231 1.4501 0.401925
20.9406 14.5414 8.75573 0.0693708 0.800068 -0.677927
23.1427 14.0317 10.5405 0.6703 -0.277135 1.04673
24.8905 16.1832 11.322 0.0840356 -1.06808 0.730903
14.122 19.0858 11.4953 0.465379 0.470068 -1.20494
16.3949 17.571 10.5821 0.428314 0.321502 -2.49679
18.1428 19.7224 11.3636 0.126559 0.076712 1.05927
15.9407 20.2321 9.57881 1.44189 -0.763023 -0.964761
20.4156 18.2076 10.4504 1.29784 -0.295759 -0.203095
22.1635 20.359 11.2319 2.55842 -0.511191 0.418574
18.2135 18.7173 8.66561 0.195986 1.11077 0.866057
20.4864 17.2025 7.75242 0.892886 0.583953 0.215452
22.2342 19.3539 8.53391 -1.3112 2.39057 0.89063
22.6885 16.6928 9.53722 -1.78112 1.57088 0.537845
24.4363 18.8443 10.3187 0.733595 -0.576 -0.905736
11.395 23.2617 11.4052 -1.76618 -0.631811 0.106992
13.6678 21.7469 10.492 1.69766 1.46914 0.067275
15.4157 23.8983 11.2735 -1.57396 0.237641 -1.22995
17.6885 22.3835 10.3603 1.96274 -1.67146 -1.75406
19.4364 24.5349 11.1418 0.633787 -0.162811 1.72384
19.9614 20.8687 9.4471 -1.1008 -1.20899 -0.480709
21.7092 23.0202 10.2286 -0.152817 1.90031 1.16376
26.1842 20.9957 11.1002 4.42083 -1.10028 0.460176
23.9821 21.5054 9.3154 0.808835 0.157538 -1.84688
25.73 23.6568 10.0969 -0.348874 2.25274 0.870296
27.932 23.1471 11.8817 1.63431 0.260042 1.9967
21.1842 26.6864 11.9233 -0.0672217 -0.489141 -0.746096
23.4571 25.1716 11.0101 0.985987 -2.04893 -1.40629
25.205 27.323 11.7916 -0.423497 -0.287139 -1.9833
27.4778 25.8082 10.8784 0.810989 -1.36455 -0.957596
15.4847 11.1025 14.5052 -0.961824 -0.526792 2.0955
21.7075 11.2294 16.1583 -0.549175 0.407592 -1.79458
19.5054 11.7391 14.3735 1.34299 -1.27572 -2.00948
25.7282 11.8661 16.0266 -1.2099 -0.613706 -1.07911
13.2119 12.6173 15.4184 0.0539667 -0.438694 -0.375092
12.7576 15.2784 14.4151 -0.51019 0.4507 1.00829
17.2326 13.2539 15.2867 -0.712806 -0.0311917 0.567805
15.0305 13.7636 13.5019 0.0528585 1.62935 2.12544
16.7783 15.915 14.2834 0.754432 -0.318921 0.418179
17.3033 12.2488 12.5887 1.7012 -1.06398 0.808221
18.9804 15.4053 16.0682 -0.970723 0.154437 0.568791
21.2533 13.8905 15.155 -0.985837 -0.0153061 1.43154
19.0512 14.4002 13.3702 -2.8492 0.565091 -1.57472
21.3241 12.8854 12.457 0.520254 -1.18885 1.21603
23.0011 16.042 15.9365 -0.270107 -1.19647 0.883559
23.5261 12.3757 14.2418 0.497458 -0.735076 0.913689
25.274 14.5272 15.0233 -1.11162 -0.617236 0.442975
23.0719 15.0368 13.2385 1.25543 -1.11871 -0.662842
25.3448 13.5221 12.3253 -1.45972 -0.182471 -3.07703
29.7489 12.5027 15.8949 -1.65141 0.0529594 -0.895884
27.5469 13.0124 14.1101 -1.03768 -0.905484 1.56109
29.2947 15.1638 14.8916 -0.775349 -0.658812 0.346079
27.0926 15.6735 13.1068 1.29638 -0.0252154 1.85827
10.4848 16.7931 15.3283 0.816744 -0.196508 0.240977
12.2326 18.9446 16.1098 -0.0616671 -1.272 -0.721665
10.0305 19.4542 14.325 -0.413657 -2.63023 1.23718
12.3034 17.9395 13.4118 0.319452 -0.012264 -0.0141646
14.5055 17.4298 15.1966 -0.773023 0.359724 0.0958285
16.2533 19.5812 15.9781 1.29421 1.93701 -0.44209
14.0513 20.0909 14.1933 0.312887 -0.607247 -1.19668
14.5763 16.4247 12.4986 1.11052 0.723472 -0.288881
16.3241 18.5761 13.2801 -2.17311 0.791167 0.543431
18.5262 18.0664 15.0649 0.758559 -1.25408 0.39673
20.2741 20.2179 15.8464 0.704202 2.02724 -0.559478
20.7991 16.5516 14.1517 1.06013 -0.501377 0.808983
22.5469 18.7031 14.9332 0.61916 1.93723 -1.82213
18.597 17.0613 12.3669 -0.38649 0.149202 -0.49309
20.3448 19.2127 13.1484 0.187163 0.409234 -0.0270558
27.0219 16.6786 15.8048 -0.425034 -0.196747 2.93094
24.8198 17.1883 14.02 -0.447944 1.60576 -0.0319525
26.5676 19.3397 14.8015 -0.265542 -0.645346 0.356016
22.6177 17.6979 12.2352 -2.38768 1.20592 0.60713
24.3655 19.8494 13.0167 -0.683781 1.24332 0.496337
26.6384 18.3346 12.1035 -1.33807 -1.40292 -0.487341
31.0426 17.3153 15.6731 -1.01982 -0.369133 0.880686
28.8405 17.8249 13.8883 0.178194 0.448298 -0.911066
30.5883 19.9764 14.6698 -0.430273 -2.35754 -0.870225
9.50554 23.1205 16.0197 -0.508479 0.620209 -1.53005
11.7784 21.6057 15.1065 -0.180988 -0.569958 1.14563
13.5263 23.7571 15.888 -0.0789945 -0.933345 1.38117
9.57632 22.1153 13.3217 0.64275 0.781148 -0.651369
11.3242 24.2668 14.1032 1.48903 2.01684 1.06166
11.8492 20.6006 12.4085 -0.640404 -2.15504 -1.61209
13.597 22.752 13.19 -1.32438 0.965761 -1.25209
15.7991 22.2423 14.9748 1.81767 1.01776 1.60901
17.547 24.3938 15.7563 1.44517 -0.576294 -2.10736
18.072 20.7275 14.0616 0.13282 0.155338 0.664198
15.8699 21.2372 12.2768 2.71538 -0.94894 1.3198
17.6178 23.3886 13.0583 -1.32114 0.343837 -0.253071
19.8198 22.879 14.8431 0.657961 -0.900671 -0.71268
22.0927 21.3642 13.9299 0.979593 -1.26838 -0.150726
19.8906 21.8738 12.1451 2.17423 1.1375 0.15136
21.6385 24.0253 12.9266 -1.38355 1.66739 -0.223338
24.2948 20.8545 15.7147 0.521555 0.17678 0.220024
23.8405 23.5156 14.7114 -0.427654 -0.638566 1.7333
26.1134 22.0008 13.7982 0.169685 1.54094 -0.537657
23.9113 22.5105 12.0134 0.912757 0.147063 -2.12218
28.3155 21.4911 15.583 -1.61404 0.0434324 -1.02486
27.8613 24.1522 14.5797 -0.744816 -2.27842 -0.366406
28.3863 20.486 12.885 -1.7219 -1.19337 0.720838
30.1341 22.6375 13.6665 -0.315864 0.463536 0.304157
13.072 26.4182 14.8847 1.6328 -0.979268 0.609509
13.1428 25.4131 12.1867 -1.274 0.537101 -1.37045
14.8199 28.5697 15.6662 -1.00583 -0.670953 -0.467074
15.3449 24.9034 13.9715 1.32474 0.0350701 -0.176676
17.0927 27.0549 14.753 1.10346 1.46031 0.846236
14.8907 27.5645 12.9682 -0.947465 -1.49816 0.876609
17.1635 26.0497 12.055 1.47416 -1.81821 1.3241
21.5677 25.0304 15.6246 -0.98214 0.882518 1.63815
19.3656 25.5401 13.8398 -2.66341 -0.633413 0.300108
21.1135 27.6915 14.6213 0.0550151 2.65596 -0.476906
18.9114 28.2012 12.8365 1.85132 -0.249474 -0.628893
25.5884 25.667 15.4929 -0.673984 -0.291684 0.533296
23.3863 26.1767 13.7081 -1.8291 0.276556 0.357095
25.1342 28.3281 14.4896 0.114324 0.712063 -1.009
25.6592 24.6619 12.7949 1.15841 0.427639 2.23045
29.6091 26.3037 15.3612 1.39555 -0.334479 0.286152
27.407 26.8134 13.5764 -0.97374 0.382353 0.327205
29.6799 25.2986 12.6632 1.16816 0.369136 0.746625
16.6385 29.716 13.7497 -0.702694 -0.101209 0.16507
18.8406 29.2063 15.5345 -0.523829 2.51648 0.46802
18.3864 31.8674 14.5311 0.0885602 0.0670785 0.521818
20.6592 30.3526 13.618 -0.143024 0.670886 0.980301
22.8613 29.8429 15.4028 0.0590258 0.852078 0.559532
22.9321 28.8378 12.7048 0.0486325 -0.602061 -1.02891
11.3932 11.4709 17.3349 0.863637 0.490418 -0.781908
13.6661 9.95615 16.4217 -1.74458 -1.1893 1.34558
13.5953 10.9613 19.1197 0.352079 -0.0685462 1.41071
17.6868 10.5928 16.29 1.0618 1.55095 -1.67803
15.8682 9.44648 18.2065 -0.49296 -1.01919 0.0634339
17.616 11.5979 18.988 0.207554 -0.249608 1.62063
18.0702 8.93681 19.9913 -0.924709 0.249841 -1.61333
19.8889 10.0831 18.0748 -0.0784726 0.724491 -1.38952
22.091 9.57345 19.8596 1.86057 -0.449345 -0.955582
23.9096 10.7198 17.9431 -0.386644 0.43573 -0.413953
26.1117 10.2101 19.7279 0.267993 0.529568 -0.657696
27.9303 11.3564 17.8114 -0.350122 -0.204129 -0.799345
10.8682 15.1372 19.0296 0.750973 0.022872 0.659741
13.1411 13.6224 18.1164 -0.796801 2.09091 -2.29094
10.939 14.132 16.3316 -0.265629 -0.456343 0.124522
11.3224 12.4761 20.0329 -1.63703 0.460748 0.656942
14.8889 15.7738 18.8979 -0.630592 0.0294333 -0.11842
15.4139 12.1076 17.2032 1.12397 -0.415042 0.450143
17.1618 14.259 17.9847 -1.20187 0.363255 0.590943
14.9597 14.7687 16.1999 -0.351379 -1.08408 0.888289
15.3432 13.1127 19.9012 -0.746566 -0.215615 1.61028
19.4346 12.7442 17.0715 -0.506989 0.289008 2.16902
21.1825 14.8957 17.853 -0.319762 -0.823235 -0.169571
19.3639 13.7493 19.7695 1.43904 0.0124319 3.61027
21.6367 12.2346 18.8563 -1.08452 -1.29989 0.244923
23.4554 13.3809 16.9398 -1.42915 -0.520967 -0.536201
25.2032 15.5323 17.7213 0.941419 -1.47706 -1.65001
23.3846 14.386 19.6378 -0.360684 2.58974 -0.229812
25.6574 12.8712 18.7246 -0.214514 3.51043 -0.477408
27.4761 14.0175 16.8081 0.556302 0.168033 1.86921
29.2239 16.1689 17.5896 0.433853 0.573586 1.60952
31.4968 14.6541 16.6764 -1.8179 1.95232 0.450883
27.4053 15.0226 19.5061 0.186744 0.60426 -0.0979408
29.6782 13.5078 18.5929 0.937036 0.451075 -1.02932
31.426 15.6593 19.3744 0.231141 2.33075 -1.86263
12.6161 17.2886 19.8111 0.0748218 -0.151219 1.20501
10.414 17.7983 18.0263 0.226342 0.87422 1.32144
12.1618 19.9497 18.8078 0.250792 -0.171841 0.858734
12.6869 16.2835 17.1131 0.614931 -0.897956 1.04994
16.6368 17.9252 19.6794 0.987553 0.560801 1.15662
14.4347 18.4349 17.8946 -1.57427 0.91756 1.44303
16.7076 16.9201 16.9814 -1.2175 -0.270848 2.15213
18.9096 16.4105 18.7662 -0.185168 0.243307 1.68651
20.6575 18.5619 19.5477 1.10221 -0.506247 -1.09935
18.4554 19.0716 17.7629 -0.245688 1.39357 1.08832
20.7283 17.5568 16.8497 -0.847417 -2.13568 -0.262722
22.4761 19.7082 17.6312 0.990716 0.97729 -0.134447
22.9304 17.0471 18.6345 -0.0331685 0.894578 -0.815536
24.6782 19.1985 19.416 -0.745517 -0.037032 -1.78943
26.9511 17.6837 18.5028 -1.30371 -0.53123 -1.88905
24.749 18.1934 16.718 -0.350368 -0.37282 0.277731
26.4968 20.3448 17.4995 1.04841 0.38586 0.878408
28.6989 19.8352 19.2843 0.195029 0.796341 -1.07256
30.9718 18.3204 18.3711 -0.176545 -0.563033 -0.616585
28.7697 18.83 16.5863 -0.360306 2.00271 0.148741
29.1532 17.1741 20.2876 0.857445 0.919006 -0.240578
9.88899 21.4645 19.7209 1.74136 -0.461543 -0.388437
9.43477 24.1256 18.7176 -0.342002 -1.52094 0.278086
9.95977 20.4594 17.023 -1.37754 -0.818609 -0.709844
11.7076 22.6108 17.8045 -0.0273554 0.739418 1.31977
13.9097 22.1011 19.5892 0.974728 -0.114149 0.155182
15.6576 24.2526 20.3707 0.246883 1.26945 0.63287
16.1826 20.5863 18.6761 -0.575332 1.45302 -0.555311
17.9304 22.7378 19.4575 0.625121 0.237417 -1.33713
13.9805 21.096 16.8913 0.579402 0.600952 -1.55394
15.7283 23.2475 17.6728 -0.949944 -1.30274 1.50894
18.0012 21.7327 16.7596 -0.0724962 -1.67723 -0.310699
22.4054 20.7133 20.3291 0.800102 2.03578 -0.313445
20.2033 21.223 18.5444 0.639773 -0.478152 1.71544
21.9511 23.3744 19.3258 0.888683 0.133804 0.892313
19.7491 23.8841 17.5411 2.16729 -1.2527 2.17849
22.0219 22.3693 16.6279 -0.939001 0.575039 -1.36817
26.4261 21.35 20.1974 1.53655 0.113188 -0.904037
24.224 21.8596 18.4127 0.0479153 -0.755725 1.33883
25.9718 24.0111 19.1941 0.707659 0.716635 1.06388
23.7698 24.5207 17.4094 -0.753841 -0.263412 0.747753
26.0426 23.0059 16.4962 -2.53573 0.522617 0.727638
30.4468 21.9866 20.0657 -1.21905 0.575181 0.489561
28.2447 22.4963 18.281 -0.117811 2.28759 0.148844
30.5176 20.9815 17.3678 -0.160406 -0.898318 0.155766
30.0633 23.6426 16.3645 1.16698 2.36999 -0.696557
11.1826 26.277 19.4991 -0.0659898 -1.6329 -0.36714
12.9305 28.4285 20.2806 1.48802 2.17157 0.475136
13.4555 24.7622 18.5859 -0.0111776 -0.283782 1.95876
11.2534 25.2719 16.8012 3.0095 -0.738365 0.257541
13.0013 27.4233 17.5826 0.420955 0.899684 0.0763321
15.2033 26.9137 19.3674 0.812654 0.512101 0.78535
17.4762 25.3989 18.4542 -0.586701 1.53547 -0.787139
15.2741 25.9086 16.6695 0.474871 0.218991 -0.872597
17.022 28.06 17.4509 0.361656 0.787273 0.519124
19.6783 24.8892 20.239 -0.344479 -0.628703 -1.5008
19.2241 27.5503 19.2357 -0.80856 -0.422394 -0.726216
21.4969 26.0355 18.3225 1.51385 -1.61426 0.830579
19.2948 26.5452 16.5378 0.115673 0.336946 -0.811781
21.0427 28.6966 17.3192 1.38532 0.0900263 -1.3525
23.699 25.5259 20.1073 3.50719 -0.650085 0.324367
23.2448 28.187 19.104 -0.26436 -0.681455 2.48198
25.5176 26.6722 18.1908 -0.164867 -1.34207 1.23358
23.3155 27.1818 16.4061 -0.610278 0.511689 1.87964
27.7197 26.1625 19.9756 1.09488 -0.0712507 -0.163347
29.9926 24.6477 19.0624 -1.07895 -1.20772 0.979897
27.7905 25.1574 17.2776 0.0674071 0.168872 -1.6593
29.5383 27.3088 18.0591 -1.07311 0.338809 -0.670915
27.3363 27.8185 16.2744 -1.10857 0.684182 -1.05997
16.9512 29.0651 20.1489 -1.17461 -0.0784937 0.453873
14.7491 29.5748 18.3641 -0.45951 -2.4618 -2.63674
16.497 31.7262 19.1456 -0.547474 -0.822137 -0.690474
16.5677 30.7211 16.4476 -2.31401 -2.08693 1.00741
20.9719 29.7018 20.0172 -1.49657 -1.2757 0.0351901
18.7698 30.2114 18.2324 0.828727 1.88229 0.444646
20.5177 32.3629 19.0139 -0.878306 -1.80613 -0.0019156
18.3156 32.8725 17.2291 0.387981 0.0550771 -0.145222
20.5885 31.3577 16.3159 -0.621139 0.442545 1.45209
24.9926 30.3384 19.8855 1.07766 0.417941 -1.21805
22.7905 30.8481 18.1007 -1.50553 0.238719 -1.38218
25.0634 29.3333 17.1875 -0.210956 -1.30146 -2.23968
27.2655 28.8236 18.9723 -0.846347 -1.27354 -1.28417
13.5245 11.9664 21.8177 -0.00110811 0.871848 0.0704308
15.7974 10.4516 20.9045 -0.244402 0.411673 -1.99399
15.7266 11.4567 23.6025 -0.90783 0.057442 0.0912125
17.9995 9.94194 22.6893 -0.411574 0.419656 1.18913
19.8181 11.0882 20.7728 0.0136662 -1.76082 -0.816788
20.2723 8.42714 21.7761 -1.21167 -0.635202 0.812967
22.0202 10.5786 22.5576 -0.41492 0.67406 0.891483
20.2015 9.43227 24.4741 1.83217 1.94583 -0.558588
22.4744 7.91748 23.5609 0.894064 -0.206202 0.100002
23.8388 11.7249 20.6411 -1.23386 -0.0455933 -0.23868
24.293 9.06379 21.6444 0.298094 0.685435 -0.311316
26.0409 11.2152 22.4259 -0.625942 0.659911 -0.159203
24.2223 10.0689 24.3424 1.26528 -0.511815 -0.43065
10.7974 16.1423 21.7276 0.888105 -0.764154 -0.92702
13.0703 14.6275 20.8144 -0.617897 -1.13252 -0.761886
11.2517 13.4812 22.7309 -0.0557109 -1.38511 -0.911151
12.9995 15.6326 23.5124 1.06221 1.29269 -0.104266
13.4537 12.9715 24.5156 0.210762 1.72807 -0.0666029
17.091 15.2641 20.6827 2.36779 1.70976 1.30932
15.2724 14.1178 22.5992 1.39832 -0.863478 -2.47388
17.5452 12.603 21.686 -0.264943 -0.572857 0.569762
17.4745 13.6082 24.3839 -0.54467 1.66269 -0.652532
21.1117 15.9008 20.551 1.64063 -0.656671 2.35419
19.2931 14.7545 22.4675 0.0378737 -0.312241 -0.446
21.5659 13.2397 21.5543 -0.971249 0.402641 0.0483466
19.7473 12.0934 23.4708 -2.41811 -2.87743 0.391497
21.4952 14.2448 24.2522 0.532401 -0.747612 0.189579
23.3138 15.3911 22.3358 2.09281 1.11965 1.46435
25.5867 13.8763 21.4226 -0.858338 0.630673 1.31202
23.768 12.73 23.3391 0.776272 1.27967 -0.811054
25.5159 14.8814 24.1205 1.52572 0.623326 -0.302631
27.3345 16.0278 22.2041 0.195515 0.15696 0.606072
27.8595 12.3615 20.5094 0.173985 0.645909 -2.51898
29.6074 14.513 21.2909 -2.14459 0.313952 2.0899
27.7887 13.3667 23.2074 1.33795 0.165216 -0.772636
29.5366 15.5181 23.9888 -1.66343 1.4789 1.72005
10.3432 18.8034 20.7243 1.05169 1.08801 0.365061
10.2724 19.8085 23.4222 0.627165 -2.14654 1.45534
12.5453 18.2937 22.509 0.849426 0.259162 -0.103962
10.7267 17.1474 24.4255 -0.336193 -0.120156 -0.207606
14.3639 19.44 20.5926 0.406092 0.0614498 -0.353015
14.8182 16.7789 21.5959 0.506746 -0.411067 1.39694
16.566 18.9304 22.3773 0.132857 2.2089 -0.866463
14.7474 17.7841 24.2938 -1.55789 0.543959 1.99147
17.0202 16.2693 23.3806 -1.69029 0.74805 2.92455
18.3846 20.0767 20.4609 -1.45856 -0.596164 -2.14484
18.8389 17.4156 21.4642 -3.2927 -1.01405 0.424826
20.5867 19.567 22.2456 1.57117 1.71812 -1.59479
18.7681 18.4207 24.1621 0.237299 0.676678 0.990706
21.0409 16.9059 23.2489 -0.295588 -0.0410977 -0.366937
22.8596 18.0522 21.3325 0.198083 0.169526 -1.072
24.6074 20.2037 22.1139 -1.70485 0.31791 -1.54369
25.1324 16.5374 20.4193 -1.0353 -1.90689 -0.287249
26.8803 18.6889 21.2008 0.0149452 -2.11335 -0.377161
22.7888 19.0573 24.0304 0.495883 1.20905 -0.924398
25.0617 17.5425 23.1172 0.728732 -1.74015 0.258384
26.8095 19.694 23.8987 1.11934 0.555722 0.383856
30.901 19.3255 21.0691 1.24523 0.372787 -0.907389
29.0824 18.1792 22.9855 1.8618 -0.379533 -0.856608
30.8302 20.3306 23.767 0.899957 0.513854 -1.05068
31.3552 16.6644 22.0724 -0.443241 1.03651 -1.43283
9.81821 22.4696 22.4189 1.82117 -0.661083 -0.369748
12.0911 20.9548 21.5057 1.40296 0.570169 0.479867
11.6368 23.6159 20.5024 0.202325 -1.26533 0.676625
12.0203 21.96 24.2037 0.442732 0.0186947 0.256181
13.8389 23.1063 22.2872 -1.3396 1.27399 0.859685
16.1118 21.5915 21.374 -1.04789 1.06105 -0.977168
17.8596 23.7429 22.1555 1.02473 -0.091209 0.735546
14.2932 20.4452 23.2905 -1.47195 -0.428617 0.816305
16.041 22.5966 24.072 -0.455483 -2.18853 0.947811
20.1325 22.2281 21.2423 0.0365645 0.368124 1.17797
21.8804 24.3795 22.0238 -0.472782 -1.14486 -0.116287
18.3139 21.0818 23.1588 1.15595 0.771268 0.21979
20.0617 23.2332 23.9403 -0.578129 0.74977 0.41762
22.3346 21.7184 23.0271 1.17241 -0.599325 -0.189787
24.1532 22.8648 21.1106 0.724855 -0.865464 1.67411
24.0824 23.8699 23.8086 0.52104 -1.49977 0.486185
26.3553 22.3551 22.8954 -0.792464 -0.509502 2.15706
28.1739 23.5014 20.9789 0.0639741 -0.196617 -0.427347
28.1031 24.5065 23.6769 -0.38122 0.706241 -0.0189081
28.6282 20.8403 21.9822 0.787563 -1.47976 -0.893674
30.376 22.9917 22.7637 1.64916 -0.101037 -0.736927
9.29321 26.1359 24.1136 1.07202 0.560466 0.876884
11.5661 24.6211 23.2004 -0.196381 1.72638 -1.61167
13.3139 26.7725 23.9819 -1.6854 1.43892 0.3022
9.36399 25.1307 21.4156 0.572037 2.38819 -2.96391
11.1118 27.2822 22.1971 0.21643 1.28527 0.40494
13.3847 25.7674 21.2839 0.0275042 -0.126257 -0.465665
15.5868 25.2577 23.0687 -0.0484941 0.679027 0.0939694
17.3346 27.4091 23.8502 -1.42685 -0.244188 0.375032
15.1326 27.9188 22.0654 -0.868141 -0.0945028 1.62105
17.4054 26.404 21.1522 1.22731 0.592869 1.13177
19.6075 25.8943 22.937 0.880134 -0.631085 1.01437
21.3554 28.0458 23.7185 -0.0374979 -0.389781 0.350045
19.1533 28.5554 21.9337 -0.345919 -0.458284 -1.63676
21.4261 27.0407 21.0205 -0.389356 0.0211834 0.739677
23.6282 26.531 22.8053 -2.80123 -1.70522 -0.415037
25.3761 28.6824 23.5868 -2.19519 -0.278938 -0.491437
25.9011 25.0162 21.8921 1.66618 -0.587779 -0.0663467
25.4468 27.6773 20.8888 0.359255 0.7581 0.304875
25.8303 26.0213 24.5901 -1.00862 -1.01626 -0.875443
27.6489 27.1676 22.6736 2.39621 -1.01209 -0.660744
29.9218 25.6528 21.7604 -2.01273 -0.235252 -2.0547
29.4676 28.3139 20.7571 -0.441816 0.23185 -0.209224
29.851 26.658 24.4584 -2.2175 0.311116 -0.716722
12.8597 29.4336 22.9786 -0.98858 0.0444449 0.827963
16.8804 30.0702 22.8469 0.239837 -0.503504 -0.34173
14.6783 30.5799 21.0621 -0.129024 -0.929853 -2.17442
20.9011 30.7069 22.7152 0.820025 1.54568 -0.238752
18.699 31.2165 20.9304 -2.11587 1.46134 -0.416641
23.1032 30.1972 24.5 2.05196 -0.202417 0.35259
23.174 29.1921 21.802 -1.1689 -0.3641 -1.60766
24.9218 31.3435 22.5835 0.656164 -0.56895 2.13686
22.7198 31.8532 20.7987 0.0590115 -1.71263 -0.784852
27.1239 30.8339 24.3683 -1.85852 0.496404 -0.419079
29.3968 29.3191 23.4551 0.294437 -1.78537 0.0367399
27.1947 29.8287 21.6703 1.47778 1.04268 0.264679
17.9287 10.9471 25.3872 2.43316 0.406247 0.0126814
17.8579 11.9522 28.0852 -1.17168 0.0880766 -1.51479
21.9494 11.5837 25.2555 -0.686059 -0.71562 0.0440987
20.1308 10.4374 27.172 0.70437 -0.476391 -0.821283
22.4036 8.9226 26.2589 -1.85913 -0.585835 0.738268
24.1515 11.074 27.0403 -1.93921 1.17426 0.682071
11.1809 14.4863 25.4288 0.822732 0.386196 0.369535
11.1101 15.4914 28.1268 -3.24712 -1.09386 0.266047
13.383 13.9766 27.2136 0.427813 -0.0931363 1.56401
15.2016 15.123 25.2971 -1.35161 1.04153 0.862457
15.1308 16.1281 27.9951 0.0280567 1.06405 -1.57635
15.6558 12.4619 26.3004 -0.476187 -0.286067 0.568244
17.4037 14.6133 27.0819 -0.22238 1.02319 -0.690003
19.2223 15.7596 25.1654 -0.133607 0.290114 -1.06075
19.6765 13.0985 26.1687 2.19605 -2.22804 -1.3264
21.4244 15.2499 26.9502 -1.2751 0.345933 1.24798
21.8786 12.5888 27.9535 -0.115777 -0.57297 0.421804
23.6973 13.7351 26.037 -0.74984 -0.684851 0.488721
25.4451 15.8866 26.8185 1.90692 -1.32116 -1.47157
25.9701 12.2203 25.1238 -1.79931 0.770344 -0.0405915
23.6265 14.7403 28.735 -0.176744 -1.19855 0.616483
25.8993 13.2255 27.8218 1.71062 -0.653035 -1.23735
27.718 14.3718 25.9053 -0.185374 1.39504 -0.141193
27.6472 15.3769 28.6033 -0.660445 1.34688 1.94103
12.4745 19.2989 25.207 0.441629 -1.44023 -1.24453
10.6559 18.1525 27.1235 -0.531663 -0.494023 1.9104
12.4037 20.304 27.905 -0.546656 0.208297 1.64546
12.9287 16.6378 26.2103 -0.367809 0.30551 -0.10551
16.4952 19.9355 25.0753 1.19506 -0.362931 1.29197
14.6766 18.7892 26.9918 0.414144 1.16368 -0.705439
16.9495 17.2744 26.0786 0.945604 -1.08995 -0.436417
16.8787 18.2795 28.7766 0.908819 -2.29494 -3.03718
18.6973 19.4258 26.8601 2.23262 -0.771678 -0.761223
20.9702 17.911 25.9469 0.505749 -0.0804926 1.64579
19.1515 16.7647 27.8634 -0.304341 0.245664 2.00363
20.8994 18.9162 28.6449 -0.441092 -1.79932 -0.000379613
22.718 20.0625 26.7284 -0.0290323 1.33206 2.07822
23.243 16.3962 25.0337 -1.02546 -0.896572 0.470491
24.9909 18.5477 25.8152 -0.704959 -3.40524 -2.77465
23.1722 17.4014 27.7317 1.02426 0.894001 -1.46428
24.9201 19.5528 28.5132 -0.601519 -2.85931 -0.425654
27.2637 17.0329 24.902 0.695216 -1.04499 1.32363
29.0116 19.1843 25.6835 -1.08782 0.822019 -0.0125303
31.2845 17.6695 24.7703 -0.185556 -1.03811 0.632475
27.193 18.038 27.6 1.44988 -0.0993145 -0.343789
28.9408 20.1894 28.3815 -0.37938 0.46237 -0.652355
29.4658 16.5232 26.6868 -2.27483 -0.249792 1.21591
31.2137 18.6747 27.4683 0.271947 0.738196 0.886002
9.74744 23.4747 25.1169 -1.19486 -1.74035 -1.32554
10.2017 20.8136 26.1202 1.14301 0.193253 -1.86624
11.9495 22.9651 26.9017 1.81551 -1.07348 0.472336
13.7681 24.1114 24.9852 -0.469891 -2.1537 -0.937017
14.2224 21.4503 25.9885 0.993442 1.04216 -0.887511
15.9702 23.6017 26.77 -0.5609 1.06843 0.730208
14.1516 22.4554 28.6865 1.02558 -0.666532 -0.0143714
16.4245 20.9406 27.7733 -0.629352 0.264882 -1.71366
18.1723 23.0921 28.5548 -0.655541 -1.95725 -0.88499
18.2431 22.0869 25.8568 -0.887898 -0.20665 0.778723
19.9909 24.2384 26.6383 1.11345 -0.787028 -1.40421
20.5159 20.5721 24.9436 1.01481 -1.66175 -0.452378
22.2638 22.7236 25.7251 0.86085 -0.798335 2.71739
20.4452 21.5773 27.6416 -0.0438757 -0.920914 0.705356
22.193 23.7287 28.4231 2.51825 -1.44857 -1.91092
24.5367 21.2088 24.8119 0.753916 0.581963 0.124551
26.2845 23.3602 25.5934 0.529627 1.73849 -0.214381
24.4659 22.2139 27.5099 -1.03237 2.02572 0.463792
26.2137 24.3653 28.2914 1.22539 0.0177917 -0.488467
26.7387 20.6991 26.5967 -2.7245 -0.0887763 -1.76331
28.5574 21.8454 24.6802 -0.459725 2.91627 0.654687
30.3052 23.9969 25.4617 -1.72109 1.24528 1.36744
28.4866 22.8505 27.3782 1.48069 -0.0300291 -1.64966
30.7595 21.3358 26.465 -1.52383 -2.20193 -1.44373
11.0411 28.2873 24.8951 0.88647 0.330545 -0.184354
11.4953 25.6262 25.8984 0.917204 0.117379 1.81094
13.2431 27.7776 26.6799 1.37935 0.775469 -0.126376
13.6974 25.1165 27.6832 -0.914822 0.0349159 1.07616
15.516 26.2628 25.7667 1.81034 0.150256 -0.00450376
17.2639 28.4143 26.5482 0.0604539 -2.49512 1.14434
17.7889 24.748 24.8535 0.389843 1.3053 -3.24037
15.4452 27.2679 28.4647 -1.28579 0.400519 0.208632
17.7181 25.7532 27.5515 -0.708142 0.880767 0.536423
19.5367 26.8995 25.635 -1.19224 1.11567 1.53971
21.8096 25.3847 24.7218 0.608959 0.0746662 0.809386
19.4659 27.9046 28.333 0.00154278 -0.28435 0.278912
21.7388 26.3898 27.4198 0.735549 0.443917 -0.224753
23.5574 27.5361 25.5033 0.705258 -0.64515 -1.12567
23.4867 28.5412 28.2013 -0.365993 -1.02393 -0.639654
24.0117 24.875 26.5066 -0.48061 -1.24934 -0.12052
25.7595 27.0264 27.2881 0.396045 -0.66175 -0.614952
27.5781 28.1727 25.3716 0.802806 1.36065 1.137
28.0324 25.5116 26.3749 0.323023 -0.682392 -0.148811
15.0618 28.9239 24.7634 0.433692 0.615652 -1.18497
19.0825 29.5606 24.6317 0.804438 -0.111606 -0.282473
21.2846 29.0509 26.4165 0.691133 1.21169 -0.134849
25.3053 29.6875 26.2848 -1.19665 1.10392 1.7048
13.3122 14.9818 29.9116 0.444665 -1.10886 -1.11195
15.585 13.467 28.9984 -0.00113949 -0.881604 1.59717
17.3329 15.6184 29.7799 -1.19736 0.421573 1.44051
19.6058 14.1036 28.8667 -1.18131 1.55549 -0.42816
12.858 17.6429 28.9083 -0.876901 -0.66519 0.275893
14.6058 19.7943 29.6898 0.911787 -2.74676 0.540463
15.06 17.1332 30.6931 -1.08966 3.33109 -2.46286
16.8079 19.2846 31.4746 -0.202163 0.427006 -2.13958
19.0808 17.7698 30.5614 -0.476852 -1.84762 -2.30986
20.8286 19.9213 31.3429 0.132095 -1.04811 0.141913
21.3536 16.2551 29.6482 0.812688 0.889348 1.42644
23.1015 18.4065 30.4297 2.19067 -0.0400755 -0.0160288
25.3743 16.8917 29.5165 -0.548481 -1.79239 -0.685101
27.1222 19.0431 30.298 0.0988308 0.213191 0.359822
29.395 17.5283 29.3848 -0.614996 0.509805 0.738442
16.3537 21.9457 30.4713 -0.815621 0.543321 1.9207
18.1015 24.0972 31.2528 0.810222 0.204556 0.333455
18.6265 20.431 29.5581 -0.247998 0.262811 -1.97551
20.3744 22.5824 30.3396 -1.71396 -0.470198 1.04019
18.5558 21.4361 32.2561 -1.14387 -0.801974 0.395097
20.3036 23.5875 33.0376 -0.468379 0.120782 -1.01103
22.5765 22.0727 32.1244 0.419272 1.71336 -0.0218363
22.6472 21.0676 29.4264 -0.699594 0.53022 -2.18469
24.3951 23.219 30.2079 0.472841 -0.0970402 0.621204
26.668 21.7042 29.2947 0.228563 1.60986 0.425101
24.8493 20.5579 31.2112 -0.950515 0.997911 -1.15199
15.8995 24.6068 29.468 -0.865131 -1.98611 0.0746987
17.6473 26.7583 30.2495 -0.201048 2.55442 -1.28266
19.9202 25.2435 29.3363 -0.327505 -1.18947 -0.851227
21.668 27.3949 30.1178 -0.65876 -2.32374 -1.7878
19.8494 26.2486 32.0343 -1.22729 -0.248797 -1.3912
22.1222 24.7338 31.1211 -0.746515 1.43756 1.46558
23.9409 25.8801 29.2046 0.73571 0.10731 -0.0231854
ITEM: TIMESTEP
1000
ITEM: NUMBER OF ATOMS
490
ITEM: BOX BOUNDS ss ss ss
9.2891318332714814e+00 3.1500868166728484e+01
7.9133969805471507e+00 3.2876603019452851e+01
7.7483435000488035e+00 3.3041656499951173e+01
ITEM: ATOMS x y z vx vy vz
16.9 14.8993 11.6491 -0.210093 -0.686619 1.00008
19.1412 13.5419 10.9303 -1.09407 -1.39956 1.59225
20.8088 15.5085 11.5518 0.393568 2.80342 2.49759
18.5494 16.0611 9.63041 0.510269 0.160338 2.76915
20.9204 14.6669 8.83797 0.501044 -1.88902 0.222109
23.0299 14.1921 10.6339 1.05661 0.623229 -0.354681
24.815 16.1572 11.2937 1.83159 -2.01658 -0.511086
14.0402 19.1664 11.4953 -1.36627 -0.643561 0.0388561
16.516 17.679 10.5527 -0.0358719 -0.318369 0.043684
18.0551 19.6881 11.3191 -0.216433 1.07259 0.653533
15.9281 20.2537 9.78626 -0.799528 -0.266519 0.941776
20.4764 18.1637 10.5401 -0.76525 -0.904804 1.58572
22.2344 20.2462 11.2775 -0.341845 0.319519 0.984685
18.2951 18.7612 8.93462 -1.3196 0.569612 0.103669
20.4978 17.0627 7.94148 0.332425 0.171885 -0.171783
22.1456 19.3476 8.65027 1.01432 1.36942 1.77388
22.7395 16.6177 9.57364 -0.918696 -0.364543 -0.0475164
24.3047 18.7747 10.2869 0.416963 1.88983 -0.463021
11.3765 23.3542 11.6397 -0.204316 1.06352 0.396069
13.6183 21.7288 10.5692 1.09698 -1.80579 -1.54691
15.337 23.7604 11.2565 -0.807965 0.483663 2.18841
17.6652 22.5469 10.3671 0.637503 0.914236 1.4541
19.3787 24.2943 11.1777 -0.0377826 0.967628 -2.08318
20.0981 20.8109 9.44295 0.0610504 -0.380645 1.54487
21.731 22.8417 10.4159 -1.08202 -0.055098 -0.212451
26.2515 20.9513 11.0011 -1.06361 -0.289749 0.847811
23.9171 21.3738 9.52915 0.220529 0.529627 0.111551
25.6943 23.4627 10.2757 -1.80844 -0.789816 -0.345238
27.9857 23.048 12.0241 -1.7332 -1.0906 -0.122292
21.3167 26.7372 12.0258 -1.63539 -1.56383 0.0410741
23.6642 25.1305 11.2847 0.298609 -1.68278 0.4648
25.3898 27.2097 12.0241 -0.332215 2.06199 1.27907
27.3886 25.6974 11.0338 -0.600125 0.502783 -1.00085
15.4782 11.3517 14.5241 1.52426 -1.75917 -0.508874
21.8418 11.4318 16.1672 1.5032 -2.03814 -0.679936
19.5052 11.7673 14.559 0.63857 -1.72793 -0.806319
25.8331 11.9774 16.0389 -1.74471 0.387165 -0.940046
13.2187 12.7309 15.2865 1.72166 0.528652 0.135885
12.8426 15.3935 14.3884 0.263025 1.33611 -2.00606
17.2228 13.3726 15.291 -0.80303 2.75988 0.0243213
14.9924 13.8747 13.4641 -0.763785 1.60976 -0.0278714
16.8417 15.9349 14.2933 -0.264772 -0.583161 0.121249
17.2876 12.3971 12.7414 -0.558267 -0.65543 2.06884
19.0766 15.3715 16.1105 -0.0972335 -1.42663 -1.04787
21.3772 13.9045 15.259 -0.157832 -0.774399 -1.5772
19.036 14.3367 13.4796 0.322255 2.33184 0.260075
21.2276 12.953 12.362 0.451661 0.0172063 1.59196
22.9424 16.0578 15.975 1.10923 0.0414533 -0.31221
23.4959 12.5178 14.3291 -1.13068 -0.921473 -0.376275
25.4112 14.5906 14.9649 -0.877494 2.03268 0.101012
23.0665 14.9483 13.1718 0.445958 1.52374 1.30544
25.3591 13.7335 12.4261 0.249051 0.965233 -0.224543
29.7441 12.6499 15.8965 0.18026 -0.558202 0.354466
27.6328 13.2416 14.1947 -0.0971909 0.741672 -0.621443
29.213 15.2799 14.9053 0.701138 1.54687 -0.604273
27.1503 15.7222 12.957 1.04799 1.87941 -0.621686
10.7551 16.8085 15.3382 -1.31314 -0.63803 -1.18086
12.1148 19.0448 16.1985 0.74544 -0.107081 1.2913
10.141 19.6577 14.4037 0.397912 -1.05924 1.72906
12.3667 17.94 13.5747 0.711353 -0.618161 -2.13287
14.6324 17.5217 15.2527 -0.589085 -1.58393 1.29567
16.26 19.5623 16.0043 -1.10499 -1.32436 -0.599629
14.0764 19.9874 14.1666 -2.01823 1.53726 -0.161892
14.6785 16.5621 12.6527 0.611689 -0.635809 -0.110275
16.2668 18.63 13.2227 2.63718 0.799913 -0.189639
18.4395 18.0722 14.9711 -1.84188 -0.231019 -0.310672
20.312 20.2456 15.7114 0.582108 -0.863092 -0.120387
20.7792 16.5047 14.1754 -0.257573 -1.12211 0.475005
22.4996 18.7122 14.9744 1.64734 0.972491 0.730519
18.5221 16.9007 12.2564 0.663859 0.856701 -1.46943
20.3104 19.1355 13.1587 -1.78861 1.16339 -1.55219
26.9653 16.6592 15.7001 1.28257 0.964918 0.104737
24.8014 17.201 14.0761 -0.479102 -0.68316 -0.857445
26.5432 19.3287 14.8448 -0.716946 -0.0840425 0.496417
22.5358 17.7338 12.2472 1.9269 -0.684478 -0.236619
24.2087 19.79 13.0546 0.153168 -0.692303 0.72576
26.3964 18.4448 12.1062 -0.320821 -0.307983 -0.806021
30.8085 17.3813 15.8676 -1.14658 1.44187 -0.0753452
28.7824 17.902 14.0242 -2.23299 0.459222 1.08039
30.2533 19.9632 14.7739 0.753156 -1.25643 0.325183
9.67828 23.2638 16.098 0.574467 1.82554 0.716453
11.755 21.7636 15.192 2.57289 1.24919 0.0314677
13.4418 23.8545 15.8952 0.453077 -3.00286 -1.21211
9.64904 22.1319 13.3395 -0.450343 -0.484714 -1.0096
11.3352 24.396 14.2147 1.64471 1.06173 1.6489
11.8024 20.5824 12.5462 0.161404 0.0349259 1.11884
13.611 22.7703 13.2132 0.93612 -1.64155 1.09364
15.7121 22.1787 14.8877 -3.42092 0.346273 -0.488653
17.5808 24.2789 15.6816 0.0897946 -0.803201 0.420602