ITEM: TIMESTEP
0
ITEM: NUMBER OF ATOMS
520
ITEM: BOX BOUNDS ss ss ss
8.3798665893699535e+00 3.2947563872755715e+01
7.2884757401247997e+00 3.3527410888696174e+01
8.6135055135644247e+00 3.2176495057951179e+01
ITEM: ATOMS x y z vx vy vz
20.6003 10.8054 11.3295 -0.0210581 -1.7885 -0.894444
16.3881 14.603 10.2958 0.124554 -0.415225 0.351878
14.0387 13.9836 11.8467 -0.32375 -1.96251 -0.0908351
19.1909 15.4695 10.3931 -1.17236 0.292938 0.289948
18.4942 12.7042 10.8126 -1.58029 -0.617918 1.03226
24.0999 14.4373 11.0073 -3.13284 -1.15627 0.17857
21.297 13.5707 10.91 -1.10022 -0.400144 -1.32299
23.4032 11.6719 11.4268 -0.957357 -0.229613 -0.264484
26.9027 15.3038 11.1046 0.40645 0.752829 -0.487744
26.206 12.5385 11.5241 1.26698 1.33051 0.422461
15.4321 19.5143 11.0076 0.501756 0.473261 -2.58636
14.7354 16.749 11.4271 1.21192 -0.908564 -1.39596
18.0526 18.9627 12.0739 -1.10106 -0.0653522 0.569551
17.7815 20.1336 9.45668 -2.03823 1.46897 -0.264533
19.8876 18.2349 9.97355 -2.22361 -1.99261 1.159
17.3559 16.1974 12.4934 -0.428418 2.60068 0.573168
17.0848 17.3683 9.87623 -0.520697 0.517179 1.59575
20.8554 19.8292 12.1712 -0.276659 -1.46049 0.33156
22.6904 19.1014 10.0709 -1.25748 -1.21455 -0.52343
21.9937 16.3361 10.4904 -0.247821 -0.115865 -0.963328
25.4933 19.9679 10.1682 -2.31641 1.41974 0.580696
27.5994 18.0691 10.685 0.00784671 0.858848 -1.53731
24.7966 17.2026 10.5877 1.74846 -0.0706903 -0.691218
29.7852 18.8518 12.3934 0.848169 1.34076 -0.900221
14.4761 24.4256 11.7193 -0.959642 -0.017719 0.947668
16.1288 22.2796 10.588 0.114313 -1.72506 -0.625546
13.7794 21.6602 12.1389 1.34748 -0.161191 -0.282484
19.446 24.4933 11.2348 -1.31025 1.26881 0.903524
18.7493 21.728 11.6543 -1.16847 0.595052 0.500406
18.4782 22.899 9.03713 -1.15708 -0.521844 -1.23381
20.5843 21.0002 9.554 0.00480248 -1.57981 -0.276983
21.5522 22.5945 11.7517 -0.70306 0.0178788 -1.80793
21.281 23.7655 9.13445 1.5867 0.161032 -0.884138
23.4667 24.5482 10.8428 1.3741 -1.11884 -2.13343
23.6583 20.6957 12.2685 0.552955 -0.579109 0.791987
23.3872 21.8667 9.65132 -1.05279 -0.468372 0.358151
25.5729 22.6494 11.3596 0.231849 0.60451 -0.0201366
27.679 20.7506 11.8765 1.70041 -0.567914 2.3151
16.2576 26.6183 12.5158 0.980679 -0.108129 0.17048
19.1749 25.6643 8.61758 -0.0125517 0.665941 0.174355
16.8255 25.0449 10.1685 -0.00431597 -0.441108 0.460846
18.607 27.2377 10.965 -2.79495 -1.73061 -0.313205
21.3606 26.447 10.3259 0.744631 -0.836368 1.73096
23.5463 27.2297 12.0343 -0.713471 0.109429 0.480814
19.0365 10.3623 16.0471 1.03515 -2.43023 -3.12449
18.7653 11.5333 13.4299 -0.117823 0.123148 -2.02422
21.8393 11.2288 16.1444 -0.698362 0.407333 1.91782
23.6743 10.501 14.044 -2.53565 -0.43548 1.26219
20.8715 9.63446 13.9467 0.314542 2.57019 -1.50891
26.4772 11.3675 14.1414 1.21904 1.356 1.48587
11.9604 12.1933 16.0147 0.991877 0.479817 1.63299
11.6893 13.3643 13.3975 0.979418 0.209822 1.42799
10.0366 15.5102 14.5288 0.205821 0.352474 -0.582361
15.0065 15.578 14.0443 -0.796807 -0.3203 0.752019
14.3098 12.8127 14.4639 -0.191985 0.0920022 1.87802
12.6571 14.9586 15.5952 2.28543 -2.37457 -1.51857
20.4299 15.8929 15.208 1.71735 -0.869232 0.685837
17.627 15.0264 15.1106 1.19556 1.55056 0.914401
19.7332 13.1276 15.6275 1.92214 -1.16824 0.479135
19.462 14.2986 13.0103 -0.806122 -0.0658405 1.12104
16.9303 12.2611 15.5302 -0.4488 0.953539 0.728868
16.6592 13.4321 12.913 -0.591066 0.758434 0.572272
22.536 13.9942 15.7248 0.953215 0.955641 -0.31277
22.2649 15.1651 13.1076 1.34657 0.401575 -0.942923
24.6422 12.0954 16.2417 -1.55702 1.47177 1.62863
24.371 13.2663 13.6245 -0.0723454 -1.0553 0.577247
21.5682 12.3998 13.5272 0.934443 0.0609526 0.366196
28.1417 15.7272 15.9195 -0.301118 0.734888 0.0668756
25.3389 14.8607 15.8221 0.102129 -2.07079 -0.40586
25.0677 16.0316 13.2049 0.880753 -1.44373 -0.885546
27.445 12.9619 16.339 -0.987904 0.810278 -0.0270239
27.1739 14.1328 13.7218 -1.41926 -2.22429 -1.42242
11.7012 19.8699 16.307 -0.205158 0.344922 -2.21988
12.386 16.1296 12.978 -1.18448 0.195051 1.0961
10.7333 18.2755 14.1093 -0.620557 -0.857788 -0.171956
8.38395 17.6561 15.6602 -0.605345 -0.492463 1.4183
15.9744 17.1724 16.242 0.121156 2.73105 -0.402613
15.7032 18.3433 13.6248 0.130311 0.917908 0.672393
13.3538 17.7239 15.1756 -1.62638 0.658573 2.80221
13.0827 18.8949 12.5584 0.308507 0.579886 0.903604
18.3237 17.7917 14.6911 0.883299 0.53314 0.863994
16.6711 19.9377 15.8224 -0.764511 -0.418901 -0.641657
20.1587 17.0639 12.5908 -0.919107 -0.567807 -0.354546
23.9294 19.5248 14.8857 -1.02696 -1.1388 1.05728
21.1266 18.6583 14.7884 -0.961515 -0.267648 0.818766
23.2327 16.7595 15.3053 0.742861 -0.0730332 0.937547
22.9616 17.9304 12.6881 0.16108 -0.8721 0.658773
26.0356 17.626 15.4026 0.177479 -0.791915 -0.320136
25.7644 18.7969 12.7854 0.77967 -0.458867 0.985378
27.9502 19.5796 14.4937 1.49346 0.109174 3.53518
27.8706 16.8981 13.3023 -2.13432 0.332085 -0.594314
30.1359 20.3623 16.2021 -0.989185 -0.874736 0.449853
30.0563 17.6808 15.0106 -0.349499 0.741708 0.766819
31.9709 19.6345 14.1017 -0.919338 0.588284 0.348497
12.3979 22.6352 15.8874 1.53647 -1.63463 0.876264
12.1267 23.8062 13.2702 -0.238595 -0.708019 2.56692
9.77736 23.1868 14.8211 -1.7636 1.67904 0.416479
11.43 21.0408 13.6897 -0.220582 -0.647947 0.384146
9.08066 20.4215 15.2406 0.935556 -0.337897 -0.178814
14.7473 23.2546 14.3365 0.241579 1.23173 0.486764
16.3999 21.1086 13.2052 -1.44816 -1.2804 0.15801
14.0505 20.4893 14.7561 1.01636 1.59386 0.285808
19.7172 23.3224 13.852 1.43025 0.571433 0.485873
17.3678 22.703 15.4029 1.04882 -0.12773 0.771967
17.0966 23.874 12.7857 0.909205 -0.675447 1.08851
19.0204 20.5571 14.2715 0.242046 0.823695 -1.10087
21.9029 24.1051 15.5603 1.11213 -0.462278 -1.12042
21.8233 21.4236 14.3689 0.00494701 0.957769 -0.870349
24.009 22.2063 16.0772 1.11983 -0.0187138 -0.0531869
23.7379 23.3772 13.46 -0.413445 0.277491 -0.061709
25.9236 24.1599 15.1683 -2.16568 0.976456 0.547647
25.844 21.4784 13.9769 -0.347587 0.351422 -0.524099
28.0298 22.2611 15.6852 1.19856 -0.56052 -0.12942
27.7586 23.4321 13.068 0.551601 -1.46921 0.584716
29.9443 24.2148 14.7763 1.24086 -0.0106344 -0.368274
29.8648 21.5333 13.5849 -0.66319 -3.39345 -2.76152
32.0505 22.316 15.2932 -0.174865 -0.335453 1.91657
11.5588 25.3796 15.6176 -1.27734 0.615316 -1.33275
16.5287 25.4474 15.1331 0.250791 -0.158651 0.837414
13.9082 25.999 14.0667 -0.752925 -0.248902 0.787423
15.6896 28.1918 14.8632 0.499599 0.232388 0.215773
13.3403 27.5724 16.4141 1.4506 -1.72843 1.39194
19.1492 24.8958 16.1994 0.0357507 0.359522 1.20678
18.8781 26.0668 13.5822 -0.469027 -1.16239 -0.0515261
18.3101 27.6402 15.9296 -1.60012 0.959377 1.41425
18.039 28.8111 13.3124 -0.594918 1.4882 -0.548922
21.6317 25.276 12.9431 0.814821 2.07536 -0.296226
21.0638 26.8494 15.2905 -0.366316 -0.990956 0.811572
20.7927 28.0204 12.6733 -1.22827 -0.184048 2.11423
23.8175 26.0587 14.6515 -0.967908 -0.379491 1.97281
22.9784 28.8031 14.3816 -0.103587 -0.815227 1.4699
26.0032 26.8414 16.3598 0.293634 -0.441177 -1.16035
25.7321 28.0123 13.7426 1.80525 1.17842 1.68589
25.6525 25.3309 12.5511 0.147975 0.332679 0.705956
27.9178 28.795 15.4509 0.102151 2.26247 -0.83208
27.8382 26.1135 14.2595 0.349583 0.0397267 1.30793
30.0239 26.8962 15.9678 -0.563553 1.69902 -0.699654
17.4711 30.3845 15.6597 -0.312178 -0.563255 0.343806
20.2247 29.5938 15.0207 -0.544094 0.712918 -1.4677
25.1641 29.5858 16.09 0.35039 1.29111 -3.12611
12.2316 11.0224 18.6319 -1.00444 -0.71694 0.0262333
14.8521 10.4708 19.6983 -0.374304 -0.425854 0.366208
14.5809 11.6417 17.0811 -0.115073 0.877639 -0.856044
17.2015 11.0902 18.1474 1.10215 0.934476 -0.928071
19.3076 9.19136 18.6643 0.14826 0.939758 -1.69942
22.1104 10.0579 18.7616 1.02584 -2.87921 0.498624
24.2166 8.15909 19.2784 -0.786958 -0.162457 0.39174
23.9455 9.33004 16.6612 0.760923 0.927635 0.223897
21.4137 7.29255 19.1811 0.580973 1.23285 -0.341176
21.1426 8.46351 16.5639 0.878459 -0.222317 -1.00498
24.9133 10.9244 18.8589 1.44259 0.163848 -0.904251
27.0194 9.0256 19.3758 -1.07347 -0.187937 -0.139324
26.7483 10.1966 16.7586 -0.565115 2.42222 -1.04837
11.2756 15.9336 19.3437 0.288209 1.39101 0.371074
10.5789 13.1683 19.7632 0.857179 -0.267248 -1.36288
10.3078 14.3392 17.146 -0.535087 0.312899 -0.681225
16.2455 16.0014 18.8592 -2.60545 -0.554779 0.337867
15.5488 13.2361 19.2787 -1.47783 0.445621 1.89131
15.2777 14.407 16.6615 1.28335 -0.469522 1.22844
12.9283 13.7877 18.2124 2.51766 0.269904 -0.215396
18.866 15.4498 19.9255 0.0320676 0.775182 1.3242
18.1693 12.6845 20.345 -1.24529 1.06992 -1.26108
17.8982 13.8555 17.7278 1.41194 0.130952 -0.147064
20.0043 11.9567 18.2447 1.24374 0.107144 -1.89946
23.5039 15.5885 17.9225 1.46718 -0.216966 0.375124
20.701 14.722 17.8252 1.56827 2.13747 1.10109
22.8072 12.8232 18.342 0.276622 0.647778 -0.207379
28.4128 14.5562 18.5367 -0.717963 -0.474983 2.20788
25.61 13.6897 18.4393 -0.954434 -1.85686 -0.353253
27.7161 11.7909 18.9562 0.791995 -1.05159 1.27323
30.5986 15.3389 20.245 1.54186 -0.0556599 -1.58036
11.9723 18.6989 18.9242 0.435269 -0.842629 -0.569861
11.0045 17.1046 16.7265 1.89536 1.81388 -0.812724
9.35179 19.2505 17.8578 -0.341058 0.244901 -0.733009
8.65508 16.4852 18.2774 -0.598552 -0.822706 0.296881
14.5928 18.1474 19.9905 -1.79499 0.339713 0.402528
14.3217 19.3183 17.3733 0.155753 0.768473 -0.927693
13.625 16.553 17.7928 1.46055 -0.947527 -2.63968
19.5627 18.2152 19.5059 0.978992 -1.43778 -1.75378
19.2916 19.3861 16.8887 -1.26352 -0.498129 -1.95568
18.5949 16.6208 17.3083 0.0534037 -0.256401 2.00131
16.9422 18.7667 18.4396 -0.547544 1.5484 -0.740054
22.3656 19.0817 19.6033 -0.479685 0.36599 2.04274
22.0944 20.2526 16.9861 -0.287108 -0.754735 -0.261066
24.4717 17.1829 20.1201 1.0925 0.47103 0.88086
24.2006 18.3538 17.5029 -0.0698865 2.36765 0.187885
21.6689 16.3164 20.0228 -0.989677 -0.79013 1.42512
21.3977 17.4873 17.4056 -0.72191 -0.550416 0.246153
26.3863 19.1365 19.2113 -0.178236 -1.19336 -2.07583
26.1152 20.3075 16.5941 -0.68235 2.3303 -0.522218
26.3067 16.455 18.0198 -1.04739 0.812163 -0.928864
28.4924 17.2377 19.7281 -0.450992 -0.909133 -0.0904443
28.2213 18.4087 17.1109 0.255448 -0.145924 1.5059
30.407 19.1914 18.8193 0.565278 -0.718375 0.13122
30.3274 16.5099 17.6278 -1.15229 -0.561787 0.650809
32.5132 17.2926 19.3361 -0.151995 -0.64196 0.0207913
32.242 18.4635 16.7189 2.33473 -1.41413 -0.392598
10.3196 20.8449 20.0555 -0.962203 0.409896 0.367202
10.0485 22.0159 17.4383 0.0838192 0.914604 -0.838062
11.8299 24.2087 18.2348 -1.77522 -0.547672 0.108947
9.48056 23.5893 19.7857 0.74509 0.419196 0.0764107
9.20943 24.7602 17.1685 0.525689 1.56979 -0.225495
15.2895 20.9127 19.5709 -1.80734 1.97426 0.318959
15.0184 22.0837 16.9537 0.592444 2.34312 -2.92327
12.669 21.4643 18.5046 2.1855 -1.26543 2.18828
14.4505 23.6571 19.3011 0.696472 2.05879 -0.596086
20.2594 20.9805 19.0864 0.452511 0.550878 -1.05445
19.9883 22.1514 16.4692 1.07344 1.09709 0.333532
17.6389 21.5321 18.0201 -1.03126 1.03306 -0.980073
19.4204 23.7248 18.8166 -1.46619 -0.598612 -2.15717
17.071 23.1055 20.3675 0.232942 -0.569974 -0.202796
16.7998 24.2764 17.7503 0.221173 0.895819 1.26324
22.174 22.9341 18.1775 -0.181833 0.295352 1.63116
24.3597 23.7168 19.8859 0.349275 0.787951 0.447436
24.2802 21.0353 18.6944 0.727039 0.77729 1.13802
26.1947 22.989 17.7855 1.11649 0.91592 -0.323003
28.3805 23.7716 19.4939 0.697781 -0.656413 -0.964046
28.3009 21.0902 18.3024 1.59262 1.76676 -1.57341
30.4866 21.8728 20.0107 -0.0252513 1.31958 2.12647
30.2155 23.0438 17.3935 -1.02457 2.00678 0.547647
32.4012 23.8265 19.1019 -1.9511 1.17559 0.597842
32.3216 21.145 17.9104 -1.88689 -2.19256 1.73788
10.9909 26.953 17.965 2.06532 1.01726 1.34135
8.6415 26.3337 19.5159 -2.31 -0.451695 1.0955
10.4229 28.5264 20.3124 -0.257439 0.162541 -2.20023
14.1793 24.828 16.6839 -0.943433 0.597725 -1.36828
16.2319 25.8499 20.0976 1.0285 -0.432058 0.730581
15.9608 27.0208 17.4804 0.592174 2.00205 -1.86608
13.6114 26.4014 19.0313 -1.60607 0.336959 -1.20239
15.3928 28.5942 19.8278 0.580852 -0.0497377 1.78182
12.7723 29.1458 18.7615 1.80802 -0.499693 -1.15984
18.5813 26.4692 18.5468 0.5864 -0.85094 0.983312
20.4959 28.4229 17.6379 -0.47119 -2.25618 -0.862883
21.335 25.6785 17.9077 0.0343437 -0.337611 -0.490633
24.0886 24.8878 17.2687 1.4742 1.06561 0.4446
20.767 27.2519 20.2551 0.132819 0.560036 -0.941175
23.5207 26.4612 19.616 -0.448905 -2.49955 1.25093
23.2495 27.6321 16.9988 -0.210835 -0.444197 1.19669
26.2743 25.6704 18.977 0.295066 0.161709 -0.0139154
25.4353 28.4148 18.7072 -0.501024 -2.19941 1.02936
28.1889 27.6241 18.0681 0.471319 -0.353195 1.39645
28.1093 24.9426 16.8767 -1.20112 1.08738 1.90701
30.2951 25.7253 18.585 -0.93226 0.0992034 0.00751862
32.1301 24.9974 16.4847 1.70797 -0.660986 -1.28632
15.1217 29.7652 17.2106 -0.115803 -0.383669 -0.653478
14.5538 31.3386 19.558 0.825424 0.411432 -1.06196
17.7422 29.2136 18.2769 -0.499925 1.69761 -0.0820035
16.9031 31.958 18.0071 -0.495774 -0.167237 -1.86497
19.928 29.9963 19.9853 0.745497 -1.21147 -0.8524
19.6568 31.1672 17.3681 -1.25717 -1.81226 -1.25537
19.0889 32.7406 19.7155 -0.620931 -0.610057 1.89841
22.6816 29.2055 19.3462 -0.525488 -2.20488 -0.845479
22.4105 30.3765 16.729 1.76244 0.0944194 0.125485
21.8425 31.9499 19.0764 0.744521 0.324701 0.3085
24.5962 31.1592 18.4374 -0.394071 -1.29294 -0.724538
27.3499 30.3685 17.7983 2.17796 -0.807928 -0.716972
26.7819 31.9419 20.1457 -0.633339 -1.88715 -0.681225
15.1232 9.29982 22.3155 -0.646678 1.21318 1.46356
13.4705 11.4458 23.4468 -0.625487 0.314727 -2.25363
12.5027 9.8514 21.2491 -0.899385 1.33681 0.799999
18.4404 11.5136 22.9622 -0.565684 -2.04714 -1.6589
20.5466 9.61477 23.4791 1.02612 0.473165 -1.18782
20.2754 10.7857 20.8619 0.324574 2.34771 -1.98467
17.7437 8.74825 23.3818 -0.239261 -0.214672 -0.322215
17.4726 9.9192 20.7646 0.544574 -1.54346 -1.3229
19.5787 8.0204 21.2815 0.543325 -0.211493 1.40705
23.3494 10.4813 23.5764 -0.307689 0.493528 -0.598558
23.0783 11.6522 20.9592 -0.130227 3.56444 -0.624679
22.3816 8.88693 21.3788 -0.769991 -0.788063 0.196351
26.1523 11.3478 23.6738 -1.01399 -1.23471 0.104703
27.9873 10.62 21.5734 1.61829 0.625832 -0.392261
25.1844 9.75345 21.4761 -0.528646 0.666333 -0.327537
11.5467 14.7627 21.9609 -0.547944 -3.07594 -0.518041
10.85 11.9973 22.3805 -1.12988 -0.852188 0.445577
9.19736 14.1433 23.5118 0.808117 -0.751505 -0.782106
8.92622 15.3142 20.8946 -1.99592 0.0454107 -0.595915
16.5166 14.8305 21.4764 -1.26682 0.430802 -0.253339
15.8199 12.0651 21.8959 1.14006 1.20243 -0.244178
14.1673 14.2111 23.0272 -0.31162 -1.21384 -0.571361
13.8961 15.382 20.41 0.0544126 0.796981 -0.129921
13.1994 12.6167 20.8296 0.553403 -0.320472 0.592815
19.1371 14.2789 22.5427 -1.32477 -0.777356 -0.745095
16.7878 13.6595 24.0936 2.76909 -0.856189 1.28389
24.7428 16.0119 22.7373 -0.312985 -0.281265 0.242104
21.94 15.1454 22.64 -0.114164 -0.843079 0.146791
24.0461 13.2466 23.1569 0.229663 1.67502 -0.524421
23.775 14.4176 20.5397 -0.680723 -2.15585 -0.315572
21.2433 12.3801 23.0596 -0.248287 0.573888 0.309908
20.9721 13.551 20.4424 0.715905 0.907628 -0.651266
26.849 14.1131 23.2542 -0.375987 -0.497597 1.79273
26.5778 15.2841 20.637 -0.617454 -0.157562 0.628785
28.684 13.3853 21.1539 -1.63651 0.360592 -1.53443
25.8811 12.5188 21.0565 -0.284202 2.65204 -0.333158
28.9551 12.2143 23.7711 0.263414 0.219277 -1.09961
30.8697 14.168 22.8622 -2.67319 -0.107238 -1.73154
10.5908 19.674 22.6727 1.1672 0.462469 2.23517
12.2434 17.528 21.5414 -0.44751 -1.42364 -0.11228
9.89407 16.9086 23.0922 1.93752 -1.52616 -1.62795
9.62293 18.0796 20.475 1.48511 -0.310178 -0.461503
15.5607 19.7417 22.1882 -1.6458 0.0800103 -1.06672
13.2113 19.1224 23.739 1.30116 1.94232 -0.510049
12.9402 20.2933 21.1218 -0.0619363 -1.6832 -0.341105
14.864 16.9764 22.6077 -1.35408 1.73934 -0.215962
12.5146 16.357 24.1586 0.890315 -0.964897 2.6914
20.5306 19.8095 21.7036 -1.6741 1.3823 0.396983
18.1812 19.1902 23.2545 0.0824292 -0.166102 1.12974
17.91 20.3611 20.6373 0.419211 0.0395699 -0.392626
19.8339 17.0442 22.1232 -1.39937 -0.473385 -0.67613
17.4845 16.4248 23.674 0.609587 0.627299 -1.58252
17.2133 17.5958 21.0568 -0.916334 -1.28576 1.52119
20.8017 18.6386 24.3208 -0.188549 1.67733 -1.55644
22.6367 17.9107 22.2205 1.08572 1.63658 -1.84603
24.5513 19.8644 21.3116 0.0614151 -0.689485 1.37586
24.8224 18.6934 23.9288 1.00013 1.05271 -0.136473
26.6574 17.9656 21.8285 -0.583146 0.629061 2.0107
28.8432 18.7483 23.5368 2.37986 1.77286 1.25915
28.572 19.9192 20.9196 -3.28184 -0.961237 0.41107
28.7636 16.0668 22.3453 0.845991 1.34725 1.28898
30.9493 16.8495 24.0537 -0.390036 0.464673 1.05708
30.6782 18.0204 21.4365 -2.39368 -2.84334 0.295959
32.8639 18.8031 23.1448 -0.649311 1.31317 1.91532
32.5928 19.974 20.5276 -0.59867 0.46792 0.748783
32.7843 16.1216 21.9533 0.232225 -2.51904 -0.10231
12.3722 21.8668 23.4692 1.61984 0.322088 1.99305
12.1011 23.0377 20.852 1.1583 0.424069 0.778981
9.7517 22.4183 22.4029 0.481627 1.05422 -1.01112
11.5331 24.6111 23.1994 -0.0264352 -1.85197 -1.01715
14.7216 22.4861 21.9183 0.74575 -1.21897 0.323788
16.5031 24.6789 22.7148 -2.89036 0.64284 -1.69321
14.1537 24.0595 24.2657 0.0509257 0.100117 0.677727
19.9626 21.3829 24.051 -0.647574 0.0421572 -0.203286
19.6915 22.5539 21.4338 0.977525 0.566885 1.11059
17.3421 21.9345 22.9847 -0.881419 -0.153279 1.72477
19.1236 24.1273 23.7812 0.785846 1.48974 -0.074785
22.7163 20.5922 23.4119 1.11849 -0.349265 0.318595
22.4452 21.7632 20.7947 -1.20482 0.422669 0.496959
21.8772 23.3366 23.1421 -1.19528 -0.381824 -1.45733
21.6061 24.5075 20.5249 0.63698 -0.594139 2.32879
24.6309 22.5458 22.5031 3.4956 -0.614578 0.429544
26.8166 23.3285 24.2114 0.798532 1.9659 0.642228
26.5455 24.4995 21.5942 -0.905275 -1.7339 0.232571
26.737 20.6471 23.0199 1.38522 0.189275 -1.19099
26.4659 21.818 20.4027 -1.50373 0.3309 -1.18331
28.6516 22.6007 22.1111 0.596235 0.0714449 0.935778
30.8373 23.3834 23.8194 2.49128 -1.50099 -1.80004
30.5662 24.5543 21.2022 0.711882 0.0494031 0.127216
30.7578 20.7019 22.6279 0.504989 -0.0873235 1.65616
32.6723 22.6555 21.7191 -1.87607 -0.579241 0.616696
11.262 25.7821 20.5822 -1.00732 0.306679 -0.113643
8.91264 25.1627 22.1331 -0.223337 1.20222 -0.300527
10.6941 27.3555 22.9296 -1.15107 3.07712 -2.56128
13.8825 25.2305 21.6485 1.66407 1.57707 0.0588863
15.664 27.4233 22.445 1.90615 -1.55284 -1.73738
13.3146 26.8039 23.9959 -0.52126 2.77721 0.649054
13.0435 27.9749 21.3787 -1.7789 1.09711 1.40001
18.8524 25.2983 21.164 -0.300288 -0.401596 0.0194556
18.2845 26.8717 23.5114 0.459079 -1.08567 1.09256
18.0134 28.0426 20.8941 1.20022 -1.02268 -0.751006
20.1991 28.8253 22.6025 -0.420806 2.41711 0.940135
21.0382 26.081 22.8723 1.24712 0.0932267 1.79386
23.7918 25.2902 22.2332 -0.584614 -0.775948 -0.479875
22.9527 28.0346 21.9634 0.383019 -0.0228192 0.31165
25.9775 26.0729 23.9416 0.795068 0.265504 -0.0984054
25.7064 27.2439 21.3244 -1.52377 -0.430282 0.8603
28.7312 25.2822 23.3025 -1.68514 0.534068 0.580815
28.4601 26.4531 20.6853 -0.659725 -1.06822 -0.802198
25.1385 28.8173 23.6718 -0.706537 0.177513 -1.66275
27.8921 28.0265 23.0327 -1.42057 1.02179 0.833717
12.2044 30.7192 21.1089 -1.27806 0.197706 1.34055
14.8249 30.1676 22.1752 1.7832 -0.475721 -0.905076
12.4755 29.5483 23.7261 -0.0856306 -1.0997 1.45997
17.4454 29.6161 23.2415 -0.235071 2.03714 1.21081
17.1743 30.787 20.6243 0.91015 -1.92377 -1.32472
19.36 31.5697 22.3327 -0.537794 0.99511 -1.47705
22.3848 29.608 24.3108 -0.952117 -2.12955 0.174933
22.1137 30.779 21.6936 -0.28215 2.40883 -1.14655
21.5457 32.3524 24.041 0.311285 1.52266 0.040017
21.2746 33.5233 21.4238 -1.27921 -0.0311223 -1.6184
24.2994 31.5616 23.4019 2.0942 -0.17919 -0.00148893
24.0283 32.7326 20.7847 -1.04536 0.852726 -1.10132
24.8673 29.9882 21.0546 -0.727615 -2.05435 -0.795745
27.621 29.1975 20.4155 0.884361 -1.11933 -0.429207
27.0531 30.7709 22.7629 -0.266325 -1.28541 0.584412
16.0911 10.8942 24.5131 0.0157531 -1.47115 -1.08937
18.7116 10.3426 25.5795 0.462111 0.078928 0.00861955
21.5144 11.2091 25.6768 -1.66103 -1.07764 0.68965
11.8179 13.5917 24.5781 1.07452 0.688819 -1.59523
10.1652 15.7376 25.7094 -0.727353 -0.881901 0.297128
15.4062 14.6345 27.8421 0.147442 0.16135 0.993269
15.1351 15.8054 25.2249 2.20254 1.21609 0.12175
14.4384 13.0401 25.6444 0.786018 0.26288 -0.193401
12.7857 15.1861 26.7758 1.03931 -1.82204 -0.519323
20.3761 14.7023 27.3576 -1.98999 -0.279838 -1.99951
20.105 15.8733 24.7404 -0.523553 0.463451 -1.97333
19.6794 11.937 27.7771 1.53662 2.15009 0.567595
19.4083 13.1079 25.1599 -0.0770989 -0.962049 -2.04753
17.7556 15.2539 26.2912 -0.0373411 -1.24052 -0.786724
17.0589 12.4886 26.7108 0.511419 0.571645 -1.28109
23.179 15.5688 27.4549 2.41625 -1.04822 -0.560348
22.4823 12.8035 27.8744 -0.389369 -0.126251 2.85027
22.2111 13.9745 25.2572 -0.319428 2.06844 0.102352
24.3173 12.0757 25.7741 -0.6299 1.38431 0.473326
25.2851 13.67 27.9717 -0.959446 0.09112 1.32239
25.014 14.841 25.3545 -0.237774 -1.0986 0.811205
27.1997 15.6237 27.0629 0.676235 -0.770412 -0.659336
27.1201 12.9422 25.8714 1.0277 -1.12088 -0.130816
29.0347 14.8958 24.9625 -0.972602 -1.02509 -0.763121
11.133 17.3321 27.9071 2.5585 -0.462943 0.346456
10.8619 18.503 25.2899 0.916129 0.188813 -2.15974
10.294 20.0764 27.6373 0.0128241 -0.454305 -0.606998
16.1029 17.3998 27.4226 0.433412 0.561533 1.49743
15.8318 18.5708 24.8054 -0.17253 -0.583596 -0.693759
13.4824 17.9514 26.3562 -0.773529 0.370504 -0.00893365
15.2639 20.1442 27.1527 0.0289781 1.68216 1.97962
18.4523 18.0192 25.8717 0.754199 0.0154191 0.546453
20.2338 20.212 26.6682 -0.819109 2.11318 -2.41565
17.8844 19.5926 28.2191 0.179968 -1.31095 0.704483
21.0728 17.4676 26.938 1.82613 -0.705583 -0.35053
22.9874 19.4213 26.0291 -1.75841 -1.11716 1.17763
22.9078 16.7398 24.8377 0.317264 -1.82961 0.175323
25.1732 20.2039 27.7375 0.614688 -0.427982 1.74737
25.0936 17.5225 26.546 -0.845201 -2.05651 -0.302297
27.0082 19.4761 25.6371 0.109008 0.443707 -0.687079
26.9286 16.7946 24.4457 -0.960565 1.00754 1.73154
29.1939 20.2588 27.3455 1.13356 0.783298 0.270709
29.1143 17.5773 26.154 -0.743127 -0.147439 1.52304
31.0289 19.5309 25.2451 -0.140223 0.290934 -1.09082
10.0228 21.2474 25.0201 -0.315871 -0.190093 -0.49044
11.8043 23.4402 25.8166 -0.971003 0.168178 -1.85199
9.45491 22.8208 27.3675 1.21866 -0.692306 -0.665121
9.18378 23.9918 24.7503 -1.84422 0.584056 -0.237219
14.9927 21.3152 24.5355 0.736478 -0.275533 0.307855
12.6434 20.6958 26.0864 4.40433 -1.03252 0.417399
14.4248 22.8886 26.8829 -0.746356 -0.0611241 0.283174
17.6133 20.7636 25.6019 0.0100907 -0.177834 -0.401682
19.3947 22.9564 26.3984 -0.386546 -0.50923 -1.51177
17.0453 22.337 27.9492 -0.891134 -1.30354 -1.1703
16.7742 23.508 25.332 1.66001 -0.980819 0.655005
22.1484 22.1656 25.7593 -0.419992 0.0111269 0.855233
21.5804 23.739 28.1067 1.11019 2.42503 -0.63745
24.3341 22.9483 27.4677 0.374621 0.962274 0.212979
24.0629 24.1193 24.8505 -0.501692 -2.41022 -2.46573
24.902 21.3749 25.1203 0.869017 0.177426 0.960721
27.0877 22.1576 26.8286 0.325797 0.876889 0.679383
29.0023 24.1112 25.9197 0.644894 1.17293 0.0575774
28.9228 21.4297 24.7283 -0.597325 0.754541 0.506166
31.1085 22.2124 26.4366 -0.0788576 -0.965504 0.781762
32.9435 21.4846 24.3363 0.0818482 0.147358 0.401614
11.2364 25.0136 28.164 0.202812 0.519153 0.810872
10.9652 26.1845 25.5468 0.379834 -1.36058 -1.24626
16.2063 25.0814 27.6794 -0.209354 0.726041 1.12642
15.9351 26.2523 25.0622 1.37958 -0.636152 -0.984607
13.5857 25.633 26.6131 1.05444 0.421247 0.340513
15.3672 27.8257 27.4096 -0.950263 0.550088 1.19117
15.0961 28.9967 24.7924 0.109912 0.0686082 0.521838
12.7467 28.3773 26.3433 -0.555638 -0.16951 -0.98736
18.5556 25.7007 26.1286 -1.13731 0.343985 -0.562271
17.7166 28.4451 25.8587 -1.18926 -1.06842 -0.472906
20.4702 27.6544 25.2197 0.733061 0.326795 -1.81749
21.3093 24.91 25.4895 -1.51722 -0.0569698 -3.18438
20.7414 26.4834 27.8369 -1.39449 2.56957 0.885681
23.495 25.6927 27.1978 1.3128 0.681916 0.0198284
23.2239 26.8636 24.5806 0.562518 -2.18324 1.47475
22.656 28.4371 26.928 0.935576 -0.801262 0.048357
26.2487 24.902 26.5588 0.82865 -0.751724 -0.959792
25.4096 27.6463 26.289 0.332989 1.08455 -0.690805
28.1633 26.8556 25.6499 0.138415 1.71633 -0.133791
27.5953 28.429 27.9973 0.605496 -0.547973 -0.929778
19.9023 29.2278 27.5671 0.0698446 0.618539 -2.63924
19.6312 30.3987 24.9499 -2.24619 0.278976 2.01222
21.8169 31.1814 26.6582 0.0186458 -1.23467 0.166544
24.5705 30.3907 26.0191 0.709539 0.758511 1.40519
27.3242 29.6 25.3801 -0.21043 -0.651896 0.352109
18.9946 15.6773 31.1061 -1.43244 -0.34443 0.458242
20.6473 13.5313 29.9748 0.0839038 -0.233925 -0.407742
18.0268 14.0829 28.9084 0.836915 -0.156585 0.13959
21.6151 15.1257 32.1724 1.06774 0.477648 0.953446
23.4501 14.3979 30.0721 1.68027 -0.6162 -0.00269117
16.3741 16.2289 30.0398 0.550858 0.162761 1.72002
13.7536 16.7805 28.9734 -0.515541 0.468817 0.867149
15.535 18.9733 29.7699 1.05419 0.356466 -1.09817
12.9145 19.5248 28.7036 0.707828 -0.500421 -0.98745
18.7235 16.8482 28.4889 0.806484 -0.218934 -0.162594
20.5049 19.041 29.2854 0.83805 0.518129 -0.94233
18.1555 18.4217 30.8363 1.71558 -0.499025 -0.39918
21.344 16.2967 29.5552 0.887128 0.240234 -0.071575
20.7761 17.8701 31.9026 2.02747 -0.301608 0.4981
23.5297 17.0793 31.2635 -2.2144 -0.337863 -0.358977
23.2586 18.2503 28.6463 -1.87221 0.431112 -0.249131
22.6906 19.8237 30.9937 0.585343 0.242074 -1.29871
25.4443 19.033 30.3547 -0.276906 1.45308 1.08213
25.3647 16.3515 29.1632 -0.973785 0.243403 0.492742
27.2793 18.3051 28.2543 1.43486 -0.463322 -2.02151
12.0754 22.2692 28.4338 0.277391 -0.878026 -0.116393
14.6959 21.7176 29.5001 -0.996541 -1.4524 0.958104
16.4774 23.9104 30.2966 1.78209 -0.188116 -0.52198
13.8569 24.462 29.2303 0.65825 -1.86996 0.177494
19.937 20.6145 31.6328 0.19664 1.23491 0.685596
19.6658 21.7854 29.0156 1.18331 0.550338 1.22246
17.3165 21.166 30.5665 -0.21403 -1.36491 1.31287
19.0979 23.3588 31.363 -2.61185 0.542469 0.763038
18.8268 24.5298 28.7458 -0.000656103 0.181092 -1.58918
22.4195 20.9947 28.3765 -0.380205 -0.632253 -1.42517
21.8516 22.5681 30.7239 -1.67909 0.103098 -1.00353
24.6052 21.7774 30.0849 2.96093 -0.670376 0.356985
23.7662 24.5217 29.815 0.844996 0.0303233 1.92191
27.3589 20.9866 29.4458 0.433999 0.315204 -0.751305
26.5198 23.731 29.176 -0.00167142 -2.57115 1.31289
29.2735 22.9403 28.5369 -1.24573 1.08403 1.69661
15.6383 26.6548 30.0268 -1.33134 -0.119701 -0.398674
13.0178 27.2064 28.9605 -1.23703 -1.08607 0.382933
18.2588 26.1032 31.0931 -0.0459199 -0.526895 -0.895343
17.9877 27.2742 28.4759 0.103843 1.26118 0.837965
20.1734 28.0568 30.1843 0.158817 0.509304 -0.813267
21.0125 25.3125 30.4541 0.806926 0.768159 0.172339
22.9271 27.2661 29.5452 -0.643566 0.0817832 1.67264
25.6807 26.4754 28.9062 -0.45498 0.232658 -0.12761
28.4344 25.6846 28.2671 -0.733323 -2.43975 -1.62269
22.088 30.0105 29.2754 -0.596125 -2.02784 -2.32538
24.8417 29.2197 28.6364 -1.29183 1.43264 -0.488894
ITEM: TIMESTEP
1000
ITEM: NUMBER OF ATOMS
520
ITEM: BOX BOUNDS ss ss ss
8.3798665893699535e+00 3.2947563872755715e+01
7.2884757401247997e+00 3.3527410888696174e+01
8.6135055135644247e+00 3.2176495057951179e+01
ITEM: ATOMS x y z vx vy vz
20.4537 11.3953 11.401 -1.46531 -0.289882 -1.02985
16.5288 14.9349 10.3416 -1.28913 -0.0707805 0.474097
13.9757 14.4604 11.9019 2.38459 1.82644 -1.15672
19.1069 15.7096 10.3087 2.36457 -0.602645 0.267906
18.4983 13.0766 10.7787 0.349731 1.5737 -1.47909
24.0682 14.5607 10.8178 -0.543064 -0.252168 -0.156573
21.2426 13.8486 10.9035 0.0260254 0.470867 1.14356
23.3234 12.1024 11.425 2.07111 -1.36162 0.654816
26.7236 15.2031 11.1443 1.58262 1.12433 -1.94961
25.945 12.7373 11.8475 -2.62488 -0.679738 0.835072
15.3818 19.5501 10.9983 0.280651 1.00301 0.701742
14.7957 17.0669 11.4118 0.483636 -0.552026 2.4884
18.0701 19.0697 12.0331 -0.890266 -1.56722 2.00377
17.7507 20.2836 9.7262 0.627629 -0.789053 1.49151
19.7808 18.3564 9.99237 -0.922595 -0.10339 -0.380854
17.2287 16.4318 12.3535 -0.518049 0.476975 4.44409
17.0034 17.7141 9.79319 -0.498291 0.904131 -1.38732
20.7371 20.0532 11.8994 0.775919 -1.29704 0.295868
22.5692 19.3193 9.92255 1.52878 1.08219 -0.452688
21.8809 16.5737 10.4208 -0.834269 0.31112 -0.0536759
25.2741 19.8718 10.2521 1.1527 -0.682523 0.701584
27.2815 18.051 10.7763 -0.219803 0.425665 0.411515
24.6377 17.206 10.4588 -0.992474 -0.740229 1.01059
29.3989 18.8066 12.3621 -2.89563 1.34607 0.885292
14.5641 24.3555 11.802 0.794911 -0.615531 2.0602
15.9975 22.4588 10.3841 0.504897 -0.854622 0.859693
13.7774 21.8239 12.0461 2.57302 0.461906 -0.084183
19.4314 24.5165 11.1557 0.0978619 0.356371 0.379457
18.6586 21.9854 11.4986 0.477277 -1.59521 -0.596608
18.5041 22.971 9.02904 -0.364378 0.163038 1.87982
20.3539 21.1018 9.3571 0.0239984 1.32634 0.601129
21.4934 22.7559 11.3912 0.158522 -0.493281 1.09811
21.1214 23.8129 8.99088 -0.410672 -1.21213 0.2964
23.3995 24.7164 10.6352 -1.87971 0.0309311 0.422863
23.5234 20.7884 12.1501 -0.382993 0.161394 0.671863
23.2846 21.8504 9.69698 0.524842 0.173551 -0.485875
25.4897 22.5571 11.1809 -0.292063 -1.5498 1.09873
27.6634 20.639 11.9572 -1.9148 -0.484522 -0.302163
16.208 26.8095 12.3584 -0.078742 -0.912428 0.892421
19.1122 25.6714 8.54046 -0.692756 -0.511943 2.48719
16.8583 25.0781 10.0812 0.41625 0.284753 1.65267
18.5812 27.2715 10.882 -0.950043 0.209184 0.528859
21.3446 26.4084 10.1106 0.313919 1.4848 1.33438
23.5527 27.035 12.0879 -0.75613 0.0195043 -0.651202
18.8073 10.5607 16.2829 0.282798 0.245842 2.60752
18.5771 11.879 13.282 -0.173857 -0.166158 -0.313688
21.7825 11.3273 16.3174 0.255275 0.834343 -0.383101
23.3523 10.9708 13.9878 -0.817918 0.758944 0.706647
20.471 10.1588 14.1161 0.242017 -1.23074 -0.719789
26.1535 11.7112 14.294 -1.36961 -0.73411 -0.916572
12.2882 12.4756 16.1384 0.320992 -1.42036 0.681895
11.8708 13.9223 13.4988 0.0997037 0.0673904 -0.743872
10.2206 15.7799 14.6076 -0.552303 -1.51722 0.666762
14.9586 15.7963 14.0506 1.90238 0.00778718 0.525612
14.4262 12.98 14.2391 1.93488 1.68862 0.0452522
12.7608 15.2111 15.7392 0.170177 2.27113 2.47857
20.3317 15.8949 15.2016 -0.433707 2.47129 -0.0822253
17.5958 15.0982 15.0293 0.7845 1.93761 0.272562
19.6371 13.0965 15.6618 0.264052 1.86945 -0.90254