ITEM: TIMESTEP
0
ITEM: NUMBER OF ATOMS
531
ITEM: BOX BOUNDS ss ss ss
8.9410080018019880e+00 3.1248127905517034e+01
7.4308483639612666e+00 3.3330201798351226e+01
7.3049036297228378e+00 3.3485096679041455e+01
ITEM: ATOMS x y z vx vy vz
16.5236 14.0175 11.6044 -0.164352 2.43314 -1.20886
16.2525 15.1885 8.98718 0.887189 0.342162 0.243166
13.9031 14.5691 10.538 -1.15921 -0.711838 0.488561
19.0553 16.055 9.0845 -2.08095 0.312488 1.98656
21.1615 14.1562 9.60136 -0.862846 -0.203191 0.425325
18.3586 13.2897 9.50405 0.216501 2.56596 -1.48362
26.7672 15.8893 9.796 -0.599312 1.16822 1.90889
23.9643 15.0227 9.69868 2.3427 -1.55532 -0.417347
12.9471 19.4804 11.2498 -0.831429 0.0681043 -0.111782
17.2203 16.7829 11.1848 -0.643441 0.0379905 0.295115
16.9492 17.9538 8.56763 0.178469 0.19474 0.685533
15.2965 20.0997 9.69895 0.73134 0.0330571 1.75651
14.5998 17.3344 10.1185 0.281741 1.71466 -0.23193
17.917 19.5482 10.7653 1.60209 -1.5601 0.905388
20.0232 17.6494 11.2822 -1.72121 1.76016 0.474306
19.752 18.8203 8.66495 0.827896 -0.40329 -0.939515
21.8582 16.9215 9.18182 -1.16287 -0.0576488 -0.371972
25.6289 19.3824 11.4768 -2.59129 -0.562402 0.422927
22.826 18.5159 11.3795 0.187111 0.795807 -0.864132
22.5549 19.6868 8.76226 1.07242 1.6174 0.346093
24.661 17.7881 9.27913 -0.893323 0.355321 -0.0387057
27.4639 18.6546 9.37645 -0.209318 -0.138834 -0.374021
29.6496 19.4373 11.0848 -0.0967518 -1.40602 0.591605
16.9611 24.4594 11.4771 2.17551 -0.23958 0.48616
17.6459 20.7191 8.14808 -0.151044 -0.63718 2.59327
15.9932 22.8651 9.2794 -0.725941 -1.21606 -1.18382
13.6438 22.2457 10.8303 0.997463 0.850149 0.111197
21.4166 23.18 10.4431 -1.31947 -0.469262 -0.648003
21.1455 24.351 7.82585 1.08518 -1.43933 -1.73134
18.6137 22.3135 10.3457 -1.71483 2.03378 0.340986
18.3426 23.4844 7.72853 0.711269 2.39836 -2.9092
20.7199 20.4147 10.8626 -0.497152 1.57344 -0.705483
20.4487 21.5856 8.2454 -0.690555 -0.400581 -0.611532
23.5227 21.2812 10.9599 0.0687765 0.765849 1.38111
23.2516 22.4522 8.34271 0.113927 -0.271477 2.05438
25.4373 23.2349 10.051 1.44578 0.10723 -0.0675931
25.3577 20.5534 8.85958 0.161979 2.72222 -0.32288
27.5435 21.3361 10.5679 1.11676 -1.79105 -0.399478
16.6899 25.6304 8.85986 1.00863 0.576357 -0.960332
14.3405 25.011 10.4107 0.380017 -0.093084 0.806152
16.122 27.2038 11.2072 -0.436707 1.52311 -0.588318
19.3104 25.0788 9.92619 0.0856379 0.650197 0.163548
19.0393 26.2498 7.30898 -1.26677 -0.286926 0.478116
18.4714 27.8232 9.65637 -1.59456 -1.10599 1.15918
21.4962 25.8615 11.6345 0.423581 -1.8451 0.187757
21.225 27.0324 9.01732 1.21664 1.62007 -1.84026
20.6571 28.6059 11.3647 -0.700468 -2.07929 -0.312214
23.4108 27.8151 10.7256 -0.203614 -0.332755 0.260154
23.3312 25.1337 9.53418 -0.905633 -0.823961 1.461
25.5169 25.9163 11.2425 0.773628 0.866528 -0.588912
18.9009 10.9478 14.7385 0.435629 1.23654 -0.305565
12.5216 15.5441 14.2866 -2.02608 0.210426 -0.56423
17.4915 15.6119 13.802 -0.917681 -1.35009 0.975304
16.7948 12.8466 14.2216 -0.858814 -2.10535 0.118559
15.1421 14.9925 15.3529 -0.311666 -1.29249 -0.812134
14.4454 12.2272 15.7725 0.8737 0.589127 1.67506
14.1742 13.3982 13.1553 0.885019 0.314188 1.46529
22.1293 15.7506 11.799 1.90934 -0.450374 -1.12333
19.5976 13.7131 14.3189 0.278996 0.552379 -0.832796
19.3265 14.8841 11.7017 0.213721 0.657069 -2.66523
21.7037 11.8143 14.8358 1.08714 1.27839 1.50238
21.4326 12.9853 12.2186 1.15892 1.24821 0.433307
18.6298 12.1187 12.1212 0.757219 -0.224821 -0.974619
25.2033 15.4461 14.5135 -0.904556 0.225996 -1.76978
22.4004 14.5796 14.4162 -1.70513 1.15277 1.44376
24.5066 12.6808 14.9331 0.190405 -2.65206 -0.117654
24.2354 13.8518 12.3159 -0.170426 -0.777673 0.00102682
27.3094 13.5474 15.0304 -1.93873 1.01903 0.581402
27.0383 14.7183 12.4132 1.74797 -0.824134 -1.30929
13.2183 18.3094 13.867 0.790647 0.0229125 0.0125912
12.2504 16.7151 11.6694 -0.603451 -0.663263 0.324953
10.8689 17.69 15.4179 1.8013 1.22801 -1.27242
10.5978 18.861 12.8007 -0.66157 1.58075 0.650901
15.8388 17.7578 14.9334 1.48333 -0.544652 -1.00372
15.5677 18.9288 12.3162 2.03424 -1.46697 -1.76183
14.8709 16.1635 12.7357 -0.614704 -2.44113 -1.71784
19.156 19.9716 15.5801 -0.125884 -0.517446 -0.663695
20.991 19.2437 13.4798 -0.890122 -1.25903 1.56269
18.4593 17.2063 15.9997 -0.0455753 -1.5994 -0.304159
18.1882 18.3772 13.3825 2.22802 -1.18586 2.22333
20.2943 16.4784 13.8994 0.104354 0.999574 -0.777002
23.7939 20.1103 13.5771 -1.31328 -0.783659 -0.685808
25.9 18.2115 14.094 -1.27504 0.428875 -0.164349
23.0972 17.3449 13.9967 -1.78947 0.371258 0.472035
24.9322 16.6171 11.8963 0.064795 -1.80093 -0.938615
28.0857 18.9942 15.8023 -1.6521 0.647791 2.919
27.8146 20.1651 13.1851 0.308616 0.564361 1.01385
28.0061 16.3127 14.6109 -0.236481 -0.647942 0.498922
27.735 17.4836 11.9937 0.0959308 -0.398663 -0.486151
29.9207 18.2663 13.702 -0.0645901 -0.767177 0.363608
12.2623 23.2207 14.5788 0.15244 0.287746 -1.64787
11.9912 24.3917 11.9616 -0.961617 0.446149 -0.62444
9.64179 23.7723 13.5125 1.48076 0.763808 -0.0867624
11.5656 20.4554 14.9983 1.28924 -0.0390952 -0.491711
11.2945 21.6263 12.3811 -0.326244 0.45881 0.950513
8.94509 21.0069 13.932 1.23585 0.648034 -0.34471
17.2322 23.2885 14.0943 0.0525698 -0.415447 0.450714
14.8828 22.6691 15.6451 0.314565 -0.495518 -0.22605
14.6117 23.8401 13.0279 0.326576 0.967153 1.23697
16.5355 20.5232 14.5138 -0.691108 -0.179931 0.786731
16.2644 21.6941 11.8966 -0.0719177 -1.27283 1.30651
13.915 21.0747 13.4475 -0.347818 -0.0915758 -1.92383
19.8527 22.7369 15.1606 1.48237 0.564911 0.484493
19.5816 23.9079 12.5434 -1.23721 1.25836 0.898032
21.7673 24.6905 14.2517 2.50098 -1.05824 -0.544137
21.9589 20.8381 15.6775 -1.95829 -0.266191 -1.96368
21.6877 22.0091 13.0603 -0.466526 0.473218 -1.94201
18.8849 21.1425 12.9629 -1.57691 0.142196 -1.0416
23.8735 22.7917 14.7686 -0.282264 2.04693 0.145942
23.6023 23.9627 12.1514 -0.0529925 -0.872304 0.185878
25.9796 20.8929 15.2855 -0.581506 -2.06383 -1.57192
25.7085 22.0639 12.6683 -1.23804 1.05185 -1.17823
27.8942 22.8466 14.3766 -0.806199 -0.348929 0.86157
27.623 24.0175 11.7594 1.22843 -0.942472 -1.29321
30.0003 20.9478 14.8935 -1.11097 -0.106309 -1.58753
29.7292 22.1187 12.2762 -1.09168 1.35239 -0.465647
11.4232 25.9651 14.309 0.958478 0.301616 -0.207804
13.2047 28.1579 15.1055 -0.501842 -1.07885 -0.915018
9.07386 25.3457 15.8599 1.57619 -0.052901 -1.70047
16.3931 26.0329 13.8244 -1.46675 0.998395 1.38147
14.0438 25.4135 15.3753 -1.36971 0.0040912 -3.24743
13.7726 26.5844 12.7581 1.42131 0.149785 1.73148
15.5541 28.7772 13.5546 -0.280489 -2.49105 1.1853
19.0137 25.4813 14.8908 -2.09862 -0.316555 -0.369949
18.7425 26.6522 12.2736 -1.73227 0.448567 -0.264538
18.1746 28.2256 14.621 -1.09852 -0.191572 2.0795
20.9282 27.4349 13.9819 -0.852979 0.227702 0.48821
23.953 25.4732 15.9601 -0.898337 0.049343 1.35068
23.6819 26.6442 13.3429 -0.152115 -1.14629 0.834402
23.114 28.2176 15.6902 0.301345 0.514427 -0.0304466
25.8676 27.4269 15.0512 -0.572765 1.33018 0.524824
25.5965 28.5978 12.434 0.311492 1.61654 -0.478521
25.788 24.7454 13.8597 -0.215368 0.537098 0.377821
27.9738 25.5281 15.5681 -0.466167 0.914088 0.837864
27.7026 26.699 12.9508 -0.584791 0.714117 0.676554
29.8884 27.4817 14.6592 0.389408 0.553482 0.925137
29.8088 24.8002 13.4677 0.102877 -1.09161 1.55374
17.3355 30.97 14.3511 0.458829 -0.475866 -1.2312
14.9861 30.3507 15.902 -1.06726 1.05639 1.81633
17.9034 29.3966 12.0038 -0.0956551 1.46456 1.04627
20.0892 30.1793 13.7121 0.277096 0.268226 0.664463
22.2749 30.962 15.4204 -0.224849 2.59867 -0.32039
22.8428 29.3886 13.073 1.12443 -1.17873 -0.12149
25.0286 30.1712 14.7814 0.322494 0.588724 -0.157491
27.7822 29.3805 14.1423 1.95567 -1.23278 0.566732
17.337 10.5047 19.456 -0.597522 0.117633 1.62694
17.0659 11.6756 16.8388 1.00707 -0.771 -0.00359999
14.7165 11.0562 18.3897 -1.1485 -0.604225 0.0711616
20.1399 11.3712 19.5533 1.82129 -0.415533 -0.896525
22.246 9.4724 20.0702 -1.25536 -0.257848 -0.115418
21.9749 10.6434 17.453 -0.722682 2.35039 -1.02997
19.4432 8.60588 19.9729 -2.74238 -0.472019 1.28127
19.172 9.77683 17.3557 -1.13864 -0.270597 -0.251566
25.0489 10.3389 20.1675 -1.96721 -2.33671 1.71584
24.7777 11.5099 17.5503 -0.229588 -0.482311 1.89017
27.8517 11.2054 20.2648 0.0487632 -0.000958747 0.394067
13.0638 13.2022 19.521 0.0868993 0.485374 -0.552828
12.7927 14.3732 16.9038 0.757112 -0.582665 -0.746066
17.7626 14.4409 16.4192 -1.27386 0.701494 -1.30953
16.3811 15.4159 20.1678 1.83867 -0.0868238 -0.531506
15.4132 13.8216 17.9701 -0.669352 -2.05004 -0.878865
13.7605 15.9675 19.1014 -0.0485061 -0.983738 0.676924
18.7304 16.0353 18.6169 1.29516 2.03459 -0.468731
20.8366 14.1365 19.1338 1.14129 0.556286 2.30856
20.5654 15.3075 16.5166 -0.966558 0.498997 0.434077
18.0337 13.27 19.0364 -1.79605 -0.458054 0.138224
19.8687 12.5422 16.9361 0.886294 0.467891 -1.05813
26.4423 15.8696 19.3284 0.457485 0.579187 -1.18408
23.6394 15.003 19.2311 2.16468 1.25788 0.200062
25.7456 13.1042 19.7479 0.499472 1.6214 -0.126416
25.4744 14.2752 17.1307 0.321356 -0.816645 -0.0278084
22.9427 12.2377 19.6506 1.08359 0.485514 0.39225
22.6716 13.4087 17.0334 -0.469968 2.83929 0.696564
28.5484 13.9708 19.8453 0.372475 -0.833507 -0.446986
28.2773 15.1417 17.2281 -0.244832 0.35063 -2.10329
30.463 15.9244 18.9364 -0.956116 0.750281 -1.07799
27.5806 12.3764 17.6476 -1.88741 -0.732981 0.604826
12.1079 18.1135 20.2328 -0.0257788 1.30183 2.01476
11.8367 19.2844 17.6156 -1.00236 1.9851 0.429721
11.14 16.5191 18.0351 -0.493203 -0.025355 0.467019
9.48736 18.665 19.1664 -0.0154814 -0.681324 -0.116041
9.21622 19.836 16.5492 0.365642 -0.987494 -2.85118
17.0778 18.1813 19.7482 0.712227 2.13951 -0.58913
16.8066 19.3522 17.131 -0.905608 0.672245 -1.36668
16.1099 16.5869 17.5506 -0.13107 0.823632 1.11408
14.4573 18.7328 18.6819 -0.134424 2.12444 1.16428
14.1861 19.9038 16.0647 1.03579 -1.84529 -1.37846
13.4894 17.1385 16.4842 2.54812 -1.52444 -1.91214
22.23 19.6672 18.2947 0.0939844 -0.215569 -0.365684
19.4271 18.8006 18.1973 0.456903 0.633545 1.53435
21.5333 16.9018 18.7142 -0.0577892 -1.20442 -0.738552
21.2622 18.0728 16.097 0.61361 0.660699 -1.53974
24.3361 17.7684 18.8115 1.50353 2.15618 0.637361
24.065 18.9393 16.1943 -0.088088 -0.963884 -1.98506
26.2507 19.722 17.9027 0.423577 0.069133 0.101904
26.1711 17.0405 16.7112 2.74132 -0.854807 1.37904
23.3683 16.174 16.6139 -1.37189 1.77701 -0.142554
28.3569 17.8232 18.4195 1.41429 -0.955334 -2.52405
30.5426 18.6059 20.1279 0.140667 -1.3018 0.208383
30.2715 19.7768 17.5107 0.457405 1.45376 0.0771738
30.1919 17.0954 16.3192 0.728402 -0.658484 -0.915074
12.8046 20.8788 19.8132 0.549699 0.319478 0.169748
12.5334 22.0498 17.196 -2.48529 0.654163 0.71136
10.1841 21.4304 18.7469 -1.15692 -1.73367 -1.35432
9.91293 22.6014 16.1297 0.988667 0.116192 1.82187
11.9655 23.6232 19.5434 0.113319 -2.5287 1.21408
9.345 24.1748 18.4771 -2.66707 -0.0998723 -1.84727
17.7745 20.9466 19.3287 1.05923 -0.0924194 0.771262
17.5033 22.1175 16.7115 0.943258 -0.645372 1.08358
15.154 21.4982 18.2623 -0.824757 -0.0737245 1.70809
16.9354 23.691 19.0589 -0.213143 -0.354685 -0.00569374
14.3149 24.2425 17.9925 1.23666 2.49336 -0.693281
20.1239 21.566 17.7778 1.1014 1.09578 0.336542
19.5559 23.1394 20.1252 -0.430339 -1.16055 -0.0597746
19.2848 24.3103 17.508 -2.73491 -1.73403 -0.326278
22.3096 22.3486 19.4861 0.768122 -0.887484 1.73
22.0384 23.5196 16.8689 1.74043 -0.621099 0.0186555
24.2242 24.3023 18.5773 1.40661 -1.20191 -2.13071
24.4157 20.4498 20.003 -1.09308 -0.554901 0.375025
24.1446 21.6208 17.3858 -0.37607 -0.145402 2.90129
26.3303 22.4035 19.0941 -1.29767 -1.3096 -0.481186
26.0592 23.5744 16.4769 -1.65339 -1.1115 0.762512
28.2449 24.3571 18.1853 1.06261 0.899665 -0.816264
28.4365 20.5047 19.611 -1.53552 0.427117 2.01116
28.1653 21.6756 16.9938 1.25235 -0.493647 1.34304
30.3511 22.4583 18.7021 -1.09731 -1.06865 0.484673
30.0799 23.6293 16.0849 -0.391416 -0.15579 -0.891609
11.6944 24.7941 16.9262 0.968304 -0.712019 -1.06554
11.1264 26.3675 19.2736 0.770262 -1.04393 1.19852
10.8553 27.5385 16.6564 -0.987714 0.815235 -0.10765
12.9079 28.5603 20.0701 -1.58282 1.48647 1.58319
16.6643 24.8619 16.4417 0.698267 -0.809162 0.954625
16.0963 26.4353 18.789 -0.380914 -2.39231 -2.52617
15.8252 27.6063 16.1718 -0.440132 -0.760984 -0.542775
13.747 25.816 20.3399 0.756563 1.17397 -0.0452405
13.4758 26.9869 17.7227 -1.55212 0.52978 0.473996
18.7169 25.8837 19.8554 0.117839 -0.335976 -0.519001
18.4457 27.0547 17.2382 -0.25945 -0.994667 0.78002
21.4705 25.093 19.2163 -0.901935 -0.4312 1.95244
21.1994 26.264 16.5991 -0.623439 0.0535726 0.454326
17.8778 28.6281 19.5855 -0.788922 -1.76062 0.172286
20.6314 27.8374 18.9465 1.19904 0.861401 -0.356476
20.3603 29.0083 16.3293 -2.06278 0.91734 0.510538
23.3851 27.0467 18.3074 -0.302491 0.265734 -0.530388
26.4099 25.085 20.2856 0.766236 -0.571321 1.01262
26.1388 26.2559 17.6684 -2.3093 1.3046 0.602962
25.5708 27.8293 20.0158 -0.310014 0.443634 -0.53998
25.2997 29.0003 17.3986 -0.108574 3.51311 -0.570678
28.3245 27.0386 19.3767 0.308844 2.29619 -1.89056
28.0534 28.2096 16.7595 1.25277 0.0486116 -1.80982
30.4306 25.1398 19.8936 -0.126781 1.23556 -0.17008
30.1595 26.3108 17.2764 -2.19184 -0.424749 1.22287
12.6368 29.7313 17.4529 -0.0727943 -1.04792 0.526149
17.6067 29.7991 16.9683 0.436471 0.132314 -0.0790092
15.2573 29.1797 18.5192 0.809845 -0.68457 -1.05319
17.0387 31.3725 19.3157 1.2877 -0.611195 -0.198382
16.7676 32.5434 16.6985 0.663852 -1.5255 0.511954
14.4182 31.9241 18.2494 -1.10335 -0.387685 -1.34718
19.7924 30.5818 18.6767 1.75416 -0.649173 2.2761
19.5212 31.7527 16.0595 0.337411 0.166916 -1.12463
18.9533 33.3261 18.4069 -0.612221 1.28185 1.52381
21.9781 31.3644 20.385 -0.595912 0.377507 -2.1718
21.707 32.5354 17.7678 0.608007 -0.263019 0.673087
22.546 29.791 18.0376 -0.979193 -1.28751 0.122482
24.7318 30.5737 19.746 -0.499401 -3.02632 -0.413454
24.4606 31.7447 17.1288 0.361422 1.44065 0.472044
27.4854 29.783 19.1069 1.55468 -0.267266 -0.335925
27.2143 30.9539 16.4897 -0.249619 0.283735 -0.612266
17.6082 9.33372 22.0732 -0.611434 -0.574309 1.85956
15.9555 11.4797 23.2045 0.344783 1.10148 -0.764715
15.2588 8.71434 23.6241 -0.264017 -1.77503 -0.892271
14.9876 9.8853 21.0069 -1.06713 1.45634 0.85029
13.6061 10.8603 24.7554 0.691358 -0.125677 -1.32506
18.576 10.9281 24.2709 1.55498 0.421941 2.03341
20.411 10.2002 22.1705 0.122448 0.134028 0.536437
17.8793 8.16277 24.6904 -0.552001 1.0372 -1.5149
19.7143 7.43493 22.5901 0.533856 0.897187 0.246428
23.2139 11.0668 22.2678 0.663197 -1.80344 0.23361
25.32 9.16797 22.7847 -0.701422 0.331226 0.730253
22.5172 8.30145 22.6874 -1.06759 0.458343 0.313649
28.1228 10.0345 22.882 -0.628892 -1.99899 -0.68602
13.335 12.0312 22.1382 -0.678578 0.450419 -0.647246
11.6823 14.1772 23.2695 -0.219778 -0.975936 0.20859
11.4112 15.3481 20.6523 -1.58109 0.97349 -0.228156
16.6522 14.245 22.785 1.43175 -1.64706 1.39284
15.6844 12.6506 20.5873 -0.672043 0.188832 -1.74223
14.3028 13.6256 24.3358 0.885249 -1.12934 -0.533119
14.0317 14.7966 21.7186 2.204 -0.822275 -0.825736
22.0756 14.5599 23.9486 -2.17042 1.45159 -0.226742
21.8044 15.7309 21.3314 0.793593 -0.114686 0.193285
19.2727 13.6934 23.8513 -0.571031 0.568855 0.919013
19.0016 14.8644 21.2341 -0.805499 0.465778 0.0374603
21.3789 11.7946 24.3682 2.48646 -0.360777 0.426959
21.1077 12.9656 21.751 0.866163 0.287003 -2.08641
18.3049 12.099 21.6536 1.11675 0.519368 0.813511
24.8784 15.4265 24.0459 -0.388341 -1.52055 0.374093
26.7134 14.6986 21.9456 -0.656928 0.469651 1.68249
24.1817 12.6611 24.4655 0.357097 0.463915 -2.51963
23.9106 13.8321 21.8483 0.0836246 0.20669 1.07705
26.0167 11.9333 22.3651 0.695311 0.474264 0.180357
26.9846 13.5277 24.5628 -0.588344 2.56 0.663387
28.8991 15.4813 23.6539 -0.407329 -1.21261 -0.444468
28.8196 12.7998 22.4625 -0.535021 -1.41047 0.015625
31.0053 13.5825 24.1708 0.753043 0.665289 1.44025
30.7341 14.7535 21.5536 2.16295 -0.278057 0.0275437
13.0757 19.7079 22.4304 0.61858 2.09566 -1.90974
10.7263 19.0885 23.9813 -0.36726 2.50946 0.852584
10.4552 20.2594 21.3641 0.824059 -1.1276 -0.946383
12.379 16.9425 22.85 0.481227 -0.101883 1.5485
10.0296 16.3231 24.4008 -1.9806 -1.49642 -1.33848
9.7585 17.4941 21.7836 -0.5395 -1.39146 -0.73989
15.6962 19.1563 23.4968 0.19016 -1.22329 0.695831
15.4251 20.3272 20.8795 0.0438966 -0.0936442 -0.416045
17.3489 17.0103 22.3654 0.737765 -1.13704 0.33626
14.9995 16.3909 23.9163 0.157262 1.35698 0.800144
14.7284 17.5619 21.2991 -1.1134 -0.97972 -0.516652
20.6661 19.224 23.0122 -1.69661 1.39061 0.40916
18.3168 18.6047 24.5631 0.381375 0.084378 -0.385454
18.0456 19.7756 21.9459 -1.04682 1.07425 -0.978068
19.9694 16.4587 23.4318 -1.2483 -0.532518 -1.22591
19.6983 17.6297 20.8145 0.55068 0.239015 1.76171
22.8519 20.0067 24.7205 1.08842 -0.50368 -1.11528
22.7723 17.3253 23.5291 -0.77514 -0.0318304 -1.79652
22.5011 18.4962 20.9119 1.54082 0.106812 -0.876305
24.6869 19.2789 22.6202 0.490552 -0.661094 0.813866
24.6073 16.5974 21.4287 -0.0827917 -1.64466 -0.23964
26.5219 18.551 20.5199 -2.31322 -2.06563 1.22415
26.8726 20.0616 24.3285 0.65719 -0.157567 0.990425
26.793 17.3801 23.1371 -1.03114 -0.634667 -0.286438
28.7076 19.3337 22.2282 1.06133 1.18938 -0.122023
28.628 16.6522 21.0367 -0.0171208 0.795665 -0.00711509
30.8933 20.1164 23.9365 -1.10086 3.0972 -2.44529
30.8137 17.4349 22.7451 -0.498541 -2.09114 -2.28161
12.2366 22.4522 22.1606 1.83807 0.134327 0.0298453
9.88727 21.8329 23.7115 -1.02221 -0.885615 0.325596
9.61613 23.0038 21.0943 -0.672082 -3.41164 -2.89369
11.6687 24.0256 24.508 0.793619 1.30959 -1.00659
17.4777 21.3491 24.2933 -0.347075 -0.45311 -1.52942
17.2065 22.52 21.6761 0.850339 1.5433 -0.0954832
14.8572 21.9006 23.2269 -0.25685 -0.504722 0.295787
14.586 23.0716 20.6097 -1.57934 0.173649 -1.05519
16.6386 24.0934 24.0234 3.03776 -0.641319 0.308613
14.0181 24.645 22.9571 -1.15984 1.08964 1.60006
20.395 20.395 20.395 0.456021 0.553656 -1.04835
19.8271 21.9684 22.7424 0.0511763 0.367622 1.2044
22.0128 22.7511 24.4507 0.369048 0.746789 0.434563
21.7417 23.9221 21.8335 1.51894 1.02008 0.427175
22.5807 21.1777 22.1033 0.814595 2.03196 -0.29477
24.7665 21.9604 23.8117 1.10449 -0.0912987 -0.03919
24.4953 23.1313 21.1945 -0.406602 0.200556 -0.0522711
26.681 23.914 22.9028 0.139622 -0.900057 -0.289716
26.6015 21.2325 21.7113 0.0985894 -0.962134 0.706809
28.8668 24.6967 24.6111 -0.331557 -0.220386 -0.89075
28.7872 22.0152 23.4197 -0.327783 -0.241367 -0.200672
28.516 23.1862 20.8025 0.480666 -1.57621 -1.20696
30.7018 23.9689 22.5108 -1.77316 0.62141 -0.102155
30.6222 21.2874 21.3193 -0.182496 0.174906 -2.08841
11.3976 25.1966 21.8908 1.57363 0.639916 -0.464171
13.179 27.3894 22.6873 1.39615 0.181833 -0.947805
16.3675 25.2644 21.4062 0.472526 0.988384 0.159907
15.7995 26.8378 23.7536 -0.534204 0.737187 0.427671
15.5284 28.0087 21.1364 0.6844 0.0487134 0.853183
18.988 24.7128 22.4726 0.697317 -0.588112 2.30794
18.1489 27.4572 22.2028 0.892882 1.94772 0.586923
21.1737 25.4955 24.1809 1.42047 0.143315 -1.21628
20.9026 26.6664 21.5637 -1.44772 0.280428 -1.21313
20.3347 28.2398 23.9111 0.260091 -0.217418 1.47515
23.9274 24.7047 23.5419 -0.180546 -1.27134 -2.07464
23.6562 25.8757 20.9246 -0.661397 2.25135 -0.523955
23.0883 27.4491 23.272 -2.16811 0.230517 -0.599873
22.8172 28.6201 20.6548 0.000100686 0.753172 -1.5484
25.842 26.6584 22.633 1.70468 -0.176253 -0.659892
28.5956 25.8677 21.9939 0.987335 0.424338 -1.08833
28.0277 27.4411 24.3413 -0.707695 -0.830268 0.432602
27.7566 28.612 21.7241 1.98377 -1.47987 -1.49905
17.581 29.0306 24.5501 -3.24499 -1.00301 0.351776
17.3099 30.2015 21.9329 1.65838 1.72319 -1.63934
14.9605 29.5822 23.4838 -0.748652 0.429961 1.90612
14.6893 30.7531 20.8666 0.90966 0.0785557 0.34832
20.0635 29.4108 21.2939 1.52319 0.0332877 3.50201
19.4956 30.9842 23.6413 -0.170495 0.128356 -1.99054
19.2244 32.1552 21.0241 -1.61071 -0.618149 1.0646
22.2492 30.1935 23.0022 -0.365786 -1.94519 -0.0156377
25.0029 29.4028 22.3632 1.10098 0.747046 -1.48723
16.2266 10.3087 25.8217 -0.467806 0.253356 -0.196379
19.815 11.3515 29.0857 -1.61303 -1.25778 0.185174
21.65 10.6237 26.9854 1.19421 -0.132974 -0.228955
18.8472 9.75714 26.8881 4.31861 -0.92943 0.460649
20.6821 9.02929 24.7877 -0.962632 0.620674 1.21102
24.4528 11.4902 27.0827 -0.0385285 0.91369 0.747096
26.2878 10.7623 24.9824 0.40778 1.11461 -0.903766
23.485 9.89582 24.885 2.0013 1.07448 1.4093
29.0907 11.6289 25.0797 0.780415 -0.946582 2.8268
12.9213 14.6006 28.0844 -0.629348 1.6689 -0.82061
12.6502 15.7716 25.4672 -0.188455 0.281432 -1.19682
11.9534 13.0062 25.8867 -0.748828 -0.332064 1.44428
10.3008 15.1522 27.018 -0.871155 -0.713532 0.434957
17.6201 15.8394 24.9826 0.704692 -0.187947 0.32486
17.1945 11.9031 28.0194 1.59786 1.67123 0.0674883
16.9233 13.074 25.4022 -1.65193 0.425156 -1.19966
15.2707 15.22 26.5335 -0.01645 -0.428308 -0.930433
14.574 12.4547 26.953 -1.4459 1.01868 0.735681
20.5117 14.1168 28.6662 0.10471 0.823755 -1.08373
20.2406 15.2878 26.049 -1.2835 0.590212 0.514678
19.5439 12.5225 26.4685 -0.0251239 -1.70756 -0.603755
17.8912 14.6684 27.5998 -0.0273428 1.77646 2.00293
23.3145 14.9833 28.7635 -0.406334 -0.795934 -0.238929
25.1495 14.2555 26.6631 -1.09771 -0.321791 0.86636
22.3467 13.389 26.5658 -1.25606 -0.0796806 0.612768
27.3353 15.0382 28.3715 1.41127 2.08277 1.17982
27.2557 12.3567 27.18 1.01355 1.51344 1.00953
29.1703 14.3103 26.2711 0.667669 0.270325 -0.0615614
13.3469 18.5369 25.0476 1.03157 -0.336345 0.694196
10.9975 17.9175 26.5985 0.764027 0.421611 -1.90339
12.7789 20.1103 27.395 0.409616 0.0262864 0.225305
10.4295 19.491 28.9459 -2.47577 -2.84697 0.18064
16.2385 16.8144 28.7312 -1.05881 0.04571 0.947858
15.9674 17.9853 26.114 1.7036 -0.405851 -0.40444
17.7488 20.1781 26.9105 1.20064 0.61223 1.21223
13.618 17.3659 27.6648 -2.91519 0.744343 -1.72758
15.3994 19.5587 28.4613 1.20956 -0.955306 -0.791074
21.2084 16.8821 28.2466 1.75971 -0.690142 -0.330039
20.9373 18.0531 25.6294 -0.233294 1.69061 -1.54176
18.5879 17.4337 27.1803 0.0204474 -0.116849 1.14306
20.3693 19.6265 27.9768 0.946356 0.584525 1.11721
23.123 18.8358 27.3377 -0.230689 0.259406 1.64373
23.0434 16.1543 26.1463 -0.0901809 0.913707 -0.853402
25.3087 19.6185 29.0461 -0.00261858 -0.753453 1.40046
25.2291 16.937 27.8546 -0.180526 2.29808 0.21823
24.958 18.1079 25.2374 -1.11482 -1.21671 1.08398
27.1437 18.8906 26.9457 1.35848 -0.296991 0.431961
27.0641 16.2091 25.7543 1.58429 -0.931748 0.759588
29.3295 19.6733 28.6541 -0.962645 -0.142794 1.22149
29.2499 16.9918 27.4626 -0.0556078 -0.474353 0.468112
28.9787 18.1628 24.8454 -0.0879529 -1.48234 -0.963555
31.1645 18.9455 26.5537 0.407863 -1.34049 -1.12433
31.0849 16.264 25.3623 -1.24955 0.194882 1.44402
12.5078 21.2813 24.7778 -0.476052 -2.16273 -0.937588
10.1584 20.6619 26.3287 0.510092 -0.724429 0.0111788
11.9399 22.8547 27.1252 -0.429097 0.714568 0.666746
15.1283 20.7297 25.8441 -0.468585 1.76318 -0.12592
16.9098 22.9225 26.6406 -0.516801 0.732108 -1.51576
14.5604 22.3031 28.1915 -0.479355 -2.19793 0.941085
14.2892 23.4741 25.5743 0.396744 1.29159 -3.2233
16.3418 24.4959 28.988 0.120453 2.22329 -0.924992
20.0982 20.7975 25.3596 -1.47613 -0.586857 -2.15853
19.5303 22.3709 27.707 -0.408349 0.0271108 0.841928
19.2591 23.5418 25.0898 -1.16065 -0.370914 -1.47761
22.2839 21.5802 27.0679 3.49489 -0.652552 0.421202
21.4449 24.3245 26.7981 0.119129 0.402674 -0.707284
25.0376 20.7894 26.4289 0.687496 0.710201 1.15781
24.4697 22.3628 28.7763 -1.01128 0.941185 1.74581
24.1985 23.5338 26.1591 -0.609672 0.557647 2.02073
26.3842 24.3165 27.8674 0.00903713 -2.16913 -0.365134
27.2233 21.5721 28.1372 -0.703729 -0.255718 0.669302
26.9522 22.7431 25.52 -1.11032 0.710365 -0.894533
29.1379 23.5257 27.2283 1.24072 0.302258 -0.865773
29.0583 20.8443 26.0369 -1.30548 0.2117 0.384979
31.244 21.6269 27.7452 0.86819 -0.333451 -0.0270465
30.9729 22.7979 25.128 1.26915 -0.65163 -0.525956
16.0707 25.6668 26.3708 1.17471 0.770635 0.196516
17.8521 27.8596 27.1673 2.39887 1.73861 1.2053
13.7213 25.0475 27.9217 0.296158 0.726989 -0.551274
13.4502 26.2184 25.3045 -0.600949 0.689507 -0.365935
15.5028 27.2403 28.7182 -0.86794 -0.757369 0.191947
15.2316 28.4112 26.101 0.953571 -2.85537 0.489987
18.6912 25.1153 27.4372 0.480383 0.304613 -0.798973
18.4201 26.2862 24.82 0.395859 0.862226 0.628667
20.6058 27.0689 26.5283 -0.470882 -0.976768 -0.11832
20.0379 28.6423 28.8757 0.0482847 0.955145 -1.6563
23.6306 25.1072 28.5064 -0.797846 -0.568077 2.21436
23.3594 26.2782 25.8892 -0.356772 0.638403 0.0665605
26.1131 25.4874 25.2502 0.81227 -1.54607 -0.849874
22.7915 27.8516 28.2366 -0.204473 0.907261 -0.77255
25.5452 27.0608 27.5976 2.21744 -2.35797 -1.41484
25.274 28.2318 24.9804 -1.23232 0.209691 1.19803
28.2988 26.2701 26.9585 -0.672713 -0.8492 -0.0458808
19.7667 29.8133 26.2585 0.959897 -2.42304 -3.08742
22.5204 29.0225 25.6194 -0.257675 0.116139 1.95983
16.5096 15.6434 31.3484 0.11988 1.30114 0.491021
15.5418 14.049 29.1507 -0.161493 -0.303239 -0.679896
21.7507 14.5402 33.481 0.952941 0.503652 0.984407
21.4795 15.7112 30.8638 0.795928 0.261329 -0.0462406
19.1302 15.0918 32.4147 0.697679 -0.160415 -0.141531
20.7828 12.9459 31.2834 -1.42623 -0.494796 -1.93489
18.1623 13.4974 30.217 0.975152 0.454036 -1.07354
23.5857 13.8124 31.3807 -0.622905 0.330628 2.07184
25.5003 15.766 30.4718 0.959292 0.40413 0.916483
25.4207 13.0845 29.2803 -0.881642 -0.600196 0.297696
22.6178 12.218 29.183 0.706586 0.5241 0.912071
11.2686 16.7466 29.2157 -1.38955 2.6714 0.807172
13.0501 18.9394 30.0122 0.565512 -2.13174 1.39418
13.8891 16.195 30.282 1.61616 -0.87636 0.627641
15.6706 18.3878 31.0785 0.443842 -1.0137 1.05898
18.859 16.2628 29.7975 0.66913 0.0695233 0.56371
20.9116 17.2846 33.2112 -0.899748 2.14177 -2.40363
20.6405 18.4556 30.594 -0.704241 0.0639068 -0.193493
18.2911 17.8362 32.1449 0.889629 -0.0725167 0.167726
18.02 19.0071 29.5277 0.18914 1.30219 0.679346
20.0725 20.029 32.9414 0.550458 0.267621 -1.30518
23.6653 16.4939 32.5721 1.02342 -0.376566 0.338896
23.3941 17.6648 29.9549 -1.27854 0.391518 0.512897
22.8262 19.2382 32.3023 0.563364 -0.456438 1.74951
25.5799 18.4475 31.6633 0.913293 0.99523 -0.108913
27.4149 17.7197 29.5629 -0.815472 -2.23325 -0.25491
12.211 21.6837 29.7424 -1.25652 -0.585634 0.555164
17.452 20.5806 31.8751 0.113239 0.588387 -0.979577
17.1809 21.7515 29.2579 -0.467612 -2.23545 -0.905752
14.8315 21.1322 30.8087 -1.52697 -0.422286 0.776398
16.613 23.3249 31.6052 0.466217 -0.390461 1.31043
13.9924 23.8765 30.5389 -1.55526 -2.2486 -1.48238
19.8014 21.1999 30.3242 -0.392311 -0.612284 -1.43632
19.2335 22.7734 32.6716 -0.234776 -0.462242 1.15785
18.9623 23.9443 30.0544 -0.103623 -0.838323 1.4268
21.9871 21.9826 32.0325 1.76695 1.10877 1.65297
21.716 23.1536 29.4153 1.42258 -0.500646 -2.03857
22.5551 20.4092 29.6851 0.841752 0.144944 0.957487
24.7408 21.1919 31.3935 0.603448 -0.833974 -0.643017
23.9017 23.9363 31.1236 -1.74115 0.273036 -1.52733
26.6554 23.1455 30.4846 -1.07243 -1.95032 -0.307922
27.4945 20.4011 30.7544 -0.4858 -0.591449 1.83902
29.409 22.3548 29.8455 0.823156 0.861567 -0.230409
15.7739 26.0693 31.3354 -3.27224 -1.17507 0.149184
18.3944 25.5177 32.4017 0.320901 -0.0197455 1.24112
18.1233 26.6887 29.7845 -0.751194 -0.179037 1.47402
21.1481 24.727 31.7627 -1.04062 -1.08352 -0.782603
20.8769 25.8979 29.1455 0.803671 1.28664 1.26711
20.309 27.4714 31.4929 0.419973 -0.192654 1.45797
23.0627 26.6806 30.8538 -0.487768 -0.392939 0.455535
25.8163 25.8899 30.2148 2.42612 0.293943 -0.105748
28.57 25.0992 29.5757 1.82205 1.82993 -0.682772
ITEM: TIMESTEP
1000
ITEM: NUMBER OF ATOMS
531
ITEM: BOX BOUNDS ss ss ss
8.9410080018019880e+00 3.1248127905517034e+01
7.4308483639612666e+00 3.3330201798351226e+01
7.3049036297228378e+00 3.3485096679041455e+01
ITEM: ATOMS x y z vx vy vz
16.4862 13.8732 11.7553 0.965614 -0.0946213 -1.71554
16.5207 15.2651 9.17502 -1.16205 1.01105 0.00821684
14.1879 14.9487 10.4502 0.484535 -0.313952 -0.796476
19.1021 16.2039 9.02587 1.81254 1.01566 -0.362863
21.0709 14.3565 9.86668 -0.115517 -0.201831 0.798837
18.579 13.3946 9.76055 1.17375 -0.0208827 0.56275
26.3678 16.0499 9.81496 -1.29096 0.954626 -0.85252
23.8546 15.2229 9.65305 -0.361321 -1.82424 -0.295076
13.0028 19.5944 10.9947 -0.744575 -0.95299 -0.936719
17.0758 16.7934 11.3568 1.43503 -0.116751 2.19654
17.0265 18.0094 9.01595 0.737867 -1.32497 2.6884
15.3276 20.1847 9.55414 0.197923 -0.0285252 0.321222
14.7222 17.5824 10.0875 -0.593868 -0.336788 -0.0095802
17.9197 19.7774 10.8325 -0.624843 -0.117477 2.37089
19.9295 17.8335 11.1518 1.39852 1.37598 -0.187545
19.6155 18.8775 8.50632 0.595445 1.79334 0.977808
21.7789 16.9865 9.08738 1.72995 0.475939 -0.151566
25.486 19.4711 11.4864 0.0315449 0.782561 2.16641
22.7141 18.4208 11.3766 1.66564 0.456914 -0.730974
22.3519 19.7855 8.74308 0.454296 -1.53557 -0.140136
24.4907 18.0742 9.27922 -0.337351 -1.49172 0.0510491
27.2174 18.698 9.68204 0.590945 0.6187 2.52925
29.2667 19.5539 11.2124 -0.0904843 -0.579527 -1.8587
16.9931 24.5963 11.1932 0.0263465 0.197622 -1.53065
17.7172 20.7415 8.21451 1.46096 0.659167 1.08166
15.9131 22.8876 9.14778 0.554022 1.93943 -1.32911
13.6443 22.1588 10.6179 0.356196 -0.619728 0.727381
21.373 23.2181 10.1155 0.201863 0.888559 -0.130629
21.0324 24.2421 7.63152 -0.0774265 -1.43323 1.89745
18.5229 22.5142 10.0178 1.22884 -0.559219 0.460542
18.2526 23.5181 7.54724 0.0335289 -0.278135 1.05567
20.621 20.497 10.5201 -1.15474 -0.330708 0.336434
20.3765 21.5398 7.99035 -1.359 0.73199 1.25932
23.3692 21.3082 10.9747 -0.436682 -1.11644 -0.145348
23.218 22.5882 8.50506 -0.53163 -1.35983 -2.23909
25.3289 23.2774 9.96366 0.506109 0.0901295 1.73512
25.1164 20.7697 9.09015 -0.867858 1.54419 -0.062018
27.4783 21.2475 10.3535 -0.196474 -0.298672 -1.11436
16.7456 25.7005 8.56175 -1.26357 -0.512345 1.18685
14.4097 24.8945 10.4776 2.22994 0.646317 0.170727
16.0993 27.3562 11.0676 1.30654 -2.1151 0.575103
19.4422 25.1268 9.90645 -1.35019 -1.29969 1.66295
19.3248 26.2016 7.43511 0.794987 -1.62506 2.1495
18.4859 27.8135 9.54079 0.776798 -0.529466 0.714566
21.5391 25.9866 11.5357 -0.00425357 -2.14505 1.96145
21.1637 27.1836 9.06954 0.303013 0.0456666 1.21988
20.5123 28.6931 11.268 -0.548854 -0.0777719 1.16241
23.2974 27.8018 10.8005 0.826785 -1.08121 -0.0654725