ITEM: TIMESTEP
0
ITEM: NUMBER OF ATOMS
55
ITEM: BOX BOUNDS ss ss ss
1.5149884135433354e+01 2.4770531933815281e+01
1.4860280426949668e+01 2.5887821016599968e+01
1.5156513925271341e+01 2.5633485944998789e+01
ITEM: ATOMS x y z vx vy vz
19.4272 18.8006 18.1973 1.27826 0.378459 1.47212
19.156 19.9716 15.5801 -1.21244 -1.08051 -2.16429
18.7304 16.0353 18.6169 1.24341 -1.77426 -1.45488
18.4593 17.2063 15.9997 -1.02984 -0.958076 -1.77785
17.0778 18.1813 19.7482 -1.20152 0.458844 0.709809
16.8066 19.3522 17.131 -1.03885 -0.947594 -1.26922
22.23 19.6672 18.2947 2.41291 -0.483134 0.943349
24.3361 17.7684 18.8115 -0.621115 -0.143708 -1.29309
24.065 18.9393 16.1943 2.00391 -0.188345 -0.399458
21.5333 16.9018 18.7142 -1.97043 -0.452221 -1.58963
21.2622 18.0728 16.097 -0.23522 0.151742 -1.6661
19.8527 22.7369 15.1606 -1.47185 1.04068 0.449764
17.7745 20.9466 19.3287 1.61953 0.412585 0.529721
17.5033 22.1175 16.7115 -1.19191 0.966925 0.876332
19.5559 23.1394 20.1252 0.886614 -0.296619 -0.182562
19.2848 24.3103 17.508 0.980459 -0.24269 0.478976
15.154 21.4982 18.2623 -2.86579 -2.19311 -0.554373
16.9354 23.691 19.0589 -1.81425 -1.43379 1.01729
18.7169 25.8837 19.8554 -0.212914 0.158958 1.46063
20.395 20.395 20.395 2.01032 -0.817112 -0.148581
20.1239 21.566 17.7778 -0.016695 1.55887 -1.55663
22.3096 22.3486 19.4861 -1.06465 1.02809 -0.835618
22.0385 23.5196 16.8689 1.33375 -0.425787 0.953138
21.9589 20.8381 15.6775 1.27778 0.203451 -0.718166
21.4705 25.093 19.2163 0.828254 -1.08609 1.8013
24.2242 24.3023 18.5773 0.419112 -2.1268 0.38381
24.4157 20.4498 20.003 -0.486124 0.33898 2.68767
24.1446 21.6208 17.3858 -0.127643 -1.0716 0.0930548
18.3168 18.6047 24.5631 0.262135 0.789069 -0.925457
18.0456 19.7756 21.9459 1.08356 1.18004 0.469844
19.6983 17.6297 20.8145 -0.628424 0.0107065 0.156905
15.6962 19.1563 23.4968 -0.107211 0.464508 1.29789
15.4251 20.3272 20.8795 -0.502398 -1.37966 -0.166796
19.0016 14.8644 21.2341 -1.47737 -0.532635 -0.185439
17.3489 17.0103 22.3654 0.172548 0.9053 -0.916012
20.9373 18.0531 25.6294 0.889987 0.860366 1.47023
20.6661 19.224 23.0122 0.845139 0.404432 0.257667
22.8519 20.0067 24.7205 -0.161739 0.13079 1.6541
22.7723 17.3253 23.5291 0.83321 -0.5326 1.78805
22.5011 18.4962 20.9119 -0.00372732 -0.478686 1.00493
19.9694 16.4587 23.4318 -0.964165 2.44832 -2.12935
24.6869 19.2789 22.6202 1.05534 1.91153 -1.41036
24.6073 16.5974 21.4287 -0.00628749 1.07143 -0.175023
21.8044 15.7309 21.3314 0.120584 -0.203251 0.235443
19.8271 21.9684 22.7424 -1.68347 -0.232899 0.593174
17.4777 21.3491 24.2933 -2.60778 -0.19287 -0.433876
17.2065 22.52 21.6761 -2.0876 0.438853 -0.419926
19.2591 23.5418 25.0898 0.89171 -0.139015 0.251612
18.988 24.7128 22.4726 -1.46886 0.495907 0.339614
20.0982 20.7975 25.3596 -0.348045 0.973155 0.353415
22.5807 21.1777 22.1033 0.352592 0.153721 -0.0959671
22.0128 22.7511 24.4507 0.924721 -0.283095 -1.0708
21.7417 23.9221 21.8335 0.75376 2.26012 -0.284821
24.7665 21.9604 23.8117 1.59147 -0.416708 0.400953
24.4953 23.1313 21.1945 2.53725 -1.08297 -0.306503
ITEM: TIMESTEP
1000
ITEM: NUMBER OF ATOMS
55
ITEM: BOX BOUNDS ss ss ss
1.5149884135433354e+01 2.4770531933815281e+01
1.4860280426949668e+01 2.5887821016599968e+01
1.5156513925271341e+01 2.5633485944998789e+01
ITEM: ATOMS x y z vx vy vz
19.5916 18.7046 18.4152 0.421949 -1.30756 3.41755
19.1504 19.6194 15.6383 -0.112756 -0.484707 -2.98041
18.9895 16.1881 18.5795 0.844235 -0.967706 0.789664
18.6181 17.3939 16.1867 0.517976 0.0579533 2.28025
17.2495 17.872 19.821 -0.222474 -0.593273 -0.213409
17.0962 19.4331 17.4929 -0.964677 0.373937 -3.41866
22.2455 19.8456 18.6151 -0.853295 1.09512 -0.459006
24.2402 18.1264 18.862 0.00860478 0.396005 1.07773
24.0891 19.3009 16.5356 -2.27051 1.87789 2.30334
21.5027 17.0224 18.9722 0.594944 2.35546 0.715928
21.3224 18.2237 16.4955 0.0962721 1.1433 -2.2378
19.8633 22.3841 15.2829 1.54171 -3.19091 6.93025
18.0344 20.9409 19.4302 1.97689 -1.57328 -0.935255
17.4297 22.0289 16.9788 -0.746614 -0.312973 -0.764974
19.4517 23.0419 20.2956 -1.86566 0.924417 -0.207518
19.3976 23.953 17.6353 0.481598 0.296256 -1.13133
15.3328 21.5472 18.2962 0.504336 1.73735 0.488885
17.0409 23.5653 19.1731 -1.5064 0.875883 1.70579
18.5824 25.6008 20.0033 2.31504 -0.387501 0.52166
20.4727 20.5806 20.358 -2.26077 -0.775523 1.21514
20.0164 21.2242 17.5218 1.1775 -1.84036 5.60521
22.1278 22.4499 19.6586 2.22875 -0.293281 -0.770895
22.0763 23.4363 17.0031 -1.07314 2.03537 0.0735838
22.0224 20.798 15.7661 -0.0724732 0.630582 -0.0359029
21.1799 25.0376 19.2636 -0.790217 -0.23263 0.220006
24.09 24.1039 18.7581 -2.11097 -0.912907 0.161494
24.3014 20.5898 20.1739 0.259771 -1.06779 -1.25651
23.8912 21.76 17.6944 0.837557 0.188244 -1.29437
18.4666 18.9491 24.3285 2.10696 0.756522 0.89657
18.4025 19.9722 21.8451 0.408421 -0.634434 0.850473
19.7845 17.8403 20.9435 2.53177 1.86526 0.322551
15.949 19.9563 23.1365 1.3996 -0.152985 -1.71871
15.8177 19.9658 20.4411 0.508398 0.0592852 -0.512491
18.613 15.4446 21.1152 -1.26615 2.11243 0.548694
17.24 17.4719 22.2124 2.18074 -0.856817 -1.2382
21.113 17.9258 25.2096 -0.0195671 2.7666 -5.21075
20.876 19.2161 22.9706 -0.0580993 4.73587 -2.98212
22.8713 19.9782 24.4252 -0.86627 -1.96392 1.04034
22.8022 17.1342 23.5026 -0.103493 -0.902228 0.252287
22.3302 18.5642 20.8488 1.26883 2.35269 -0.214165
19.7062 16.3948 23.2833 -3.11056 -0.828012 1.52608
24.2849 18.9811 22.3844 0.509893 -4.27877 0.328283
24.1667 16.5069 21.3108 -1.88101 0.0549804 -1.44938
21.6436 15.8377 21.3726 0.24314 -2.24622 2.72359
19.947 22.0159 22.5855 1.45812 -1.76037 0.275817
17.5641 21.3119 24.3479 1.03486 -0.397819 1.06748
17.2574 22.2158 21.7388 -0.0216977 2.08265 -1.98297
19.5657 23.4205 24.8281 0.629475 -3.33885 -1.70972
18.9226 24.5572 22.5209 -1.61065 -0.647117 -1.92464
20.1669 20.8023 25.1943 -0.0820652 0.619943 -2.2005
22.4275 21.1163 21.99 1.24429 -0.221888 1.64914
22.0009 22.5644 24.2981 -0.247807 1.384 0.645482
21.4919 23.9795 21.8254 1.79254 -0.967783 0.197819
24.761 21.5248 23.0638 -2.802 -0.488752 -2.32231
24.1468 23.3045 21.0947 -4.20483 0.848366 -0.659104
ITEM: TIMESTEP
2000
ITEM: NUMBER OF ATOMS
55
ITEM: BOX BOUNDS ss ss ss
1.5406627569746712e+01 2.5307023426711773e+01
1.5333111040400563e+01 2.5411357762850230e+01
1.5627912639050754e+01 2.5153475876137886e+01
ITEM: ATOMS x y z vx vy vz
19.8008 18.8206 18.2928 -2.61389 -0.0181022 1.85835
19.4416 19.9896 15.941 1.39215 0.555169 -1.11213
19.7313 15.9246 18.3912 -0.850693 1.02218 1.0902
18.389 17.4314 16.757 -1.6935 0.268696 2.30151
17.4362 17.5506 19.6796 -3.58557 0.914432 0.211519
16.4618 19.3812 17.6763 0.545831 -0.341782 0.197728
22.5154 19.7527 18.835 0.429833 0.304084 0.624726
24.8514 18.5052 19.4576 1.13136 0.242598 0.468411
23.4625 18.2471 16.882 -1.87816 -1.75829 -0.244472
22.516 16.8762 18.6632 1.4576 1.68974 -0.286497
21.0066 17.6116 16.2068 1.25588 -2.8361 0.266478
24.9781 21.3344 20.0583 -0.697552 2.20614 -1.48104
19.7225 22.4633 15.6096 -1.1957 -1.07448 -0.179294
17.8597 20.717 19.4629 0.125902 -0.807653 -0.0409022
17.5935 22.3602 17.2022 -1.42278 -0.185618 0.496676
19.6103 22.9353 20.2423 0.483011 1.62332 4.92504
19.6019 23.9482 17.7661 1.92917 0.555353 -1.56016
15.4902 21.6244 18.8032 1.93142 0.531321 0.441645
16.884 23.7454 19.8919 0.233282 -0.0442061 -1.13639
19.2463 25.4548 20.1318 2.63146 0.611091 -3.38259
20.3101 21.4283 18.0296 0.250288 0.0919815 -5.56021
22.2451 22.586 19.6498 -0.166594 -3.66705 -1.38151
22.1226 23.4084 16.8557 0.45901 1.93705 0.238187
21.9147 20.6623 15.7841 -2.43194 0.145017 -1.06151
21.6955 25.1537 19.3437 -1.38539 -0.746968 -0.0760924
24.3058 23.8904 18.7336 -2.38043 -2.73351 2.02217
23.918 21.5865 17.4805 0.45316 0.181071 2.19352
18.3419 19.4776 24.7839 3.48799 1.32477 0.129698
17.9451 19.4999 22.1244 -3.43384 -0.886448 -0.988016
20.275 17.6063 20.7249 0.883367 0.00661198 0.287022
15.7027 19.5541 23.1561 -0.690351 -2.35639 -1.14499
15.6498 19.512 20.5781 0.389672 2.7882 -1.95121
18.6752 15.752 20.8069 -0.374365 -0.782289 -0.0761009
16.437 17.3343 22.1354 0.54839 -0.10055 -2.63492
18.9824 16.9959 23.3813 -2.47056 -2.35259 -0.93919
20.3495 20.2366 20.4748 0.615494 3.3883 1.21972
20.5669 18.1106 25.1161 0.603967 1.01274 1.85929
20.6111 19.1069 22.9363 1.77322 -2.11032 1.58927
23.1252 19.8911 24.0111 -1.26023 1.05459 0.997461
21.9042 16.7406 22.9885 2.14968 1.31306 -0.83279
23.0305 18.5814 21.4985 0.55639 -2.11186 3.09138
25.2837 19.5374 21.684 0.255913 2.41148 -0.560473
23.7331 16.1893 20.6986 0.751125 1.44112 -1.33856
21.2895 15.2419 20.5591 1.49232 -1.91493 -3.43671
19.6236 21.7023 22.7419 -0.369736 1.80118 1.35962
17.5338 21.9327 24.0294 -1.46426 0.368707 3.19153
16.3094 22.081 21.5872 0.0153082 0.371679 -1.32951
19.6563 23.8034 24.1089 -1.44234 0.0249432 -1.36363
18.0685 24.0639 22.1091 0.799795 1.28915 -0.240411
20.7308 20.9106 25.2939 0.838817 -2.08664 -0.35392
22.5884 21.4842 21.9453 4.56589 -1.98428 0.736548
22.153 22.9144 24.0474 0.643054 1.3752 3.83403
21.2906 24.3444 22.0709 -0.08271 -2.53693 1.1409
24.7833 21.916 22.9061 -0.428802 -0.952378 0.433991
23.9739 23.8147 21.3992 -2.76035 1.53836 -2.5134
ITEM: TIMESTEP
3000
ITEM: NUMBER OF ATOMS
55
ITEM: BOX BOUNDS ss ss ss
1.5504303244318695e+01 2.4976739023031907e+01
1.4854619316202024e+01 2.5464157336305206e+01
1.5194548254287803e+01 2.5513583000333252e+01
ITEM: ATOMS x y z vx vy vz
19.0442 18.4829 18.4666 -0.189893 0.12601 1.60644
17.9026 20.5632 16.3117 -0.620988 1.38896 1.00465
19.8523 15.9142 18.1484 2.28305 0.597478 -0.216939
18.46 17.2861 16.3114 -0.0830067 -0.644303 -0.46091
17.3281 16.8779 19.6964 -2.1853 -2.2813 1.70304
16.5713 18.5779 17.5729 -0.667827 -0.816368 0.790744
15.8944 19.4084 20.1936 0.195737 0.265803 -1.22495
22.3816 19.3782 18.6847 0.738453 2.08031 -1.00003
24.8127 18.7159 19.0632 2.90601 -1.13285 2.45555
23.7116 18.4129 16.5056 -1.15145 0.481019 1.10751
22.7849 16.6457 18.3828 -4.65566 1.23372 0.0174808
20.9376 18.1923 16.488 0.228281 2.61753 2.75492
19.8936 22.5733 15.4995 -0.594373 -2.3428 0.597231
17.8704 20.825 19.4374 -1.30331 -0.754287 -1.37324
17.5829 22.6499 17.3542 0.207347 -1.53544 0.393648
19.8369 22.958 20.5249 1.2843 -1.34417 3.56544
19.9036 23.8273 17.915 1.32103 0.486599 -0.0556941
15.7398 21.0407 18.0389 -0.751971 -1.7297 -1.80805
17.6758 23.9829 19.5107 3.40435 -1.53156 4.10721
19.78 25.5514 20.5119 0.926372 0.762019 -2.00566
20.1925 21.0868 17.657 -1.1895 1.23754 -0.447322
24.5381 21.2823 20.3071 -1.05117 -2.42953 1.79645
22.164 22.1693 19.2544 0.210417 0.0202472 1.38452
22.0071 23.3257 16.4814 0.0495447 1.27752 2.01496
22.2327 20.521 15.9553 -0.926641 0.726805 -0.793859
21.7772 24.8628 19.3232 -2.80949 1.14996 -3.83028
24.1007 23.5913 18.2438 0.12651 -1.39543 0.349825
24.2394 21.1524 17.4662 0.235344 0.670871 -0.668327
18.2918 19.6211 24.2918 -0.594392 0.781205 -1.9953
18.1591 18.9485 21.4377 1.63591 -0.584895 0.801992
16.1682 20.323 22.9289 -4.01865 -1.64938 0.563458
18.9086 15.7908 21.4735 0.64623 -0.472805 -1.22066
16.4336 17.7557 22.7748 -0.996816 0.201271 -0.847082
19.0929 17.1967 23.8344 0.521691 1.33028 0.675596
20.5446 17.4328 20.2454 -0.0241877 0.597311 0.301988
20.8377 18.3864 25.2518 0.941316 2.25624 -0.470956
20.6543 19.128 22.8551 -0.336534 -1.5674 0.828307
22.8043 19.874 23.8418 -1.5035 -1.0517 2.19699
21.4707 16.4312 22.6512 -0.445125 -2.43582 -3.52473
23.1015 18.7421 21.3171 0.29965 1.34943 0.41224
24.9044 20.25 22.577 -1.12447 0.447494 -1.84157
23.2847 16.3538 20.7378 -0.335857 2.29236 -0.47164
21.1939 14.895 20.0716 3.87243 0.63433 -0.350197
19.7192 21.9437 23.0042 0.341216 0.753752 0.462981
17.5059 22.1921 24.426 2.92859 0.715226 -0.517022
17.1205 22.3423 21.7992 -0.997654 -0.00909505 -1.47345
19.604 23.3692 25.1758 -0.875542 0.381968 -4.16314
18.2136 24.378 22.7914 1.10973 3.27255 1.29899
20.6226 20.1865 20.3024 -0.0377373 -0.38362 -0.985408
20.5106 20.8211 25.2243 0.168468 1.30874 -1.17941
22.3354 21.772 21.9867 3.37806 2.46492 -1.26662
22.1331 22.4925 24.5727 -0.823699 -2.64517 -1.9783
21.2555 24.413 22.6406 1.11022 -0.0615758 1.63488
24.1999 22.8422 23.1799 -0.233218 -1.0352 1.1032
23.4383 23.9876 21.0256 -0.542291 -4.07505 0.240497
ITEM: TIMESTEP
4000
ITEM: NUMBER OF ATOMS
55
ITEM: BOX BOUNDS ss ss ss
1.5649334363104391e+01 2.4810350130022428e+01
1.5128678586804773e+01 2.5603150542911820e+01
1.5437166630246185e+01 2.5923903577094634e+01
ITEM: ATOMS x y z vx vy vz
18.7697 19.3301 18.8118 0.105129 0.0794584 1.94157
19.2757 16.1755 18.1376 -3.51068 -1.31114 -0.756714
17.7726 18.0569 16.803 -0.610064 0.596896 -0.682454
17.1284 16.7545 19.5171 -0.601657 2.40631 1.02684
15.7437 18.3393 18.0554 -0.0548052 1.20651 1.41005
16.4211 19.5531 20.2904 3.43723 1.67075 0.82061
21.7518 19.3112 18.6336 -1.53005 -2.27804 -0.478439
24.1882 18.4767 18.9403 -0.139178 -0.355803 -0.207006
23.1223 18.3775 16.5451 0.574926 0.481123 0.3426
22.0842 16.2974 18.2019 2.98037 -0.843571 1.44965
20.4095 18.0944 16.6202 -0.00258193 -2.03615 -1.05338
20.6394 17.5521 20.329 4.58036 -1.71892 1.78033
21.609 15.0255 20.1915 -0.63998 1.2357 -1.31439
19.8241 20.9009 21.008 1.73216 0.893831 0.4697
18.815 20.6871 15.795 0.0952588 -0.0928442 -1.95386
20.214 22.8142 15.3441 2.67932 0.482281 0.116813
17.6942 21.7527 19.7958 1.70933 1.23631 0.0299616
17.9317 23.0724 16.8013 0.430469 0.442089 0.882497
20.1965 24.3253 17.6493 -0.149364 -2.35591 1.35258
16.8795 20.5708 17.3776 0.165489 -0.0169004 -0.791744
18.3295 24.3837 19.2094 -0.606445 3.26249 0.802617
19.833 21.5427 17.9182 -2.72052 -0.186068 -0.406847
24.6899 21.1998 19.8768 0.891423 -2.20911 -3.86928
22.2842 22.0899 18.8973 -3.79058 0.242617 0.10657
22.5859 22.9357 16.3727 -1.60631 0.0996017 -0.838879
21.8723 20.4511 15.9442 2.39171 -1.12467 1.82889
22.3333 25.0476 19.1088 1.3088 1.29997 0.607564
24.4381 23.2998 18.4498 -2.25491 -1.48234 -0.378406
24.0863 20.6626 17.2589 0.453524 -0.13861 -1.82535
18.5255 19.3986 24.5653 2.89964 -1.01578 0.389061
18.2604 18.3557 21.5021 1.02933 2.09104 0.250378
16.2704 18.2685 22.946 0.865679 -2.57447 1.51516
18.9458 15.4691 21.1014 1.67791 -0.764384 -0.495922
16.7187 16.0158 22.2388 -1.31965 -2.13004 -1.21584
18.9962 16.953 23.6164 1.09024 1.16486 -0.392123
20.9236 18.4715 25.0756 0.395044 -0.778237 -4.18167
20.7803 18.8396 22.6902 0.36165 -0.379365 1.13089
22.5201 20.6907 24.5308 1.01139 1.77558 -1.52651
21.3127 16.1079 22.6241 -0.822075 -2.47733 -1.56844
22.9004 19.4178 21.4065 -1.42059 -0.457952 -1.7428
23.3183 16.8415 20.9122 -2.98762 -0.816203 2.7098
20.3966 23.188 20.2497 0.771977 3.26135 -0.990683
20.0627 25.7731 20.632 -0.890153 -1.91643 -0.981027
19.9807 21.5719 23.4658 -1.24884 0.297808 1.88441
17.8806 22.0407 24.9307 -1.67517 0.830262 -0.476842
17.1961 20.8614 22.5552 -1.10826 1.59723 -1.8608
19.4864 24.3051 24.3597 -1.04161 0.577512 -1.08723
18.3787 23.382 22.0052 -4.90013 -2.16939 1.22772
24.7109 20.9632 22.4353 1.27401 0.881528 3.09376
19.9652 20.9785 26.1346 -0.109438 0.665811 -0.317568
22.3112 21.9936 21.8739 0.528588 2.65286 1.01885
21.7584 23.0173 25.0331 -2.48791 -0.543241 2.69288
21.4666 24.3643 22.5639 -0.739919 1.04742 0.0190718
23.9648 23.3119 23.507 1.39913 -0.218857 -1.92404
23.7706 24.0637 20.8855 2.12839 -0.0874467 2.41741
ITEM: TIMESTEP
5000
ITEM: NUMBER OF ATOMS
55
ITEM: BOX BOUNDS ss ss ss
1.6116009725611523e+01 2.5045550180331620e+01
1.4982504198794235e+01 2.5642865781314018e+01
1.5622604870130081e+01 2.5928957458280973e+01
ITEM: ATOMS x y z vx vy vz
18.8712 19.0128 18.2519 0.647759 -0.580002 1.45089
19.8028 15.8653 18.292 4.49529 1.59268 -1.86999
18.2107 16.757 16.6054 -0.731609 -0.356024 2.98964
17.7279 16.7664 19.5507 2.70195 -1.32261 -1.94123
16.396 18.5505 17.4978 1.6857 1.53285 0.938794
15.9202 19.1049 20.095 1.61013 0.62047 -2.37564
21.8407 19.3816 18.5612 -1.35788 -2.45662 0.678654
24.4199 18.1016 18.4675 0.283915 -0.309396 0.23962
22.9653 18.5143 16.1111 -1.63206 0.354984 -0.244423
22.6376 16.4531 17.9409 -1.53832 -1.87623 1.35855
20.5445 17.7311 16.3418 -0.926308 -0.218288 0.921517
20.7148 17.435 20.0329 -0.0949818 -1.57454 -1.08989
21.7958 14.9961 20.3703 0.0313229 1.62062 2.24782
18.242 19.3266 15.7248 -0.486848 0.193905 -2.2927
17.4224 21.7446 19.958 3.52158 -0.0450011 1.95224
17.8548 23.5118 17.3307 0.624725 -0.229988 -0.624188
17.1076 21.4229 17.3347 -0.297838 -0.652415 -0.0135026
17.8924 24.3704 20.0279 -0.224394 0.56412 0.232925
19.7095 21.8797 18.16 0.347638 0.604345 0.150825
20.3492 25.7726 20.921 1.05959 -4.49123 -0.155387
19.1383 22.2459 15.4466 -2.62604 -0.541467 0.625158
20.1236 24.78 18.1903 -0.567651 0.0920012 0.876482
24.7282 20.9808 19.7329 0.802235 0.0569212 1.8395
22.1756 21.9255 19.3657 -0.41729 1.55306 -1.19642
21.7403 23.1539 16.9593 -1.13359 0.539238 1.7462
21.159 20.5815 16.081 -0.498749 -0.0233081 0.223453
22.3551 24.5626 19.7171 -1.86407 3.01832 -0.660673
24.4065 23.1926 18.3774 0.378403 0.101989 0.277685
23.6297 20.9346 17.1311 -1.69337 -0.827812 -0.345811
20.1312 23.1306 20.6879 0.0037496 -0.838236 0.200416
18.3622 19.3422 24.3666 1.14556 0.977699 -2.53829
18.4362 18.7139 21.3799 0.826137 2.46856 -0.386532
15.5606 19.2312 22.6917 1.22595 1.06196 1.02291
19.3374 15.7794 21.5527 0.95747 1.64885 -3.15816
16.5204 17.0939 21.9451 -1.91068 -1.30984 -2.32624
19.001 17.1948 23.5699 1.46162 0.202533 0.276208
20.7531 18.8332 25.4932 -0.722559 2.64792 1.36722
20.9248 18.9164 22.8283 0.72239 -1.75257 0.532087
21.8386 16.7521 22.3679 0.26702 -0.148815 0.801912
23.0273 19.3855 21.0632 0.411048 1.04125 -0.632399
23.6909 16.6726 20.2365 0.680401 -1.20243 -0.391455
20.1244 20.4609 20.5825 -0.715918 -0.604088 0.897426
19.8881 21.6642 23.2808 -2.04243 0.425528 -1.43898
18.0592 22.8824 24.4962 -1.8575 -0.0117862 2.77396
17.591 20.8903 22.4125 -1.47896 1.38989 -0.0659643
20.0432 24.4474 23.2501 1.56269 1.1141 0.377468
17.3624 23.4906 22.3409 3.46684 -0.542377 0.760153
19.6211 21.2296 25.7951 -0.675147 0.653531 1.45265
22.6059 20.4648 24.7875 -2.33397 0.303577 -1.39948
24.5288 20.7096 22.8585 -3.44559 -1.07513 -2.36774
22.1945 21.8097 22.107 1.44633 -0.924338 -0.0996791
21.5983 23.2176 24.8613 -0.563002 -0.150437 -1.32147
22.3783 24.4526 22.7229 -0.503105 1.31046 -0.30765
23.9816 22.6757 24.2482 -0.605867 -1.87726 -0.856325
24.2832 23.2279 21.2216 0.578266 -1.74912 0.887863
ITEM: TIMESTEP
6000
ITEM: NUMBER OF ATOMS
55
ITEM: BOX BOUNDS ss ss ss
1.6038701385159904e+01 2.5137676585011949e+01
1.4828867619420619e+01 2.5850248856695334e+01
1.5561266609746609e+01 2.5530745956810303e+01
ITEM: ATOMS x y z vx vy vz
18.9882 18.8775 18.2583 -1.96523 2.2732 -0.873193
19.9523 16.0865 18.3548 0.192586 -1.58396 0.753306
17.9919 16.9385 16.4707 2.51941 1.9777 -2.63991
17.6374 16.9261 19.4798 1.84594 -0.994972 -1.57646
16.4217 18.6572 17.8925 1.13415 0.270054 2.2295
16.9355 19.5846 20.1901 -1.99806 -1.50644 1.04264
18.4614 19.5656 15.7653 1.02817 1.06721 -0.80356
21.9252 18.859 18.5473 1.09391 -1.42038 0.759566
24.7006 18.5503 18.7229 -0.375835 2.2674 1.56055
23.2608 18.5756 16.1788 -1.71864 0.217356 0.12617
22.566 16.5097 17.8341 1.41995 -1.8532 1.84424
20.6515 17.6359 16.0414 0.203377 -1.17944 0.0523541
20.3758 17.7041 20.5949 1.16852 0.362202 3.84722
21.4138 15.0927 20.0523 -0.899823 2.32019 -1.16887
23.1694 17.0605 20.1702 -2.39662 0.671864 -1.33773
17.5468 22.1191 19.7346 -2.95421 5.28893 1.00354
17.5926 23.6069 17.5407 0.525132 -4.51539 0.36091
17.0371 21.2278 17.2365 0.467831 2.65536 -1.36208
18.0768 24.9295 20.1595 -1.09579 -1.36722 0.824324
19.7108 21.5123 17.9909 -1.40011 -0.96767 -1.8757
19.2943 22.3802 15.6967 1.48825 2.13538 -0.235469
19.9935 24.3167 17.8907 0.509461 -0.529021 -3.06758
19.8115 20.5907 20.5418 -1.97656 -0.371392 -0.728525
25.2351 21.1172 19.6194 1.22137 2.02145 0.971267
22.3259 21.7711 19.4706 0.141649 -0.777811 -0.809595
22.0471 23.0168 16.9432 -2.30484 1.80027 -0.174889
21.2301 20.153 16.1637 -0.331338 -0.999972 0.796195
22.3059 24.6515 19.7296 1.94081 -1.61631 1.30558
24.3385 23.3353 18.358 -2.13082 -1.52957 -2.0163
23.6929 20.9873 17.3721 -0.157903 2.07091 -1.77155
17.7071 19.8492 24.981 0.806632 -3.82217 0.596747
18.6266 18.5539 22.2865 1.57643 0.0804643 1.6523
16.1374 18.788 23.1679 1.10154 0.296544 -1.52274
19.0775 15.4772 21.3717 -2.04367 -1.06538 0.341226
16.6552 16.8 21.7244 -3.07927 -0.320946 -0.619266
18.5783 16.349 23.8285 -5.06692 0.104891 1.305
20.0101 18.348 25.0056 0.231933 0.00731787 -0.39022
21.3225 19.1908 22.8441 -0.916168 -1.23418 -0.0480418
21.0853 16.6406 22.9403 2.82317 0.697639 1.45763
23.2763 19.778 20.8485 0.222983 2.9541 1.17994
19.9586 23.1082 20.7496 1.49588 -0.295239 1.43486
19.3858 21.3341 23.0395 -2.69174 0.692711 1.08934
17.6353 22.4297 24.7803 2.48112 0.914191 -1.31577
16.8748 21.0847 22.5164 1.39226 -1.26085 -1.08868
20.0719 24.1788 23.0771 1.25933 -1.70056 -1.56223
17.7427 23.4465 22.2407 2.14993 -1.86071 0.393089
20.1362 20.8274 25.4763 1.00921 -2.15081 1.13497
20.4107 25.8555 20.6821 0.579473 -0.630515 -1.84893
22.7769 20.4914 24.3927 0.0893269 -0.109772 3.28162
25.0598 21.0264 22.412 -2.29547 -0.284683 -1.25357
22.2026 22.0232 22.2319 1.94563 -1.37846 -0.542304
21.4753 22.7578 24.7773 0.66707 1.86406 -1.9521
22.3732 24.751 22.4563 0.235281 -0.872113 1.19411
24.032 23.1425 23.865 1.72734 2.37127 1.93587
24.4225 23.154 21.0282 -0.89601 0.816456 -1.88881
ITEM: TIMESTEP
7000
ITEM: NUMBER OF ATOMS
55
ITEM: BOX BOUNDS ss ss ss
1.6047669687950048e+01 2.5363864609826646e+01
1.5056575906243648e+01 2.5897004900553199e+01
1.5607396381454631e+01 2.5574847113251494e+01
ITEM: ATOMS x y z vx vy vz
19.0485 18.8865 18.0031 1.39511 0.711211 -0.0998991
20.3266 16.3834 17.5812 1.83017 -2.92658 3.64074
18.1925 17.3774 16.1149 -0.335858 1.97046 -3.43349
18.0915 16.566 19.1556 0.406555 1.09757 -0.980333
16.6705 18.3023 17.911 -0.274883 -3.13974 1.43049
17.1121 19.6643 20.0348 -1.47589 0.645924 -0.392765
18.6413 20.1686 15.6305 0.411602 1.45434 -0.394908
19.7192 20.4963 20.3503 -1.36411 1.70147 0.204928
21.6379 18.8974 18.6791 0.823155 0.422959 -0.455664
24.0231 18.6842 19.4766 -0.39345 1.49604 0.379097
23.114 18.0717 16.7704 0.759083 1.34558 0.392588
22.7468 16.2535 18.6695 0.490843 -0.586878 3.05843
20.7902 18.1072 15.7926 -0.342515 1.61114 -0.911944
20.4667 15.0431 20.3531 -0.591159 -0.272648 0.167519
22.6185 16.2532 21.3578 -0.339872 0.399348 -1.83593
21.5576 20.4884 16.0733 -2.96619 -0.905575 1.2043
17.2901 22.262 19.7553 -0.0466392 2.88061 -1.34104
17.2625 23.6898 17.4384 0.106187 -0.537356 0.19618
16.9918 20.9913 17.4785 1.13313 0.159744 1.64263
17.5489 24.8833 19.9032 0.814662 0.377785 -0.200442
19.8185 21.7488 18.144 0.965605 2.66074 0.890463
19.3395 22.7235 15.9702 0.308135 -0.438157 1.85689
19.7332 24.3274 18.2931 -0.0103737 0.537665 -0.260268
19.4838 23.0493 21.0321 0.183795 -4.37417 -0.434936
20.0993 25.6379 21.0795 0.612495 -1.65327 1.93396
24.8799 21.3107 20.0137 -3.55914 0.494949 0.855315
22.1611 21.6141 19.2962 0.0550929 -2.61993 -0.122517
21.7247 22.8781 16.8288 -0.886306 -3.25926 -0.0118124
21.9504 24.3258 19.5374 1.54264 -2.91073 0.595153
24.0788 23.196 18.0523 -0.093552 1.74033 -0.803828
23.8105 20.6555 17.2674 0.158121 -2.28176 -2.01446
20.4041 17.5174 20.3674 -0.396629 -1.78672 0.0756658
18.2719 19.6846 24.7421 -0.964164 1.74826 0.298777
18.8353 18.3865 22.2182 1.55821 0.844899 -0.803037
16.4671 18.9919 22.8742 1.39316 -0.516741 -0.276873
18.3547 15.5574 21.7181 -2.14461 -0.533946 -0.0315058
16.4787 17.1369 21.1533 -0.387001 -2.30417 -2.30297
17.9598 16.7072 24.0782 1.34032 0.38709 1.79645
20.1649 17.7035 24.7688 1.02194 0.631359 -2.67177
22.0695 18.2961 23.2229 -0.0413336 0.974485 -2.06248
20.5403 16.1205 22.9853 -0.708326 1.20666 -0.566071
23.1339 20.1255 21.5871 -2.06191 -1.42318 -0.883345
20.3916 20.4863 22.8483 0.151638 -2.34665 -0.314605
19.2056 22.2177 24.6341 1.76527 -0.418366 1.36122
17.7631 21.1337 22.2591 -0.219929 0.108329 -0.281068
19.5804 24.4415 23.1663 1.58357 2.89198 -0.761899
17.262 23.8665 22.1101 -0.776394 0.652916 -2.69553
20.8496 20.3881 25.3775 2.31384 -0.0228999 0.945624
22.9686 20.8669 24.1199 1.3484 2.13219 -0.777008
25.4355 21.5539 22.6153 1.17425 0.606839 0.48212
21.8827 22.4389 21.8981 -0.942311 -1.10312 -0.668415
21.6086 23.0371 24.3319 -0.498268 0.705971 3.97163
22.6361 25.1613 22.0747 0.74169 0.528102 -0.196497
24.2052 23.4087 23.6224 -1.29967 -0.482107 0.77688
24.3256 23.5597 20.9079 -3.2682 1.71702 0.830252
ITEM: TIMESTEP
8000
ITEM: NUMBER OF ATOMS
55
ITEM: BOX BOUNDS ss ss ss
1.6049522412605533e+01 2.4977787380898565e+01
1.5052995469824708e+01 2.5686805543963075e+01
1.5496918599926843e+01 2.6021754464460297e+01
ITEM: ATOMS x y z vx vy vz
19.2215 19.2486 18.0665 0.136893 0.473492 0.775256
18.2489 17.1458 16.6248 -1.87249 0.333569 0.757048
18.6569 16.7739 19.8293 0.822195 -0.276827 0.97114
16.6963 17.5928 18.589 1.07295 -1.19375 0.520623
17.2533 19.4604 20.1026 -0.417483 -1.60407 0.754416
18.5548 20.8916 15.7869 1.37018 -0.323778 -2.08731
20.0759 20.3553 20.6152 -0.750932 0.144149 0.977134
16.2038 17.1614 21.2925 -0.714138 -0.220874 -1.70566
20.5617 16.7168 17.581 1.2692 -0.255991 0.0478436
21.818 19.2354 18.6002 -1.37242 -2.23121 -3.24616
24.276 18.4545 18.8689 0.271042 0.265602 1.2027
22.3391 18.253 16.392 -0.771138 1.61959 -1.55398
23.1493 16.16 18.8203 2.13441 1.81636 -1.38975
19.7889 18.5618 15.531 -0.82462 -0.594624 -0.516394
20.7574 15.196 20.1973 -0.848297 -0.0443925 -2.13299
21.1855 17.6058 20.4996 -0.962004 -0.806292 0.124462
17.6165 22.1218 19.6831 3.06279 1.50826 -2.35304
17.5762 23.0555 17.189 0.378075 0.436602 2.06422
16.9805 20.4008 17.657 -0.344616 0.0876934 0.623745
17.3255 24.8176 19.7689 -0.32459 -1.61512 -1.39837
19.9204 21.9956 18.3122 -0.708842 1.67376 -0.522635
19.7663 23.1175 15.7387 -1.75907 1.58554 -1.31033
19.3954 24.723 17.9428 1.34786 0.40487 -1.56288
19.9101 23.1853 20.8647 0.247415 0.849635 -1.35059
21.2212 20.7821 16.3743 -1.14828 0.712803 -3.14685
24.8964 20.912 19.5276 0.32088 2.17259 0.491436
22.3438 21.8022 19.2305 -1.34976 -0.728883 0.578497
22.3124 23.4035 16.7326 0.53547 1.60716 -0.101129
21.7862 24.4663 19.2242 -1.32926 -0.707096 -1.26544
24.2871 22.7557 17.7605 2.43718 1.70445 0.604758
23.7391 20.482 17.1152 0.772277 -3.88904 -2.24653
17.9699 19.6206 24.3971 -1.2365 -0.441531 0.856128
18.9244 18.2632 22.2316 -1.71478 1.52166 0.505148
16.0778 19.5449 22.806 1.93379 1.11734 -0.521302
18.0392 15.3826 21.9357 0.560315 1.18217 3.72578
17.2424 17.0098 23.8102 0.275916 -0.70454 1.96759
19.776 17.8663 24.7044 -0.722695 -1.59803 1.94909
20.5577 15.8704 22.7076 -0.253862 1.54698 -0.81313
20.5918 20.2725 23.6136 0.399268 -0.802898 0.653068
19.88 20.4069 26.0774 -1.74425 -2.32333 -1.22939
23.5954 17.1668 21.2511 2.57775 -0.853851 0.542694
21.9457 18.098 23.2438 -0.208282 1.81082 0.463746
23.0231 19.6598 21.2821 1.28226 -1.71949 0.527193
19.7616 25.6477 20.3635 2.769 0.944788 0.0821887
18.7188 22.1905 24.3103 0.951202 0.202027 3.61053
17.9832 21.4302 22.1043 -1.53553 -1.71183 2.39168
20.2944 24.0905 23.4264 -1.14117 -1.55523 -0.458249
17.9778 24.1111 22.2474 -0.090316 3.04813 1.05911
23.4823 20.5874 24.1538 -1.56082 -0.0503135 1.56436
25.0062 21.467 22.4642 -0.946742 0.352295 3.07807
22.0419 22.1644 22.2512 2.34775 -0.509596 0.725985
21.3755 22.3227 25.2029 -1.35142 -2.70932 0.915752
22.3025 24.8409 21.9769 -1.31643 -1.72509 -3.26717
23.1928 23.5774 23.966 1.85547 2.1973 -1.19545
24.1002 23.2992 20.6793 -1.81081 -0.122674 0.263331
ITEM: TIMESTEP
9000
ITEM: NUMBER OF ATOMS
55
ITEM: BOX BOUNDS ss ss ss
1.6153389413398909e+01 2.4851707682172862e+01
1.5004940600304497e+01 2.6063078615109497e+01
1.5468933694869927e+01 2.5502978481199186e+01
ITEM: ATOMS x y z vx vy vz
18.6508 18.9492 19.3597 1.50266 0.0609557 -0.938305
18.1666 17.852 16.9051 -1.1346 3.96866 -0.55989
17.9446 16.2949 19.3238 -2.56004 -0.908016 0.47906
16.1616 18.2156 18.7822 -2.47115 1.38391 -1.09674
16.533 19.9926 20.8002 -1.46624 -0.229268 1.56781
19.8875 20.8048 20.7696 0.0575581 -1.16861 -1.79376
19.9813 16.4885 17.8282 -1.41882 -3.78281 0.192815
20.5793 18.2063 15.8937 0.388642 0.436947 1.47672
16.8787 20.4749 17.8887 3.82041 -0.337095 -2.24002
21.2379 19.2223 18.4465 0.948179 -1.13388 1.21226
24.0767 18.682 18.8137 1.63289 -1.93016 0.0462189
23.0201 18.1922 16.5452 0.388939 0.097867 1.18272
22.38 16.5472 18.8129 0.0330788 -2.0134 3.93141
20.376 15.1963 20.225 -1.22667 1.93034 -1.72802
20.7779 17.555 20.7162 -1.33973 -0.94969 2.21976
21.7275 20.7812 15.9447 0.374265 1.18657 0.97359
23.7325 20.7788 17.7279 0.914072 -1.21173 0.707697
18.9605 20.2985 15.9594 0.806082 -1.35841 -2.04313
17.5848 22.0714 19.547 -0.0634259 -1.34748 4.71004
17.6317 22.8474 16.7767 -1.34376 -0.738719 0.788508
17.9427 24.6934 18.6326 -3.36308 -0.476286 -1.23356
20.0435 21.796 17.8506 2.84197 3.11101 0.286084
19.9666 22.7736 15.3305 -1.13161 0.428714 -0.906842
20.1476 24.8851 17.2139 2.31221 0.821548 0.969693
20.0551 23.4138 19.8371 -2.15866 0.791182 0.449506
19.8487 26.0281 20.1831 0.544132 3.44599 0.639303
25.1606 20.8761 20.0245 0.441368 -0.116914 0.697883
22.2733 21.7915 19.5006 1.31893 -0.688336 0.422789
22.0957 23.1945 16.8877 -1.58711 0.33235 0.696905
22.3251 24.7202 19.2325 -0.12405 1.93134 -0.904344
24.4298 23.1688 18.7308 -0.962441 -2.11618 0.423535
16.2311 17.5485 21.2896 0.611188 -1.14376 0.0148814
18.2745 18.9102 25.1986 -0.0215877 -1.36639 -0.454614
18.5856 18.5509 22.1214 0.651383 -0.122369 0.103877
16.4267 19.1805 23.4589 2.16371 -0.767889 0.944838
18.5377 15.7011 21.9783 0.972302 0.507048 -1.212
16.9661 16.8336 23.9659 -1.27014 -0.0706938 -1.25147
19.8488 17.0614 23.9041 0.419884 3.94617 -1.91502
20.3496 20.1903 23.3733 -0.022427 -1.2009 -0.00479556
20.6015 19.1465 25.6974 -0.902323 0.259239 0.771605
21.7277 15.6389 22.2971 2.29235 -2.34519 -0.353182
23.3955 17.139 21.1391 0.570586 1.40126 0.458073
22.2842 17.9933 23.3391 0.21674 -2.7941 2.84505
22.8173 19.8348 21.1696 -2.13005 1.66652 -2.69379
23.3618 20.6337 23.714 -0.129839 -0.378238 -2.17882
18.7938 21.4759 25.458 -1.20144 -1.56214 -2.71882
18.1747 21.55 22.6203 1.38122 -0.298708 0.665624
19.8073 23.458 23.2685 -0.140545 2.78731 0.0762617
18.0605 24.5663 21.3311 -0.681235 -1.33686 1.58273
24.6711 21.9325 22.1977 -0.578317 0.825601 -2.34459
21.9674 22.3817 22.0092 0.0434771 0.657243 0.297564