ITEM: TIMESTEP
0
ITEM: NUMBER OF ATOMS
55
ITEM: BOX BOUNDS ss ss ss
1.4850583259591453e+01 2.5877673663398948e+01
1.5947329743502946e+01 2.4831524369189484e+01
1.5884202393328639e+01 2.5233467181334380e+01
ITEM: ATOMS x y z vx vy vz
16.7035 18.1553 17.9606 -1.38416 -0.58669 0.766296
19.4824 18.8866 18.3854 0.18089 -0.258914 1.44756
15.2296 17.7224 20.253 -0.663285 1.91398 -2.30887
17.2123 15.9514 19.5295 1.33708 0.367844 1.41799
19.8973 16.445 19.8723 -2.73316 -1.95804 -0.139432
18.8006 16.4706 17.347 -2.11573 -0.498044 -0.170676
14.8547 20.0216 18.8012 0.816726 -1.31374 2.10474
18.4153 18.7726 15.8883 0.0430016 0.828624 -0.704772
22.5784 17.1217 20.2315 -1.57527 1.53419 0.604571
24.1337 17.7942 18.0615 1.02219 -0.0352802 0.0136912
23.7444 20.0704 16.5867 -0.490858 -1.10887 0.116118
22.187 19.5722 18.7474 -1.91643 0.50259 -0.0791761
24.9812 20.2182 19.0688 0.102593 -0.0206762 -0.245779
21.0973 19.4064 16.1751 -1.48237 -0.50248 -0.498469
21.4857 17.1003 17.6442 1.19969 -1.52338 -1.66712
17.1133 22.9885 17.6847 -1.57123 1.0884 1.22873
19.0984 21.2768 16.8151 0.748144 -0.072785 0.843926
20.1654 21.4655 19.4966 2.16215 -0.364771 0.767484
17.4698 20.7205 19.1541 0.0453557 0.150413 1.53718
19.7574 23.7164 18.0087 -1.46421 0.339464 0.759174
16.4519 20.5477 16.622 1.16361 -0.799484 -0.949533
15.5105 22.4652 19.8627 -1.47936 -0.879394 -1.7887
18.1077 23.3107 20.2232 0.0783919 0.67147 -0.904449
25.5636 22.6746 20.2433 0.856068 0.504845 0.10517
24.459 22.5228 17.6139 1.83157 -0.560706 -0.182891
22.8989 22.1112 19.8543 -0.274174 1.87565 -1.4563
22.4321 24.3709 18.3554 1.28733 0.65085 0.730879
21.7836 21.9378 17.1751 0.768364 2.20416 -0.126796
25.0056 24.8274 18.7996 -1.52781 -0.376136 -1.12301
18.267 16.0705 22.0607 1.42834 0.961564 0.576662
18.9121 18.4156 23.3172 1.1061 0.412784 -0.773149
17.8512 18.3635 20.6425 -0.0412328 0.0749995 1.9622
16.8974 20.2718 23.9252 1.21856 1.44475 -1.71393
15.7242 20.1774 21.4131 1.70485 -0.216143 -0.685944
16.2737 17.8326 22.7881 -0.37641 0.194715 -1.83283
21.6518 19.1066 23.6793 0.0997501 0.667423 0.37606
25.1802 17.9392 20.5954 1.12311 -0.513782 1.32357
20.5551 18.991 21.0589 -1.43187 -0.699253 -2.0951
20.9395 16.6817 22.4667 1.47357 -0.433112 0.52182
23.5971 17.4144 22.7707 2.79833 -1.01941 -0.428998
24.295 19.8438 23.8673 0.427135 -1.82542 0.358074
23.2487 19.7288 21.3555 -0.25519 -0.744376 -0.103167
25.8736 20.356 21.6927 -1.24622 0.857154 0.69749
17.6936 22.6823 24.8606 0.425327 0.338035 -0.862191
19.6324 20.8817 24.4076 0.491007 -0.067742 -0.171158
16.5069 22.64 22.431 -1.18522 0.817718 -0.755426
18.5152 20.8922 21.8075 1.12242 -0.309649 1.08006
20.3176 23.3401 25.2294 -0.617258 0.271052 2.4101
19.2069 23.4625 22.7848 -0.90574 -0.170609 -1.69312
20.8478 23.9885 20.5904 0.982753 0.493508 1.26262
21.9564 24.0027 23.1893 -0.173124 -0.467311 0.71935
23.5429 24.529 20.9844 -0.865441 0.168361 -0.0115705
22.3545 21.6427 24.6605 -1.84986 -1.1766 1.44978
21.2389 21.5774 22.1598 1.77297 -0.68355 0.216857
24.0248 22.2482 22.5256 -2.19174 -0.148194 -1.9256
ITEM: TIMESTEP
1000
ITEM: NUMBER OF ATOMS
55
ITEM: BOX BOUNDS ss ss ss
1.4850583259591453e+01 2.5877673663398948e+01
1.5947329743502946e+01 2.4831524369189484e+01
1.5884202393328639e+01 2.5233467181334380e+01
ITEM: ATOMS x y z vx vy vz
16.8122 18.1462 17.9129 -2.35501 -0.235605 -0.857217
19.5301 18.833 18.5028 -0.411544 0.43595 1.4498
15.2645 17.8636 19.9694 0.155073 -0.297727 1.28892
17.1713 16.0165 19.4575 0.280326 0.822784 0.689786
19.8412 16.4015 19.8752 0.709538 0.0166813 -0.28128
18.8537 16.488 17.3332 -1.12181 -1.5282 -1.58804
14.9562 20.0159 18.6482 -0.523001 0.242838 0.368661
18.3938 18.8545 15.98 2.56025 -0.085843 -0.413197
22.5248 17.1627 20.2867 0.789175 -0.197366 0.321742
23.9994 17.8474 18.0802 0.414911 -0.973898 -0.802294
23.7035 20.2076 16.5305 0.412153 -0.0650819 -1.07393
22.2055 19.7877 18.7308 -1.83191 -0.61523 0.312087
24.9875 20.1854 19.1043 -0.157625 1.46268 0.641162
21.1489 19.3509 16.3281 -1.13497 0.350146 1.81155
21.5129 17.0208 17.6933 -0.777162 -0.0279145 -0.630624
16.9354 22.8568 17.8777 1.22044 -0.480675 0.497911
19.2023 21.2399 16.9994 -0.420943 0.879844 -0.212123
19.9986 21.5038 19.5835 -0.719122 0.342368 0.573717
17.4742 20.6693 19.2116 0.177383 -0.119046 0.153952
19.6494 23.6889 17.9995 -0.219321 0.0723638 -0.458997
16.5334 20.5576 16.4693 1.38503 1.26544 -0.39821
15.4952 22.283 20.0192 -0.587052 -0.352247 -0.346242
18.0296 23.33 20.2035 1.77601 -0.0276955 0.290184
25.5602 22.6041 20.3911 0.596316 1.74707 0.975542
24.531 22.2383 17.6856 0.965964 1.11442 -0.774363
22.8769 22.1579 19.9283 0.842538 1.2119 -0.643859
22.29 24.3798 18.3592 -0.0315659 0.694408 -0.941748
21.82 22.0367 17.1849 -0.208858 -1.04829 -0.466051
25.0121 24.5016 18.8365 -1.39963 -1.10587 -0.118211
18.2402 16.0989 21.9546 0.683739 -0.356765 -1.22815
18.9224 18.4019 23.3752 -0.503983 -0.288564 -1.26146
17.9076 18.4214 20.6351 -0.514737 0.340335 0.565364
16.885 20.2923 23.9614 -0.385454 0.0450715 -0.245044
15.8287 20.1116 21.5454 -0.484893 -1.49437 0.254856
16.2076 17.827 22.6372 0.583414 0.673694 -0.0274989
21.7276 19.119 23.704 -2.13267 -0.440092 -1.31291
25.046 17.9642 20.5548 0.607734 -0.511866 1.21744
20.4424 19.0165 21.1766 1.22418 -1.27667 0.246628
20.9075 16.6801 22.4443 0.832688 -1.60603 0.108326
23.7337 17.5502 22.7566 -0.978988 0.274575 1.18244
24.2893 19.8835 23.7905 -0.227139 0.231161 -0.233062
23.0616 19.7672 21.2271 0.50195 -1.46631 0.192333
25.7988 20.195 21.6748 0.28594 0.450145 -0.56472
17.9626 22.5205 24.4289 1.04293 0.34073 -0.399576
19.6905 20.59 24.4455 0.242308 0.709143 0.958803
16.4006 22.6516 22.4764 -0.852832 0.432286 0.107987
18.6302 21.0713 21.9477 -1.43341 -0.333603 0.742269
20.4964 23.1712 24.9016 1.61431 0.645886 -0.325762
19.2001 23.7969 22.6852 0.279614 0.840675 -1.04304
20.782 23.9788 20.5588 -0.385461 -1.04536 1.32257
21.9487 24.159 23.1277 1.18366 0.860262 0.11517
23.5023 24.5616 20.9891 -0.0177116 0.0981906 0.466357
22.5115 21.653 24.6684 -0.661999 -0.203866 0.56667
21.2663 21.652 22.2509 -0.444351 -0.625639 -0.453563
24.0214 22.3612 22.6249 -0.444422 0.208787 -0.321055
ITEM: TIMESTEP
2000
ITEM: NUMBER OF ATOMS
55
ITEM: BOX BOUNDS ss ss ss
1.4850583259591453e+01 2.5877673663398948e+01
1.5947329743502946e+01 2.4831524369189484e+01
1.5884202393328639e+01 2.5233467181334380e+01
ITEM: ATOMS x y z vx vy vz
16.6087 18.254 17.9583 -0.454422 -0.587122 1.09528
19.4208 18.8564 18.4205 -0.479567 -0.605588 0.0391104
15.2938 17.6679 20.3407 2.00455 -1.44439 -0.243001
17.2998 16.0451 19.4269 -1.61148 0.788728 -0.246144
19.9049 16.4368 19.9494 -0.629053 0.84459 0.0529268
18.7018 16.5647 17.3689 -0.066721 0.0690213 -1.38723
14.8842 19.9484 18.7613 -0.780202 1.3652 -1.06821
18.295 18.7498 15.9933 -0.332044 -1.09974 -1.32654
22.679 17.0312 20.3487 -0.334856 -0.0678108 0.464878
23.9829 17.7795 18.0353 -0.710645 -0.180377 -0.263321
23.7493 19.9834 16.6144 0.549805 0.126101 -0.302896
22.3452 19.6806 18.8353 -0.487606 -0.493654 1.1735
25.0623 20.2376 19.071 -0.147427 0.532939 1.53412
21.0778 19.3508 16.2838 1.83824 1.2713 0.653742
21.4665 17.1524 17.8177 -0.426552 -0.995382 -0.0118508
17.0984 23.1087 17.7078 -0.716503 -0.0525515 0.596491
19.0188 21.3457 16.8709 -1.39988 0.767531 -0.0762094
20.2292 21.5897 19.5886 -0.195497 -0.271123 -0.4382
17.4836 20.654 19.233 0.836947 1.40015 0.0443563
19.6406 23.8531 18.1205 0.88528 -0.0762058 0.946478
16.4587 20.6513 16.7733 -0.507979 -1.05329 0.399001
15.5043 22.4169 19.6645 -0.132981 0.710188 0.704611
18.1044 23.2371 20.2227 -1.32461 0.715315 0.648931
25.6553 22.4105 20.4001 -0.606426 -1.98831 0.0278428
24.4329 22.4508 17.5984 -1.15375 1.27586 -0.102177
22.9369 22.2917 19.8701 0.0528084 0.203381 -0.519105
22.2227 24.3854 18.0375 -0.789632 -0.0106269 -1.24413
21.83 21.9012 17.0526 0.774785 -0.0478866 1.06628
24.6406 24.5418 19.0887 -0.176478 -0.64877 -0.23473
18.0953 16.1582 21.968 1.53781 1.35284 -1.04382
18.8838 18.2849 23.255 -0.617478 -0.523251 -0.236227
17.876 18.4587 20.6212 0.753083 -0.731449 0.0204703
16.9493 20.2175 23.6839 0.549513 -0.496132 0.452677
15.6141 20.1066 21.354 -1.22693 -0.988216 -1.03945
16.2134 17.6311 22.8727 0.0504544 1.04896 0.735574
21.717 19.0606 23.7038 0.0811805 0.0859732 -0.258855
25.0942 18.0097 20.4049 0.293844 -0.203806 0.325246
20.5613 18.9262 21.0571 0.213169 -0.375554 0.0427715
21.0366 16.7713 22.5609 1.89165 -1.02243 0.564177
23.8067 17.669 22.8002 0.576473 1.19285 -1.26099
24.4062 19.782 23.8975 -1.26681 -1.2328 1.31941
23.1544 19.9475 21.35 0.148888 0.727373 -0.52715
25.8645 20.1811 21.7755 -0.0445945 -0.00261816 1.18085
17.7935 22.5193 24.4756 -0.480279 0.785613 -0.0189914
19.6768 20.7016 24.4203 0.965858 1.36741 1.21827
16.4259 22.5356 22.2759 0.0644523 -1.57194 -0.890794
18.5888 20.9487 21.8809 -0.437644 -0.856215 -0.799868
20.3059 23.2179 24.8757 0.102637 -0.916189 -0.990475
19.312 23.6806 22.6705 0.332906 0.66016 -0.129556
20.8206 24.1149 20.4578 -0.157549 0.51507 -0.693213
22.1294 24.0083 23.2324 0.652961 0.727176 0.0242832
23.6233 24.6131 21.1719 1.11445 -1.52323 0.17184
22.4159 21.5067 24.5857 0.335769 0.876117 -0.257681
21.2307 21.7642 22.261 -0.662188 0.737361 -0.633771
24.1012 22.3332 22.6584 1.75027 -0.0805518 0.741469
ITEM: TIMESTEP
3000
ITEM: NUMBER OF ATOMS
55
ITEM: BOX BOUNDS ss ss ss
1.4850583259591453e+01 2.5877673663398948e+01
1.5947329743502946e+01 2.4831524369189484e+01
1.5884202393328639e+01 2.5233467181334380e+01
ITEM: ATOMS x y z vx vy vz
16.6402 18.2478 17.9989 0.0784395 0.665934 0.510256
19.5888 18.9399 18.4338 -1.66125 0.306871 -0.082436
15.4294 17.4499 20.2817 1.18785 -0.161642 -0.0528824
17.3246 15.9177 19.6332 -1.26091 0.0676163 -0.689312
20.098 16.2913 19.7221 -0.41024 -0.597582 0.093273
18.7893 16.6784 17.4306 -1.38253 0.20514 -0.225308
14.8904 20.0652 18.8562 -0.353136 0.444547 -0.552515
18.4085 18.9873 16.0689 -0.468183 0.563915 -1.06852
22.4793 17.2923 20.1862 0.867179 1.13927 0.704715
24.1188 17.657 18.0801 0.262233 -0.509767 0.385371
23.7933 19.7436 16.6673 0.277653 1.60701 -0.415614
22.2406 19.6321 18.7829 0.295145 -0.645904 0.468306
25.0201 20.1059 19.1037 -0.156376 0.313549 0.709408
21.055 19.4446 16.2534 -0.0128816 -1.05864 -0.573046
21.4426 17.1537 17.5885 0.155792 -0.992116 1.10103
17.1914 23.0353 17.792 -1.1903 -0.493434 0.411399
19.0924 21.2909 16.7938 1.13031 -1.03762 1.34686
20.1857 21.5443 19.4746 0.836222 0.115937 1.31781
17.5476 20.6498 19.1791 0.465191 0.0235973 -0.96342
19.7344 23.7009 18.0298 -0.0114212 1.0172 0.0424629
16.494 20.7339 16.8092 1.20218 0.185031 0.91739
15.5236 22.3831 19.8177 -0.932064 -0.936489 1.00155
18.0767 23.2813 20.2484 -1.20953 0.512295 -1.35954
25.5498 22.467 20.2648 0.176662 0.71001 0.473537
24.3204 22.2688 17.5973 0.324567 0.138894 -0.756394
22.7959 22.2807 19.7576 -0.856168 0.644668 -0.185717
22.2458 24.5322 18.3822 -1.36067 0.61342 -0.436771
21.875 21.8702 17.0975 0.797468 -1.00781 0.161137
24.8111 24.5342 18.7257 -0.442678 -0.969156 0.213869
18.396 16.0634 21.9279 -0.60178 -0.420708 -0.757116
18.9308 18.4155 23.3311 -1.97604 -1.0268 0.600788
17.8582 18.4766 20.6209 0.372355 -1.16329 0.0735395
16.8164 20.3512 23.8506 0.423357 0.25293 0.407951
15.7329 20.1279 21.4621 0.0218978 0.712351 0.341387
16.249 17.8453 22.7172 0.0599487 0.100899 -0.92983
21.8007 19.1343 23.633 0.253533 -0.33407 1.16811
25.1306 18.007 20.5811 0.0683889 1.71011 0.0446771
20.5161 19.0774 21.1557 0.819519 0.715969 0.0563683
20.9255 16.5997 22.3027 -1.61311 -0.340242 0.0295561
23.7377 17.5888 22.6499 0.19332 0.250662 0.36676
24.4013 19.8964 24.0428 -0.363431 0.470134 1.19344
23.2125 19.9291 21.2802 0.813778 0.301214 0.213808
25.8295 20.2304 21.817 -1.40537 0.878998 -1.63937
17.6614 22.668 24.6681 2.22877 -0.64894 -0.228419
19.7102 20.7043 24.488 0.370578 1.44583 -1.97576
16.3745 22.5255 22.382 0.466513 -1.09637 -0.183209
18.4735 20.9519 21.8679 1.03074 0.487839 -1.14122
20.2328 23.1536 25.1413 1.01445 -0.356443 -0.864317
19.1717 23.6516 22.7217 0.773399 -1.46053 -0.850555
20.8205 24.0675 20.5587 1.19216 1.84752 0.131172
21.8502 24.0285 23.2116 -0.0135839 -1.01471 0.845732
23.7461 24.3282 21.0439 -0.523114 -1.48754 -0.225119
22.3193 21.6953 24.4972 -0.822945 0.274832 0.817246
21.0975 21.7134 22.1352 0.0758077 -0.272412 0.836612
23.9673 22.315 22.5796 0.792288 -0.691979 -0.829107
ITEM: TIMESTEP
4000
ITEM: NUMBER OF ATOMS
55
ITEM: BOX BOUNDS ss ss ss
1.4850583259591453e+01 2.5877673663398948e+01
1.5947329743502946e+01 2.4831524369189484e+01
1.5884202393328639e+01 2.5233467181334380e+01
ITEM: ATOMS x y z vx vy vz
16.6763 18.0899 17.9386 0.538447 0.31843 -1.28572
19.495 18.852 18.4489 -1.04702 1.46029 -0.502566
15.2976 17.8882 20.2512 0.614079 0.291685 -0.0506789
17.2234 16.0242 19.5499 -0.668714 -0.202585 -0.0500403
20.0305 16.5796 19.9031 0.31547 -0.299296 -0.521293
18.818 16.5609 17.4452 -0.07342 1.256 0.616219
14.9036 20.0511 18.789 1.61465 -1.73407 0.386889
18.4249 18.9262 16.0674 0.024526 -0.354388 1.01036
22.6385 17.1467 20.277 -0.949035 1.45955 -0.510382
24.0322 17.8101 18.1455 -0.599501 0.179039 -0.692991
23.7271 19.8786 16.6392 0.503998 0.537545 -0.0439738
22.0996 19.5656 18.7422 0.294934 -0.247221 0.758842
24.8864 20.1973 19.0427 -0.622363 -0.375977 1.26296
21.0455 19.409 16.1036 0.162504 -1.75346 0.372629
21.5127 17.1761 17.4423 -0.352599 0.775201 -0.0342756
17.1656 23.0806 17.6303 0.139452 -0.133597 -0.518239
19.1765 21.3375 16.8131 0.729655 1.22702 -0.270005
20.0616 21.5456 19.6778 0.493083 1.56484 -0.66559
17.4161 20.7515 19.1919 -0.714793 0.746947 -0.469457
19.7934 23.6977 18.1056 -1.56693 -0.856776 -1.16853
16.471 20.6046 16.6848 -0.0335473 -0.218814 0.213323
15.4243 22.4356 19.6969 -0.0492308 0.221084 -0.14618
17.9444 23.2975 20.2368 0.375525 -0.31918 -0.247673
25.4745 22.8096 20.1834 1.10708 -0.637489 1.26227
24.4792 22.3385 17.6402 -1.30732 -1.39988 0.503273
22.8481 22.0547 19.9334 0.971414 -0.614779 0.999619
22.3443 24.3717 18.2199 0.236324 -0.114677 -1.63268
21.8361 21.8691 17.1779 -1.09623 0.0459337 -1.37514
24.7864 24.6991 18.776 0.938539 -0.676864 0.173847
18.5516 15.9877 22.0067 -0.226368 -1.0607 -0.295253
18.8965 18.4437 23.1869 0.621823 -0.546708 0.32706
17.9298 18.3374 20.6953 -0.973489 -0.676781 -0.16599
16.6842 20.1906 23.9104 0.276045 0.757617 0.499015
15.8154 20.3666 21.4039 -0.716769 0.10857 1.2494
16.3619 17.6832 22.779 -0.242091 -0.654874 -0.815161
21.7134 18.8748 23.7427 -0.11984 -0.192844 -0.980318
25.2223 18.0738 20.8566 -0.761143 0.54619 -0.83121
20.5804 19.127 21.2364 0.994152 0.0913199 0.293922
21.1165 16.6985 22.3636 1.02128 -1.7102 1.7874
23.7549 17.3116 22.87 0.286274 -0.0770955 0.49446
24.4782 19.5366 23.7728 -0.713758 -0.419435 0.0122045
23.1191 19.7353 21.5493 0.249861 -1.70032 -0.0202438
25.8131 20.6034 21.653 -0.941051 0.582548 -2.29831
17.6591 22.5541 24.6372 -0.451797 0.122225 0.0545935
19.66 20.6541 24.5471 -0.458275 -0.438136 -1.2844
16.2712 22.788 22.3207 -0.653644 -0.98249 -0.460856
18.3408 21.0814 22.0734 0.50938 0.11323 1.13641
20.4614 23.1158 24.7839 0.119675 -0.671714 0.528713
19.1831 23.6286 22.6004 0.229386 -0.0118279 -0.773589
20.8496 23.986 20.5797 1.14495 1.24543 0.573691
22.2432 24.1711 23.169 0.699887 1.26378 1.00841
23.3774 24.5153 20.8272 -0.628328 1.81271 -0.637258
22.4547 21.2595 24.5512 -0.152771 0.895908 -0.662604
21.1605 21.6089 22.3458 1.16817 0.887419 2.32734
23.9942 22.3431 22.5088 -0.260539 0.571643 1.55777
ITEM: TIMESTEP
5000
ITEM: NUMBER OF ATOMS
55
ITEM: BOX BOUNDS ss ss ss
1.4850583259591453e+01 2.5877673663398948e+01
1.5947329743502946e+01 2.4831524369189484e+01
1.5884202393328639e+01 2.5233467181334380e+01
ITEM: ATOMS x y z vx vy vz
16.6049 18.1823 17.9507 0.750808 0.637746 0.169092
19.4744 19.0189 18.352 0.736706 -0.529438 -0.97293
15.2948 17.5982 20.2707 1.05617 -1.16505 -0.213445
17.307 16.032 19.6243 -0.407607 -1.0797 0.824813
19.994 16.5874 19.7797 -1.0913 0.727471 -0.573807
18.8389 16.5988 17.4074 0.491254 1.73901 -0.488858
14.6921 19.8991 18.9619 1.46478 -0.0299473 0.274492
18.3807 18.9358 15.9651 -0.982522 -0.249878 0.520581
22.5451 17.1367 20.1741 -2.46467 -2.1022 -0.552104
24.2174 17.874 18.0607 -0.543393 -0.319603 0.0337991
23.6052 20.026 16.5822 -0.60727 -0.149855 -0.267
22.1584 19.5406 18.7708 0.0850005 0.625976 -0.439825
25.1026 20.1672 19.0039 -0.26873 1.4537 0.353165
21.0759 19.4257 16.2646 0.838527 -0.234707 0.941563
21.462 17.189 17.5791 -1.02 0.498504 -0.871628
17.1399 22.9947 17.7983 0.641431 -0.968995 0.298448
19.0815 21.4204 16.8688 1.02348 -0.401486 -2.01256
20.18 21.4796 19.6135 0.264288 -1.34451 -0.425997
17.3538 20.8106 19.2357 -0.194536 0.283736 1.77416
19.8971 23.6967 18.1333 0.47284 -0.387307 -1.34444
16.3852 20.6845 16.7938 -0.356913 0.235157 0.0841718
15.3835 22.379 19.5426 -0.553534 -0.202473 0.513078
18.0622 23.3722 20.2697 -0.278625 0.770801 -0.0942098
25.5372 22.6107 20.2415 1.97196 0.812718 0.36612
24.4377 22.3022 17.7202 -1.28543 0.560918 1.41028
22.908 22.0983 19.8157 -2.87777 -0.800862 0.905375
22.5274 24.3001 18.4377 -0.759831 -0.263911 1.58571
21.7854 21.8758 17.3112 1.03938 -1.70865 0.264105
25.1466 24.4801 18.8123 0.304081 0.51371 -1.12325
18.5855 16.2425 21.9969 -0.657235 1.08507 -1.07881
18.9858 18.4059 23.493 0.0255077 -1.03332 -0.802393
17.8824 18.4196 20.6023 0.276816 -0.22438 0.899605
16.8228 20.2732 23.9515 0.111642 0.265829 -1.49394
15.6391 20.0734 21.5374 0.534729 1.12822 -1.25771
16.4794 17.865 22.7519 -0.339871 -1.19628 0.44085
21.7119 19.1201 23.7754 0.909459 -0.841425 0.423495
25.1587 17.9123 20.56 -0.936898 0.620341 0.0292067
20.4999 18.9486 21.1438 0.161808 -0.610378 0.186409
21.2432 16.7599 22.5846 1.8336 0.526884 -0.623652
23.8862 17.568 22.7762 0.996713 1.84207 0.487473
24.4293 19.8868 23.7607 -0.255163 0.285752 0.615491
23.0858 19.7328 21.3917 -0.265951 -0.401545 -0.0787738
25.7799 20.3536 21.578 0.766715 -0.228899 -0.367015
17.5536 22.6073 24.4777 -1.37992 1.80485 0.902363
19.5604 20.8242 24.3554 -0.954292 1.37956 2.24646
16.194 22.6187 22.0949 0.00859878 -0.612362 -0.0465561
18.4032 20.8501 21.8324 1.27559 1.17023 -0.608161
20.2809 23.0897 25.0989 0.915166 0.211874 1.75402
19.1078 23.4803 22.6203 -0.193025 0.235526 0.0692557
20.9409 24.1311 20.7057 1.46349 0.526237 0.414781
21.8249 24.0563 23.1293 0.576019 -0.519883 -1.05619
23.6304 24.4198 21.0401 -0.709894 -1.51084 0.616092
22.3772 21.598 24.4977 0.805179 0.310815 -0.478536
21.0548 21.5793 22.194 -0.952297 -0.882963 -1.80442
24.028 22.1923 22.434 -1.46506 -0.251865 -0.328253
ITEM: TIMESTEP
6000
ITEM: NUMBER OF ATOMS
55
ITEM: BOX BOUNDS ss ss ss
1.4850583259591453e+01 2.5877673663398948e+01
1.5947329743502946e+01 2.4831524369189484e+01
1.5884202393328639e+01 2.5233467181334380e+01
ITEM: ATOMS x y z vx vy vz
16.9216 18.2391 18.0475 -1.89298 -0.675073 -0.833667
19.62 18.922 18.3368 -0.34776 -2.05604 -0.963419
15.2762 17.9527 20.2924 0.743908 0.42591 -0.231062
17.1652 16.0561 19.5703 0.0236232 0.979812 0.528218
19.855 16.4759 19.9177 0.175603 0.832345 0.216977
18.8765 16.5591 17.3524 -0.513295 0.806677 0.491798
14.9352 20.1196 18.6039 0.727157 -0.63 -0.27599
18.6482 18.7225 15.7965 0.660686 -0.464966 -0.120564
22.47 17.1593 20.1297 -0.481612 -0.96322 -1.31238
24.1165 17.7707 18.1201 0.919603 -0.264366 0.978366
23.7854 19.8417 16.5848 -0.00641008 -0.442458 -0.0121148
22.3317 19.6139 18.8334 -0.437334 -1.02945 -0.560283
24.9704 20.2532 19.0008 0.469459 -0.772015 -0.759753
21.1758 19.5906 16.1591 0.75514 -0.30614 1.09686
21.6079 17.1737 17.5724 -1.27446 -0.705324 -1.59071
16.9048 22.7296 17.8288 0.313592 0.928349 -0.622521
19.0999 21.2628 16.8177 0.25886 1.95735 -0.483684
20.2485 21.5592 19.3868 -0.120749 1.02682 -1.66549
17.4667 20.7848 19.2747 0.951367 -0.222098 -0.367703
19.6161 23.7343 18.0228 -0.317173 0.164604 -0.189498
16.7106 20.3824 16.6206 -0.311631 0.354515 0.696004
15.5009 22.5001 19.9685 0.19775 1.27848 0.440982
18.0959 23.3451 20.3081 -1.32026 -0.415776 -1.63382
25.6873 22.585 20.4491 -0.524363 1.55309 -0.858136
24.2769 22.3628 17.4132 0.654222 1.36025 1.18649
23.1378 22.2988 19.9809 -0.182896 -1.49588 -0.890672
22.3183 24.2925 18.2934 -0.515338 0.216817 -1.29685
21.6416 21.9317 17.2137 -1.50321 -0.228702 0.247097
24.7799 24.4393 18.8001 0.588921 0.159055 -0.67616
18.1724 16.0249 22.1246 1.12988 0.369743 0.997774
18.9222 18.4489 23.2318 -1.86993 1.34462 0.423221
17.865 18.337 20.7519 0.371692 1.80156 0.0258142
16.8466 20.2771 23.8925 -0.511403 0.822629 0.0440092
15.5663 20.1651 21.4427 -0.289448 -1.17785 -0.789106
16.2566 17.7844 22.82 0.0858405 -1.83881 0.801542
21.6418 19.129 23.5925 -0.780871 -1.05697 1.1796
25.0687 18.0319 20.5846 1.82776 -0.139065 0.235415
20.5989 19.0704 20.9563 0.371982 1.36576 0.185553
20.6857 16.7103 22.4252 -0.751458 -0.390842 -0.0347127
23.4789 17.4504 22.6919 1.10771 -0.151207 1.24594
24.4465 19.7707 23.808 -0.42424 0.572954 -0.763117
23.3726 19.8859 21.4115 -0.750025 -0.378394 1.14381
25.9054 20.2869 21.6295 -1.09328 0.751169 -0.250862
17.8146 22.5034 24.9579 -1.12379 -0.52848 1.1934
19.5898 20.8202 24.5509 0.937267 -0.400112 0.655892
16.4255 22.577 22.4909 -0.731356 0.193577 -0.0203871
18.4242 20.9925 21.8338 0.217252 -0.729751 -0.583351
20.2965 23.2863 25.0322 0.687214 0.0799388 -0.372132
19.058 23.4397 22.8182 -0.376426 -1.74842 -0.605961
20.7779 24.0339 20.5643 -0.476995 -0.304577 0.749516
22.0027 23.8184 23.1111 1.85742 -0.277218 0.986775
23.3654 24.6608 20.9408 0.904687 1.47678 0.556052
22.5048 21.525 24.5826 2.22107 -0.437912 0.274612
21.2755 21.5751 22.2164 -0.223789 -0.961465 0.326194
24.1213 22.4612 22.5668 -0.00717903 0.369762 1.85621
ITEM: TIMESTEP
7000
ITEM: NUMBER OF ATOMS
55
ITEM: BOX BOUNDS ss ss ss
1.4850583259591453e+01 2.5877673663398948e+01
1.5947329743502946e+01 2.4831524369189484e+01
1.5884202393328639e+01 2.5233467181334380e+01
ITEM: ATOMS x y z vx vy vz
16.7691 18.2628 18.035 -0.397358 0.833032 -0.0682411
19.5066 19.0221 18.6296 -0.148736 1.66541 0.0406728
15.3245 17.5237 20.4064 -0.797321 -0.559441 0.316299
17.2657 16.0756 19.4268 -0.187099 -1.03428 0.985679
19.9375 16.4393 19.9037 1.03182 1.31778 1.01116
18.8685 16.7417 17.352 0.0327943 1.38034 0.274124
14.8545 19.998 18.869 0.790556 -1.1564 -0.498383
18.342 19.0483 16.0488 -0.226131 0.502034 0.330701
22.5411 17.3306 20.0554 0.165411 1.65324 -1.17056
24.0151 17.8106 17.9592 -0.819306 0.384522 0.636928
23.6501 19.9164 16.5522 0.28552 1.31642 -0.0414685
22.2538 19.6864 18.8824 -0.0683326 -0.228498 -0.168903
25.0382 20.2474 18.9099 0.287241 -1.65351 -0.0228838
20.9908 19.3664 16.406 -0.0794583 1.4415 -0.413908
21.4971 17.0987 17.6122 -0.371464 0.454937 -2.08087
17.0804 22.9833 17.591 -0.366806 -0.207938 0.306466
19.2021 21.3208 17.0374 0.35748 -1.17588 0.498059
20.2348 21.5025 19.6716 -0.55342 -0.0660849 2.72415
17.4311 20.8327 19.2555 2.72293 0.502245 -0.494652
19.8322 23.6505 17.919 -0.982236 -0.422787 -1.2105
16.4091 20.6146 16.7958 -0.825457 -0.415217 1.58152
15.432 22.3814 19.6992 0.901638 -0.850355 0.0383618
18.036 23.3836 20.0195 0.519011 -0.0324798 0.783918
25.5192 22.5086 20.3397 -0.424167 -1.64246 0.831996
24.4537 22.4264 17.6063 1.28973 -0.476327 -0.0911213
22.9177 22.2158 19.8495 0.363157 1.48404 0.258765
22.4507 24.3483 18.2906 -0.691917 0.0113818 -1.86488
21.8735 21.8973 17.298 -0.0849812 0.243365 0.0180459
25.0714 24.4811 18.8329 0.270849 -0.372619 -1.20896
18.1775 16.0875 21.9296 -0.0487157 -1.21284 -0.929834
18.8328 18.1538 23.5217 0.662313 0.0549591 -0.812363
17.8633 18.324 20.7477 0.727629 -0.362076 0.104426
16.9471 19.878 24.135 1.76651 0.240098 -2.13852
15.6551 20.1607 21.4532 1.38466 -0.101616 0.375115
16.195 17.7981 22.7096 -0.35162 1.94709 -0.224703
21.6378 19.12 23.7143 -0.29775 2.04052 -0.383667
25.1274 18.0417 20.3709 0.314649 -0.222777 0.277237
20.5016 18.9741 21.2831 -1.02161 -0.785798 0.245047
20.8794 16.7081 22.5583 -1.14677 0.483582 1.16838
23.4021 17.5979 22.5967 0.976549 -0.987268 0.826901
24.2857 19.8859 23.8454 0.159742 -1.67939 1.10188
23.4623 19.8616 21.3319 0.093496 -0.648817 0.844215
26.0176 20.4515 21.8707 -1.17856 0.657747 -0.86682
17.6428 22.3366 24.4388 0.805451 0.237227 -0.051103
19.6831 20.6367 24.4495 0.00462079 -0.98222 -0.226972
16.5287 22.7039 22.1498 -1.69725 -0.319714 -1.28127
18.4488 20.8393 22.0299 -0.820212 -2.10645 0.281355
20.3258 23.0491 24.8139 -0.999128 1.53597 -0.436282
19.1497 23.5067 22.4991 0.745948 -0.490106 1.54921
20.8102 24.1662 20.5136 0.361109 0.384259 0.225365
21.9689 24.1627 22.8777 -0.792853 -0.871093 -0.337865
23.6981 24.6434 20.9153 0.458245 -0.765585 0.516577
22.3993 21.4919 24.7152 -1.19335 0.95429 -0.0777187
21.2187 21.7224 22.2756 -0.337432 0.649536 0.255074
24.0677 22.3082 22.7239 -0.569618 -0.5455 -1.30519
ITEM: TIMESTEP
8000
ITEM: NUMBER OF ATOMS
55
ITEM: BOX BOUNDS ss ss ss
1.4850583259591453e+01 2.5877673663398948e+01
1.5947329743502946e+01 2.4831524369189484e+01
1.5884202393328639e+01 2.5233467181334380e+01
ITEM: ATOMS x y z vx vy vz
16.8537 18.3095 17.8788 0.281658 2.00568 -1.04241
19.5259 18.9873 18.5467 0.676791 -1.58182 0.743567
15.4445 17.7714 20.171 -0.240633 -0.155439 -0.666112
17.4669 16.1894 19.2911 -0.286045 -0.0851799 0.403048
19.9074 16.6327 19.886 -0.117695 -1.26087 -0.728491
18.9807 16.6284 17.2212 -0.628595 0.744643 0.712694
14.6955 19.8838 19.0114 -0.426664 -0.221011 0.293686
18.4305 18.8191 15.9103 0.60083 0.988234 0.387815
22.6342 17.163 20.2393 0.654644 -1.07609 -0.289101
24.106 17.8225 18.0243 1.24144 -0.183115 0.320575
23.6992 19.8237 16.5306 0.231983 -0.700914 0.313177
22.1781 19.5056 18.8579 1.10146 1.89837 -0.24984
24.9223 20.236 18.9764 0.230825 -0.606269 0.272285
21.0354 19.36 16.2134 0.498781 -0.948579 0.157
21.5251 17.1671 17.6474 0.55553 -0.343835 0.868199
17.0811 22.995 17.6337 -0.0449212 1.01292 0.271605
19.0146 21.3138 16.8385 -0.831012 -0.65438 -0.746339
20.0914 21.3933 19.6571 -0.716824 0.296069 -1.99202
17.2946 20.7534 19.1825 0.188753 -0.377917 -0.629075
19.8463 23.6417 18.1327 -0.100481 1.37084 -0.347354
16.2796 20.7047 16.7267 0.257484 -0.352133 -1.25983
15.5595 22.4152 19.9099 0.143373 2.41093 0.0747553
17.9829 23.2609 20.1006 -1.2437 -0.00920769 -0.0943053
25.6022 22.5591 20.2722 0.264272 1.33553 -0.816884
24.4229 22.2988 17.4681 -1.93329 0.671648 -0.877516
22.8168 22.184 19.8187 -0.173958 -0.454848 -1.16191
22.4565 24.1889 18.1985 0.18053 -0.486771 -0.558911
21.596 21.7713 17.1659 0.813742 -1.06446 -1.17572
24.9128 24.4912 18.8614 -0.326304 0.556603 0.972149
18.3381 16.209 21.9474 -1.01347 -1.76537 -0.406512
18.921 18.4321 23.3861 -0.710137 -1.10631 -0.740038
17.8863 18.543 20.5991 2.58173 0.449625 1.02496
16.7349 20.1769 23.9178 -0.719305 1.37858 1.05417
15.7319 20.1591 21.5055 1.2499 0.442125 0.763297
16.3348 17.8337 22.6772 -0.240666 1.15051 -0.553121
21.7312 18.9873 23.7779 0.621324 -0.264734 0.972572
25.1881 17.9551 20.5114 -1.41844 -1.30834 0.169424
20.682 19.0775 21.3418 -0.882414 -0.686275 0.282844
20.9474 16.8143 22.5637 1.04914 1.15764 1.15905
23.5611 17.4968 22.7781 -1.03332 -0.196098 0.221652
24.3426 20.0074 23.8914 -0.955271 2.39647 1.52527
23.4567 19.7207 21.409 -0.0960142 0.0732779 -1.20998
25.9412 20.237 21.6754 -0.633496 -0.539034 0.110536
17.7387 22.4369 24.5739 1.797 -1.29253 -0.163409
19.7785 20.674 24.4257 1.02886 -0.435158 0.95204
16.2814 22.7282 22.3543 -0.238141 -1.07633 2.0298
18.4174 21.0754 21.9127 0.361498 1.45178 0.0340539
20.2317 23.1545 25.0543 -0.287187 -0.895423 -0.948788
19.1217 23.5664 22.6567 1.11013 -1.57174 0.597978
20.9908 24.0626 20.6195 -0.494551 -0.10869 -0.284119
21.7842 24.0513 23.2145 -0.98531 -0.00427154 0.210954
23.4908 24.4413 21.144 -1.38208 2.4235 -0.32032
22.3698 21.6264 24.6703 0.00711391 -0.979455 0.546095
21.2858 21.6503 22.2223 -0.809438 -0.868676 -0.446531
24.0742 22.3367 22.5226 1.24057 -0.553694 0.263395
ITEM: TIMESTEP
9000
ITEM: NUMBER OF ATOMS
55
ITEM: BOX BOUNDS ss ss ss
1.4850583259591453e+01 2.5877673663398948e+01
1.5947329743502946e+01 2.4831524369189484e+01
1.5884202393328639e+01 2.5233467181334380e+01
ITEM: ATOMS x y z vx vy vz
16.8556 18.0756 18.1385 1.85614 1.20588 0.978969
19.6779 18.8785 18.4472 -0.315725 0.117342 1.41463
15.3061 17.9914 20.1922 -1.28583 -1.26796 -0.7605
17.2826 15.8012 19.4561 0.735046 -0.0605768 -0.143008
19.7697 16.4972 19.8557 -1.28285 0.0526056 0.133597
19.0108 16.4731 17.3049 2.58762 -0.516651 0.330613
14.8796 20.1371 18.6442 -0.402504 1.03699 0.703272
18.3437 18.7824 15.9846 -0.696022 0.500086 0.110096
22.4497 17.352 20.2801 0.166665 0.445411 1.56454
24.1594 17.7443 18.2869 -0.603772 1.74475 -2.01675
23.7796 19.9755 16.6026 0.290316 0.61935 -0.237959
22.3161 19.6243 18.7089 0.481333 0.772917 0.741527
25.0482 20.2851 19.0969 -0.902287 -0.216191 0.622306
21.0991 19.5384 16.144 -1.34919 -0.585723 1.13418
21.6696 17.2989 17.5945 -0.0864781 0.645298 0.204856
17.0039 22.928 17.7483 -0.232307 0.0426067 0.112131
19.0459 21.3931 16.7575 0.412593 1.58005 -0.337798
20.1394 21.4246 19.4955 -0.818968 1.9363 0.612211
17.4836 20.5536 19.1194 0.351704 -1.51396 0.922706
19.6743 23.6659 18.0408 1.06406 -0.649956 -0.0934729
16.5705 20.5582 16.6544 -0.223528 0.0870294 0.189491
15.6709 22.4357 19.9167 0.299553 -0.578203 -1.31058
18.1603 23.2411 20.2446 2.20325 -0.644139 0.359088
25.5662 22.6948 20.1405 -1.93277 -1.25403 0.432736
24.2777 22.5197 17.5944 1.82659 -0.184064 -0.635648
22.9428 22.0524 19.89 -1.00114 0.537056 0.50021
22.2642 24.34 18.3211 -0.0767336 0.399853 0.908293
21.5796 21.9593 17.2073 -0.477231 -1.04539 0.316437
24.7892 24.7427 18.7547 0.376641 1.21732 0.102285
18.1917 16.0258 22.0727 0.497591 -0.72115 0.590349
18.8702 18.3539 23.4622 0.575083 -0.410508 -0.787239
17.7967 18.259 20.6154 -1.17796 1.03519 0.870935
16.8123 20.1996 23.9044 -0.0297659 0.963871 0.229947
15.5776 20.318 21.4444 1.78328 -0.350323 -0.833744
16.256 18.0645 22.7272 -0.623722 0.60925 1.46984
21.5808 18.9927 23.7069 -1.24699 -0.321635 -2.18489
25.2645 18.103 20.9389 -0.126225 -1.27371 -1.17702
20.4746 19.0631 21.2355 0.940457 -0.645354 0.367059
20.7055 16.7065 22.4601 -0.0713647 -0.617338 0.124992
23.4471 17.3585 22.7358 -0.0281102 0.862837 -0.620443
24.2912 19.7056 23.6309 0.328492 0.349639 0.0177389
23.3205 19.7648 21.4013 0.350966 -0.603805 -0.187691
26.0687 20.4025 21.6621 0.241851 -1.06827 0.505223