ITEM: TIMESTEP
0
ITEM: NUMBER OF ATOMS
550
ITEM: BOX BOUNDS ss ss ss
7.6831567005077881e+00 3.4782568769888968e+01
6.5606341339367544e+00 3.4310103737266154e+01
8.6135055846191726e+00 3.2176495129005929e+01
ITEM: ATOMS x y z vx vy vz
22.7065 8.90662 11.8464 1.25718 -1.30935 -0.138999
25.5093 9.77314 11.9437 0.627381 0.026241 -0.394696
14.0387 13.9836 11.8467 -0.334906 -1.92409 -0.0818966
18.4942 12.7042 10.8126 -1.59778 -0.592345 1.04703
21.297 13.5707 10.91 -1.11356 -0.384672 -1.30941
20.6003 10.8054 11.3295 -0.0429068 -1.77373 -0.883287
24.0999 14.4373 11.0073 -3.14732 -1.15294 0.199051
26.206 12.5385 11.5241 1.25411 1.3307 0.443884
23.4032 11.6719 11.4268 -0.978036 -0.222134 -0.248254
14.7354 16.749 11.4271 1.21476 -0.870138 -1.38644
17.3559 16.1974 12.4934 -0.432205 2.63568 0.589052
17.0848 17.3683 9.87623 -0.51756 0.551274 1.61459
19.1909 15.4695 10.3931 -1.17822 0.318213 0.306481
16.3881 14.603 10.2958 0.118278 -0.380877 0.36479
19.8876 18.2349 9.97355 -2.22091 -1.97434 1.18068
21.9937 16.3361 10.4904 -0.24861 -0.102006 -0.945674
24.7966 17.2026 10.5877 1.75499 -0.0672957 -0.669241
26.9027 15.3038 11.1046 0.402534 0.749601 -0.46491
27.5994 18.0691 10.685 0.013862 0.853634 -1.51335
13.7794 21.6602 12.1389 1.36819 -0.118293 -0.267029
18.7493 21.728 11.6543 -1.15228 0.621429 0.52278
18.0526 18.9627 12.0739 -1.09549 -0.0381519 0.588748
17.7815 20.1336 9.45668 -2.0275 1.50285 -0.246273
16.1288 22.2796 10.588 0.136379 -1.69276 -0.607766
15.4321 19.5143 11.0076 0.513866 0.512377 -2.57601
20.8554 19.8292 12.1712 -0.266226 -1.44678 0.35401
20.5843 21.0002 9.554 0.0229442 -1.56289 -0.254998
22.6904 19.1014 10.0709 -1.24962 -1.2052 -0.501531
23.6583 20.6957 12.2685 0.568262 -0.574104 0.819154
23.3872 21.8667 9.65132 -1.03373 -0.459671 0.385221
25.4933 19.9679 10.1682 -2.30764 1.42405 0.608663
27.679 20.7506 11.8765 1.71874 -0.577535 2.34973
29.7852 18.8518 12.3934 0.857078 1.32679 -0.871906
14.4761 24.4256 11.7193 -0.933002 0.0232702 0.969025
19.1749 25.6643 8.61758 0.0239547 0.693722 0.200178
16.8255 25.0449 10.1685 0.028268 -0.408328 0.484226
18.4782 22.899 9.03713 -1.13374 -0.494347 -1.21427
19.446 24.4933 11.2348 -1.28358 1.29439 0.930064
21.5522 22.5945 11.7517 -0.682754 0.0324858 -1.78665
21.281 23.7655 9.13445 1.61893 0.179403 -0.860105
23.4667 24.5482 10.8428 1.40701 -1.11292 -2.10899
25.5729 22.6494 11.3596 0.254733 0.605699 0.00916457
18.607 27.2377 10.965 -2.76086 -1.70794 -0.287527
16.2576 26.6183 12.5158 1.01874 -0.0747286 0.194129
21.3606 26.447 10.3259 0.783857 -0.821502 1.76308
23.5463 27.2297 12.0343 -0.676172 0.116516 0.513331
19.0365 10.3623 16.0471 1.00891 -2.41539 -3.12007
20.8715 9.63446 13.9467 0.28628 2.59064 -1.49985
22.9776 7.73567 14.4636 1.80082 -0.47862 0.421293
23.6743 10.501 14.044 -2.56676 -0.431897 1.28081
25.7805 8.60218 14.5609 2.03858 -0.276391 -1.60992
9.33991 12.7449 14.9484 0.907196 0.435515 -0.427068
14.3098 12.8127 14.4639 -0.209983 0.131272 1.89028
11.9604 12.1933 16.0147 0.972423 0.527222 1.64169
11.6893 13.3643 13.3975 0.967056 0.260125 1.43707
16.9303 12.2611 15.5302 -0.470515 0.983831 0.740945
16.6592 13.4321 12.913 -0.605962 0.79178 0.584834
18.7653 11.5333 13.4299 -0.13936 0.146812 -2.01667
22.536 13.9942 15.7248 0.940709 0.96482 -0.295376
19.7332 13.1276 15.6275 1.90853 -1.15296 0.49444
19.462 14.2986 13.0103 -0.818335 -0.0447821 1.1385
21.8393 11.2288 16.1444 -0.7251 0.41757 1.93657
21.5682 12.3998 13.5272 0.918249 0.073927 0.382507
24.6422 12.0954 16.2417 -1.58242 1.47368 1.65053
24.371 13.2663 13.6245 -0.087518 -1.05523 0.597752
26.4772 11.3675 14.1414 1.19895 1.35278 1.50871
27.445 12.9619 16.339 -1.00898 0.800242 -0.00484813
27.1739 14.1328 13.7218 -1.43413 -2.23723 -1.40236
10.7333 18.2755 14.1093 -0.61868 -0.806822 -0.162634
10.0366 15.5102 14.5288 0.198663 0.408188 -0.577221
8.38395 17.6561 15.6602 -0.607376 -0.433408 1.42792
7.68724 14.8908 16.0797 -0.060888 -0.51359 -0.459805
15.0065 15.578 14.0443 -0.805306 -0.284104 0.765234
13.3538 17.7239 15.1756 -1.6298 0.701935 2.82
12.6571 14.9586 15.5952 2.27946 -2.33536 -1.51316
12.386 16.1296 12.978 -1.19061 0.243114 1.10781
18.3237 17.7917 14.6911 0.885913 0.558131 0.882997
17.627 15.0264 15.1106 1.18806 1.57989 0.930189
15.9744 17.1724 16.242 0.118232 2.76797 -0.389311
15.7032 18.3433 13.6248 0.134525 0.954492 0.688762
22.9616 17.9304 12.6881 0.164798 -0.865501 0.68234
20.4299 15.8929 15.208 1.71408 -0.855533 0.704896
20.1587 17.0639 12.5908 -0.920789 -0.550011 -0.336857
22.2649 15.1651 13.1076 1.34201 0.413055 -0.926038
26.0356 17.626 15.4026 0.177248 -0.79917 -0.295685
23.2327 16.7595 15.3053 0.740682 -0.068222 0.960886
25.3389 14.8607 15.8221 0.0909716 -2.07852 -0.38491
25.0677 16.0316 13.2049 0.878347 -1.44668 -0.864789
28.1417 15.7272 15.9195 -0.309987 0.722485 0.0925693
27.8706 16.8981 13.3023 -2.13992 0.322302 -0.569195
30.0563 17.6808 15.0106 -0.35022 0.72302 0.797819
11.43 21.0408 13.6897 -0.207099 -0.598749 0.397955
9.08065 20.4215 15.2406 0.947525 -0.280728 -0.169229
14.0505 20.4893 14.7561 1.02926 1.63697 0.301643
13.0827 18.8949 12.5584 0.316273 0.626547 0.918227
11.7012 19.8699 16.307 -0.198761 0.392738 -2.21235
19.0204 20.5571 14.2715 0.254083 0.847087 -1.08267
16.6711 19.9377 15.8224 -0.758525 -0.390794 -0.625536
16.3999 21.1086 13.2052 -1.43649 -1.25064 0.176621
21.8233 21.4236 14.3689 0.0196206 0.970883 -0.847912
21.1266 18.6583 14.7884 -0.959637 -0.254895 0.841425
24.009 22.2063 16.0772 1.13798 -0.0174109 -0.0260102
23.9294 19.5248 14.8857 -1.02209 -1.13844 1.08419
25.844 21.4784 13.9769 -0.333037 0.348615 -0.496668
25.7644 18.7969 12.7854 0.78782 -0.46196 1.01338
28.0298 22.2611 15.6852 1.21748 -0.575003 -0.0981355
27.9502 19.5796 14.4937 1.50424 0.0975099 3.57156
30.1359 20.3623 16.2021 -0.982484 -0.898228 0.482784
29.8648 21.5333 13.5849 -0.648686 -3.41877 -2.73451
32.0505 22.316 15.2932 -0.158206 -0.364112 1.95642
31.9709 19.6345 14.1017 -0.913005 0.562976 0.382458
34.1566 20.4172 15.8101 -1.03297 -0.366966 -1.74249
9.77736 23.1868 14.8211 -1.74653 1.73824 0.430633
14.7473 23.2546 14.3365 0.263621 1.27188 0.506342
12.3979 22.6352 15.8874 1.55729 -1.59318 0.893615
12.1267 23.8062 13.2702 -0.214381 -0.661156 2.58863
13.9082 25.999 14.0667 -0.722437 -0.208476 0.809322
11.5588 25.3796 15.6176 -1.25189 0.664876 -1.31834
17.3678 22.703 15.4029 1.06938 -0.101222 0.794375
17.0966 23.874 12.7857 0.936587 -0.646623 1.11239
19.1492 24.8958 16.1994 0.0615366 0.379653 1.23402
18.8781 26.0668 13.5822 -0.437182 -1.14199 -0.0261111
16.5287 25.4474 15.1331 0.280207 -0.128821 0.86165
19.7172 23.3224 13.852 1.45554 0.592087 0.510725
21.9029 24.1051 15.5603 1.13789 -0.453556 -1.09591
21.6317 25.276 12.9431 0.847077 2.09287 -0.269177
23.8175 26.0587 14.6515 -0.938261 -0.376895 2.00765
23.7379 23.3772 13.46 -0.3914 0.28288 -0.0337378
25.9236 24.1599 15.1683 -2.14618 0.973548 0.579922
25.6525 25.3309 12.5511 0.179448 0.331884 0.739376
27.8382 26.1135 14.2595 0.382609 0.0285541 1.34564
27.7586 23.4321 13.068 0.576287 -1.48214 0.618312
29.9443 24.2148 14.7763 1.26812 -0.0302626 -0.333652
13.3403 27.5724 16.4141 1.48913 -1.69119 1.41598
18.3101 27.6402 15.9296 -1.56723 0.984153 1.44362
18.039 28.8111 13.3124 -0.552804 1.51755 -0.52286
15.6896 28.1918 14.8632 0.540069 0.266425 0.240395
21.0638 26.8494 15.2905 -0.333124 -0.979957 0.841823
20.7927 28.0204 12.6733 -1.18977 -0.167891 2.14803
20.2247 29.5938 15.0207 -0.500742 0.730879 -1.44054
22.9784 28.8031 14.3816 -0.0615941 -0.810158 1.50537
26.0032 26.8414 16.3598 0.327058 -0.448473 -1.12906
25.7321 28.0123 13.7426 1.84896 1.17798 1.72396
25.1641 29.5858 16.09 0.394466 1.29083 -3.09726
27.9178 28.795 15.4509 0.143423 2.25455 -0.796266
30.0239 26.8962 15.9678 -0.531311 1.68156 -0.663132
17.4711 30.3845 15.6597 -0.266058 -0.538286 0.37262
9.88219 10.403 20.1828 0.140488 0.758096 1.91704
14.8521 10.4708 19.6983 -0.406921 -0.394599 0.373668
22.1104 10.0579 18.7616 0.995603 -2.87933 0.513587
19.3076 9.19136 18.6643 0.113046 0.958206 -1.69282
21.4137 7.29255 19.1811 0.539033 1.24357 -0.331295
21.1426 8.46351 16.5639 0.844261 -0.211192 -0.995682
27.0194 9.0256 19.3758 -1.11261 -0.201322 -0.121517
26.7483 10.1966 16.7586 -0.596072 2.41778 -1.03166
24.2166 8.15909 19.2784 -0.828633 -0.16523 0.406909
23.9454 9.33004 16.6612 0.729613 0.930614 0.239527
26.0516 7.43123 17.1781 -0.2922 -1.79389 -0.183433
23.2487 6.56471 17.0808 1.60951 -0.335513 0.474664
10.5789 13.1683 19.7632 0.837152 -0.219762 -1.361
10.3078 14.3392 17.146 -0.550917 0.365066 -0.677105
9.61105 11.5739 17.5656 1.08545 -0.829514 -0.776688
7.95837 13.7199 18.6969 -0.587965 -1.18611 -1.5193
15.2777 14.407 16.6615 1.27209 -0.437103 1.24184
14.5809 11.6417 17.0811 -0.140028 0.915092 -0.850336
12.9283 13.7877 18.2124 2.50506 0.311195 -0.208067
12.2316 11.0224 18.6319 -1.0352 -0.67551 0.0307482
18.1693 12.6845 20.345 -1.27215 1.09132 -1.25149
17.8982 13.8555 17.7278 1.39778 0.153845 -0.134315
17.2015 11.0902 18.1474 1.07657 0.961263 -0.920282
15.5488 13.2361 19.2787 -1.502 0.476495 1.90529
22.8072 12.8232 18.342 0.255578 0.652846 -0.190576
20.0043 11.9567 18.2447 1.22159 0.121637 -1.88996
25.61 13.6897 18.4393 -0.974926 -1.86761 -0.333005
24.9133 10.9244 18.8589 1.41636 0.159551 -0.88848
27.7161 11.7909 18.9562 0.767534 -1.069 1.29732
11.2756 15.9336 19.3437 0.277756 1.43976 0.37991
11.0045 17.1046 16.7265 1.8954 1.86699 -0.805559
8.65508 16.4852 18.2774 -0.607687 -0.767809 0.30333
14.5928 18.1474 19.9905 -1.80222 0.373269 0.416983
13.625 16.553 17.7928 1.4565 -0.910998 -2.63411
18.866 15.4498 19.9255 0.0186603 0.793753 1.34255
18.5949 16.6208 17.3083 0.0471592 -0.236529 2.02189
16.2455 16.0014 18.8592 -2.62122 -0.528212 0.351909
19.5627 18.2152 19.5059 0.978339 -1.42606 -1.73858
21.6689 16.3164 20.0228 -1.00209 -0.785402 1.44743
21.3977 17.4873 17.4056 -0.726647 -0.541721 0.266799
20.701 14.722 17.8252 1.55757 2.15402 1.12021
24.4717 17.1829 20.1201 1.08759 0.467846 0.905776
24.2006 18.3538 17.5029 -0.0701214 2.37191 0.21216
26.3067 16.455 18.0198 -1.05731 0.804808 -0.906502
23.5039 15.5885 17.9225 1.45941 -0.215921 0.39647
28.4924 17.2377 19.7281 -0.458528 -0.929862 -0.0632978
28.2213 18.4087 17.1109 0.256511 -0.161588 1.53721
28.4128 14.5562 18.5367 -0.734824 -0.493388 2.23725
30.5986 15.3389 20.245 1.53087 -0.0829484 -1.55591
30.3274 16.5099 17.6278 -1.16181 -0.586673 0.680753
32.5132 17.2926 19.3361 -0.158288 -0.676777 0.0524395
10.3196 20.8449 20.0555 -0.957684 0.459497 0.379628
10.0485 22.0159 17.4383 0.0976511 0.968728 -0.827352
9.35179 19.2505 17.8578 -0.338886 0.299829 -0.725399
15.2895 20.9127 19.5709 -1.80383 2.00904 0.33656
15.0184 22.0837 16.9537 0.608104 2.38214 -2.91166
12.669 21.4643 18.5046 2.20057 -1.22667 2.20757
14.3217 19.3183 17.3733 0.15973 0.806392 -0.915216
11.9723 18.6989 18.9242 0.435892 -0.800768 -0.559677
17.6389 21.5321 18.0201 -1.02218 1.05854 -0.962153
19.2916 19.3861 16.8887 -1.26176 -0.480974 -1.94009
16.9422 18.7667 18.4396 -0.548221 1.57717 -0.724952
20.2594 20.9805 19.0864 0.46152 0.564561 -1.03446
19.9883 22.1514 16.4692 1.09087 1.11538 0.357252
22.3656 19.0817 19.6033 -0.480264 0.370935 2.06966
22.0944 20.2526 16.9861 -0.280165 -0.748677 -0.238163
24.2802 21.0353 18.6944 0.737241 0.776799 1.16688
26.3863 19.1365 19.2113 -0.177567 -1.20633 -2.05327
26.1152 20.3075 16.5941 -0.67562 2.32818 -0.495595
28.3009 21.0902 18.3024 1.60526 1.7537 -1.54597
30.4866 21.8728 20.0107 -0.0148804 1.29581 2.1647
30.407 19.1914 18.8193 0.568123 -0.745003 0.16267
32.3216 21.145 17.9104 -1.88094 -2.22858 1.77654
32.242 18.4635 16.7189 2.34077 -1.44711 -0.361005
34.5074 21.9277 19.6187 -2.10429 -1.13455 -0.312967
34.4278 19.2462 18.4273 0.0837935 0.173114 -0.822584
9.48056 23.5893 19.7857 0.763723 0.472203 0.0899173
9.20943 24.7602 17.1685 0.55098 1.62867 -0.211809
8.6415 26.3337 19.5159 -2.28724 -0.397129 1.11284
14.4505 23.6571 19.3011 0.715765 2.09713 -0.578715
14.1793 24.828 16.6839 -0.920463 0.636463 -1.35171
11.8299 24.2087 18.2348 -1.75793 -0.504015 0.125566
17.071 23.1055 20.3675 0.248084 -0.547935 -0.182367
16.7998 24.2764 17.7503 0.243409 0.924397 1.28755
16.2319 25.8499 20.0976 1.05584 -0.406344 0.754658
19.4204 23.7248 18.8166 -1.45067 -0.583955 -2.13779
22.174 22.9341 18.1775 -0.165905 0.302199 1.66062
21.335 25.6785 17.9077 0.0612581 -0.328705 -0.463926
24.3597 23.7168 19.8859 0.36745 0.786068 0.477445
24.0886 24.8878 17.2687 1.50185 1.06778 0.475417
26.2743 25.6704 18.977 0.321376 0.152213 0.0189644
26.1947 22.989 17.7855 1.13575 0.90942 -0.293367
28.3805 23.7716 19.4939 0.717302 -0.675975 -0.932729
28.1093 24.9426 16.8767 -1.17846 1.07494 1.94516
30.2951 25.7253 18.585 -0.907909 0.0749282 0.0447117
30.2155 23.0438 17.3935 -1.00918 1.98792 0.583378
32.4012 23.8265 19.1019 -1.93652 1.14522 0.636704
32.1301 24.9974 16.4847 1.73735 -0.691741 -1.2506
34.2362 23.0986 17.0015 -2.72879 0.238663 -0.225126
10.9909 26.953 17.965 2.1012 1.06759 1.36225
10.4229 28.5264 20.3124 -0.223022 0.210996 -2.18589
13.6114 26.4014 19.0313 -1.58108 0.375073 -1.1846
15.3928 28.5942 19.8278 0.617788 -0.0198346 1.80979
15.1217 29.7652 17.2106 -0.07321 -0.351003 -0.629801
12.7723 29.1458 18.7615 1.85071 -0.459948 -1.14027
18.5813 26.4692 18.5468 0.616755 -0.833426 1.01096
15.9608 27.0208 17.4804 0.62572 2.03634 -1.84663
17.7422 29.2136 18.2769 -0.461316 1.72386 -0.054896
20.767 27.2519 20.2551 0.163354 0.570747 -0.914535
20.4959 28.4229 17.6379 -0.434804 -2.24792 -0.835267
19.928 29.9963 19.9853 0.78785 -1.20109 -0.823883
22.6816 29.2055 19.3462 -0.488084 -2.20627 -0.814801
23.5207 26.4612 19.616 -0.421873 -2.50494 1.28432
23.2495 27.6321 16.9988 -0.176186 -0.441813 1.23078
25.4353 28.4148 18.7072 -0.465852 -2.21047 1.06612
28.1889 27.6241 18.0681 0.506248 -0.370069 1.43613
14.5538 31.3386 19.558 0.873406 0.445689 -1.03827
16.9031 31.958 18.0071 -0.446624 -0.141515 -1.83991
19.0889 32.7406 19.7155 -0.570912 -0.595027 1.93439
19.6568 31.1672 17.3681 -1.21191 -1.79968 -1.22688
22.4105 30.3765 16.729 1.81176 0.101319 0.159013
21.8425 31.9499 19.0764 0.795121 0.332005 0.34329
24.5962 31.1592 18.4374 -0.348142 -1.29872 -0.689768
26.7819 31.9419 20.1457 -0.586781 -1.90394 -0.643338
27.3499 30.3685 17.7983 2.227 -0.82237 -0.680038
15.1232 9.29982 22.3155 -0.686984 1.24441 1.4725
12.5027 9.8514 21.2491 -0.937043 1.37908 0.805325
17.7437 8.74825 23.3818 -0.281891 -0.197224 -0.31478
17.4726 9.9192 20.7646 0.510706 -1.52534 -1.31675
20.5466 9.61477 23.4791 0.98928 0.481497 -1.17845
22.3816 8.88693 21.3788 -0.811116 -0.787262 0.209868
19.5787 8.0204 21.2815 0.501822 -0.198924 1.41935
23.3494 10.4813 23.5764 -0.344194 0.491345 -0.5842
25.1844 9.75345 21.4761 -0.566129 0.659626 -0.311368
10.85 11.9973 22.3805 -1.16119 -0.809394 0.450436
9.19736 14.1433 23.5118 0.787697 -0.703387 -0.779545
8.22951 12.5489 21.3141 0.513919 0.593137 -0.28971
14.1673 14.2111 23.0272 -0.333627 -1.1848 -0.563083
13.4705 11.4458 23.4468 -0.65892 0.349184 -2.25221
13.1994 12.6167 20.8296 0.529561 -0.283883 0.601027
19.1371 14.2789 22.5427 -1.34814 -0.765507 -0.731905
18.4404 11.5136 22.9622 -0.598231 -2.03574 -1.65095
16.7878 13.6595 24.0936 2.75037 -0.837183 1.29829
15.8199 12.0651 21.8959 1.11427 1.23143 -0.23549
21.2433 12.3801 23.0596 -0.277034 0.580223 0.325741
20.9721 13.551 20.4424 0.696298 0.918127 -0.636637
23.0783 11.6522 20.9592 -0.159242 3.57217 -0.609563
20.2754 10.7857 20.8619 0.293379 2.36344 -1.97616
26.849 14.1131 23.2542 -0.398734 -0.514628 1.81917
24.0461 13.2466 23.1569 0.205053 1.67311 -0.506587
23.775 14.4176 20.5397 -0.700125 -2.16234 -0.296487
26.1523 11.3478 23.6738 -1.04884 -1.25108 0.124288
25.8811 12.5188 21.0565 -0.310406 2.64729 -0.31368
28.9551 12.2143 23.7711 0.234375 0.1954 -1.0788
28.684 13.3853 21.1539 -1.66242 0.340476 -1.51372
30.8697 14.168 22.8622 -2.70014 -0.138099 -1.70822
27.9873 10.62 21.5734 1.58844 0.608481 -0.372477
11.5467 14.7627 21.9609 -0.567269 -3.04001 -0.511882
9.89407 16.9086 23.0922 1.93024 -1.48188 -1.62384
9.62293 18.0796 20.475 1.484 -0.259879 -0.454136
8.92622 15.3142 20.8946 -2.0151 0.0986648 -0.592152
14.864 16.9764 22.6077 -1.36751 1.77237 -0.203617
13.8961 15.382 20.41 0.0402908 0.833705 -0.119904
12.5146 16.357 24.1586 0.877656 -0.930221 2.7068
12.2434 17.528 21.5414 -0.455856 -1.38647 -0.10195
17.4845 16.4248 23.674 0.597101 0.647207 -1.57081
17.2133 17.5958 21.0568 -0.924903 -1.2664 1.54023
16.5166 14.8305 21.4764 -1.2869 0.455972 -0.241349
22.6367 17.9107 22.2205 1.08131 1.64073 -1.82807
19.8339 17.0442 22.1232 -1.41213 -0.463106 -0.659475
21.94 15.1454 22.64 -0.131862 -0.841926 0.165603
24.7428 16.0119 22.7373 -0.327966 -0.289492 0.264868
26.6574 17.9656 21.8285 -0.590444 0.616445 2.04102
26.5778 15.2841 20.637 -0.633589 -0.170416 0.653603
28.7636 16.0668 22.3453 0.834057 1.32779 1.31821
30.6782 18.0204 21.4365 -2.40416 -2.87789 0.326942
30.9493 16.8495 24.0537 -0.403432 0.433598 1.08885
32.7843 16.1216 21.9533 0.21962 -2.56126 -0.0717326
34.6989 18.0753 21.0445 -0.979839 1.93372 -1.17994
10.5908 19.674 22.6727 1.16907 0.508716 2.25071
13.2113 19.1224 23.739 1.30014 1.98089 -0.498044
12.9401 20.2933 21.1218 -0.0587066 -1.64878 -0.327933
12.3722 21.8668 23.4692 1.63001 0.360641 2.012
18.1812 19.1902 23.2545 0.079605 -0.150066 1.15046
17.91 20.3611 20.6373 0.424212 0.0595011 -0.374286
15.5607 19.7417 22.1882 -1.64907 0.107348 -1.05284
17.3421 21.9345 22.9847 -0.875733 -0.13383 1.74843
20.8017 18.6386 24.3208 -0.19512 1.68644 -1.53912
20.5306 19.8095 21.7036 -1.67667 1.39426 0.419211
19.9626 21.3829 24.051 -0.644576 0.0512304 -0.181439
22.7163 20.5922 23.4119 1.12291 -0.350698 0.343684
22.4452 21.7632 20.7947 -1.19815 0.42632 0.523235
24.8224 18.6934 23.9288 0.996671 1.04587 -0.111908
24.5513 19.8644 21.3116 0.0631025 -0.696518 1.40441
26.737 20.6471 23.0199 1.39081 0.174323 -1.1648
26.4659 21.818 20.4027 -1.49708 0.319709 -1.15629
28.8432 18.7483 23.5368 2.37991 1.75288 1.29091
28.572 19.9192 20.9196 -3.28655 -0.983489 0.441864
30.7578 20.7019 22.6279 0.509354 -0.117505 1.69259
32.8639 18.8031 23.1448 -0.655 1.27757 1.95272
32.5928 19.974 20.5276 -0.597136 0.434017 0.784554
34.7785 20.7567 22.2359 -0.274995 -1.16978 -0.450394
9.7517 22.4183 22.4029 0.49259 1.10509 -1.00071
11.5331 24.6111 23.1994 -0.00918441 -1.81459 -1.00283
11.262 25.7821 20.5822 -0.985004 0.35205 -0.0966128
8.91264 25.1627 22.1331 -0.203321 1.25679 -0.286933
14.7216 22.4861 21.9183 0.758028 -1.19098 0.342277
12.1011 23.0377 20.852 1.17462 0.466301 0.796194
14.1537 24.0595 24.2657 0.0651604 0.130805 0.697837
13.8825 25.2305 21.6485 1.68881 1.61432 0.0785103
19.1236 24.1273 23.7812 0.802383 1.50524 -0.050978
18.8524 25.2983 21.164 -0.27891 -0.386603 0.0442727
16.5031 24.6789 22.7148 -2.87836 0.667346 -1.67503
19.6915 22.5539 21.4338 0.991051 0.580524 1.13601
21.8772 23.3366 23.1421 -1.18518 -0.379939 -1.43428
21.6061 24.5075 20.5249 0.658041 -0.589235 2.3606
21.0382 26.081 22.8723 1.27287 0.0994945 1.82543
24.6309 22.5458 22.5031 3.51326 -0.622867 0.458703
23.7918 25.2902 22.2332 -0.564985 -0.781189 -0.450933
26.8166 23.3285 24.2114 0.811662 1.95326 0.674859
26.5455 24.4995 21.5942 -0.888601 -1.75083 0.265155
25.9775 26.0729 23.9416 0.818723 0.252685 -0.0656371
28.7312 25.2822 23.3025 -1.66897 0.512127 0.617155
28.6516 22.6007 22.1111 0.608425 0.0499463 0.970267
30.8373 23.3834 23.8194 2.50858 -1.53555 -1.76826
30.5662 24.5543 21.2022 0.732564 0.0215592 0.163848
32.6723 22.6555 21.7191 -1.86845 -0.616753 0.654785
10.6941 27.3555 22.9296 -1.12565 3.12822 -2.54851
8.07356 27.9071 21.8632 -0.528778 -0.157377 0.49684
9.85502 30.0999 22.6598 -0.846086 -0.850009 0.491504
13.3146 26.8039 23.9959 -0.497693 2.8169 0.670794
13.0435 27.9749 21.3787 -1.75085 1.13674 1.42414
14.8249 30.1676 22.1752 1.82608 -0.44679 -0.881862
12.4755 29.5483 23.7261 -0.0506178 -1.06475 1.4851
18.2845 26.8717 23.5114 0.485463 -1.07219 1.12051
18.0134 28.0426 20.8941 1.23528 -1.0056 -0.726115
15.664 27.4233 22.445 1.93875 -1.52956 -1.7176
17.4454 29.6161 23.2415 -0.19961 2.06056 1.24069
20.1991 28.8253 22.6025 -0.388018 2.43164 0.9716
22.9527 28.0346 21.9634 0.41521 -0.0230939 0.343944
22.3848 29.608 24.3108 -0.919312 -2.13433 0.207818
25.7064 27.2439 21.3244 -1.49786 -0.441096 0.895892
25.1385 28.8173 23.6718 -0.6755 0.167895 -1.63157
24.8673 29.9882 21.0546 -0.689504 -2.06519 -0.761937
28.4601 26.4531 20.6853 -0.634287 -1.09006 -0.767946
27.8921 28.0265 23.0327 -1.39332 1.00425 0.872279
27.621 29.1975 20.4155 0.92357 -1.13789 -0.392482
12.2044 30.7192 21.1089 -1.23843 0.238836 1.36624
17.1743 30.787 20.6243 0.955132 -1.9052 -1.29934
19.36 31.5697 22.3327 -0.494719 1.01004 -1.44897
22.1137 30.779 21.6936 -0.240821 2.41704 -1.11562
21.5457 32.3524 24.041 0.357272 1.52893 0.0743097
21.2746 33.5233 21.4238 -1.22944 -0.0246416 -1.58677
24.2994 31.5616 23.4019 2.14165 -0.18617 0.0348641
24.0283 32.7326 20.7847 -0.997384 0.851375 -1.06646
23.4603 34.306 23.1321 -0.098743 -0.756788 0.0554079
26.214 33.5153 22.4931 -0.657912 2.70518 0.421487
27.0531 30.7709 22.7629 -0.226115 -1.3044 0.624142
18.7116 10.3426 25.5795 0.424603 0.0913189 0.019257
14.4384 13.0401 25.6444 0.759195 0.291555 -0.185142
11.8179 13.5917 24.5781 1.05148 0.729173 -1.59215
17.0589 12.4886 26.7108 0.480842 0.590182 -1.27288
16.0911 10.8942 24.5131 -0.0195138 -1.45122 -1.08327
22.4823 12.8035 27.8744 -0.42188 -0.130522 2.87313
22.2111 13.9745 25.2572 -0.344675 2.07223 0.120259
19.6794 11.937 27.7771 1.50501 2.16115 0.581914
19.4083 13.1079 25.1599 -0.104971 -0.954051 -2.03788
21.5144 11.2091 25.6768 -1.69986 -1.07824 0.705468
25.2851 13.67 27.9717 -0.990019 0.0767456 1.3458
24.3173 12.0757 25.7741 -0.663432 1.37832 0.492441
27.1201 12.9422 25.8714 1.00078 -1.14269 -0.109217
11.133 17.3321 27.9071 2.54905 -0.425566 0.356401
10.1652 15.7376 25.7094 -0.747345 -0.839729 0.304461
13.4824 17.9514 26.3562 -0.786028 0.402308 0.00330999
15.4062 14.6345 27.8421 0.122929 0.184139 1.00653
15.1351 15.8054 25.2249 2.18946 1.24456 0.133991
12.7857 15.1861 26.7758 1.01985 -1.79263 -0.511471
18.4523 18.0192 25.8717 0.745666 0.0283713 0.565137
16.1029 17.3998 27.4226 0.420266 0.582952 1.51507
17.7556 15.2539 26.2912 -0.0583022 -1.22799 -0.774157
21.0728 17.4676 26.938 1.81666 -0.704929 -0.331496
22.9078 16.7398 24.8377 0.304121 -1.83619 0.196704
20.3761 14.7023 27.3576 -2.01822 -0.276082 -1.98726
20.105 15.8733 24.7404 -0.541594 0.472231 -1.96021
23.179 15.5688 27.4549 2.4004 -1.05664 -0.541324
25.0936 17.5225 26.546 -0.859652 -2.07334 -0.278893
25.014 14.841 25.3545 -0.259715 -1.11201 0.83435
26.9286 16.7946 24.4457 -0.975773 0.992254 1.76045
27.1997 15.6237 27.0629 0.657343 -0.792893 -0.636251
29.1143 17.5773 26.154 -0.756747 -0.174912 1.55455
29.0347 14.8958 24.9625 -0.995469 -1.05299 -0.739011
10.8619 18.503 25.2899 0.910353 0.231021 -2.15424
10.294 20.0764 27.6373 0.00856717 -0.413524 -0.597362
10.0228 21.2474 25.0201 -0.3137 -0.145293 -0.479748
15.2639 20.1442 27.1527 0.0255164 1.70932 1.99996
14.9927 21.3152 24.5355 0.741619 -0.249019 0.325499
12.6434 20.6958 26.0864 4.41323 -1.00027 0.432228
15.8318 18.5708 24.8054 -0.179829 -0.561114 -0.679907
17.8844 19.5926 28.2191 0.173644 -1.30086 0.724378
17.6133 20.7636 25.6019 0.0105291 -0.1619 -0.383296
17.0453 22.337 27.9492 -0.889172 -1.29004 -1.15264
20.2338 20.212 26.6682 -0.823589 2.12313 -2.39926
22.9874 19.4213 26.0291 -1.76714 -1.12366 1.20371
22.1484 22.1656 25.7593 -0.415385 0.0103718 0.882326
25.1732 20.2039 27.7375 0.612065 -0.442808 1.77767
24.902 21.3749 25.1203 0.874045 0.167334 0.990182
27.0082 19.4761 25.6371 0.104809 0.425824 -0.660644
27.0877 22.1576 26.8286 0.330817 0.858501 0.711279
29.1939 20.2588 27.3455 1.13264 0.756364 0.302179
28.9228 21.4297 24.7283 -0.594756 0.731011 0.538943
31.1085 22.2124 26.4366 -0.0740704 -1.00241 0.818142
31.0289 19.5309 25.2451 -0.144329 0.258081 -1.06097
32.9435 21.4846 24.3363 0.0864572 0.107906 0.438439
9.45491 22.8208 27.3675 1.22747 -0.648637 -0.653916
9.18378 23.9918 24.7503 -1.83473 0.633866 -0.224305
11.2364 25.0136 28.164 0.21684 0.557964 0.829095
10.9652 26.1845 25.5468 0.401352 -1.32225 -1.23154
8.61584 25.5652 27.0977 -0.221669 -1.12521 0.227406
14.4248 22.8886 26.8829 -0.740912 -0.0342382 0.301643
11.8043 23.4402 25.8166 -0.962852 0.206331 -1.84023
13.5857 25.633 26.6131 1.07419 0.452531 0.360794
16.7742 23.508 25.332 1.67444 -0.963184 0.677299
18.5556 25.7007 26.1286 -1.12139 0.357 -0.538608
16.2062 25.0814 27.6794 -0.19543 0.747179 1.15059
15.9351 26.2523 25.0622 1.40396 -0.614408 -0.964062
19.3947 22.9564 26.3984 -0.379586 -0.501391 -1.49179
21.5804 23.739 28.1067 1.12142 2.42926 -0.61261
21.3093 24.91 25.4895 -1.50438 -0.0544813 -3.16407
24.3341 22.9483 27.4677 0.382027 0.953751 0.24175
24.0629 24.1193 24.8505 -0.489006 -2.42235 -2.44177
23.495 25.6927 27.1978 1.33271 0.676191 0.0498849
26.2487 24.902 26.5588 0.845257 -0.770142 -0.929643
29.0023 24.1112 25.9197 0.658834 1.14886 0.0920078
8.3447 26.7361 24.4804 -1.60111 0.834384 -0.20443
10.3973 27.758 27.8942 1.70002 1.08258 -1.22711
10.1262 28.9289 25.277 -0.782123 1.44382 0.703586
15.3672 27.8257 27.4096 -0.92736 0.574243 1.21716
15.096 28.9967 24.7924 0.142157 0.0952175 0.547234
12.7467 28.3773 26.3433 -0.52873 -0.136079 -0.968175
17.7166 28.4451 25.8587 -1.16292 -1.05498 -0.447365
20.7414 26.4834 27.8369 -1.37798 2.57749 0.915406
20.4702 27.6544 25.2197 0.761152 0.333475 -1.79263
19.9023 29.2278 27.5671 0.0999583 0.625754 -2.61521
22.656 28.4371 26.928 0.965223 -0.806712 0.080164
23.2239 26.8636 24.5806 0.587968 -2.19151 1.50867
25.4096 27.6463 26.289 0.359089 1.07337 -0.658402
28.1633 26.8556 25.6499 0.161824 1.69679 -0.0980709
27.5953 28.429 27.9973 0.633299 -0.57234 -0.89485
27.3242 29.6 25.3801 -0.177221 -0.673017 0.390539
19.6312 30.3987 24.9499 -2.21382 0.288942 2.04681
21.8169 31.1814 26.6582 0.0569015 -1.23764 0.200289
24.5705 30.3907 26.0191 0.746961 0.750035 1.44368
23.7315 33.1351 25.7493 -0.606611 -1.4758 -0.574462
26.7563 31.1734 27.7275 0.238948 -1.06731 -2.67107
26.4851 32.3443 25.1103 1.09337 0.57806 -0.156604
18.0268 14.0829 28.9084 0.81067 -0.145249 0.153288
20.6473 13.5313 29.9748 0.0529008 -0.233537 -0.392961
23.4501 14.3979 30.0721 1.65575 -0.627172 0.0166909
13.7536 16.7805 28.9734 -0.534617 0.497363 0.880418
18.9946 15.6773 31.1061 -1.4598 -0.339161 0.475117
18.7235 16.8482 28.4889 0.790942 -0.209938 -0.14621
16.3741 16.2289 30.0398 0.530841 0.179879 1.73731
18.1555 18.4217 30.8363 1.70536 -0.490694 -0.382413
21.6151 15.1257 32.1724 1.04245 0.473856 0.973591
21.344 16.2967 29.5552 0.868577 0.239408 -0.0527677
20.776 17.8701 31.9026 2.01473 -0.303649 0.51898
23.5297 17.0794 31.2635 -2.23833 -0.349665 -0.337747
23.2586 18.2503 28.6463 -1.8883 0.424388 -0.226858
25.3647 16.3515 29.1632 -0.995624 0.227935 0.517002
27.2793 18.3051 28.2543 1.42632 -0.486572 -1.99869
12.9145 19.5248 28.7036 0.701851 -0.470521 -0.976381
14.6959 21.7176 29.5001 -0.99874 -1.4319 0.977177
12.0754 22.2692 28.4338 0.281043 -0.845532 -0.101806
15.535 18.9733 29.7699 1.04576 0.377377 -1.0851
17.3165 21.166 30.5665 -0.217765 -1.35501 1.33492
20.5049 19.041 29.2854 0.829929 0.521272 -0.923659
19.937 20.6145 31.6328 0.190588 1.23948 0.708561
19.6658 21.7854 29.0156 1.18645 0.556935 1.24737
22.6906 19.8237 30.9937 0.577823 0.234875 -1.27776
22.4195 20.9947 28.3765 -0.382632 -0.637822 -1.40367
25.4443 19.033 30.3547 -0.288518 1.43874 1.11022
24.6052 21.7774 30.0849 2.96664 -0.685788 0.385245
27.3589 20.9866 29.4458 0.432128 0.292174 -0.723222
13.8569 24.462 29.2303 0.670055 -1.84695 0.19662
19.0979 23.3588 31.363 -2.61326 0.548972 0.787856
18.8268 24.5298 28.7458 0.010528 0.190301 -1.56848
16.4774 23.9104 30.2966 1.79307 -0.17236 -0.50209
18.2588 26.1032 31.0931 -0.0314165 -0.519249 -0.872313
21.8516 22.5681 30.7239 -1.68082 0.0989942 -0.980269
21.0125 25.3125 30.4541 0.820936 0.768837 0.199756
23.7662 24.5217 29.815 0.856802 0.0197675 1.95515
26.5198 23.731 29.176 0.00607612 -2.59685 1.347
29.2735 22.9403 28.5369 -1.24287 1.05631 1.73367
28.4344 25.6846 28.2671 -0.718861 -2.47147 -1.59091
13.0178 27.2064 28.9605 -1.21867 -1.05802 0.404181
17.9877 27.2742 28.4759 0.125778 1.27604 0.865443
15.6383 26.6548 30.0268 -1.31636 -0.100416 -0.376834
20.1734 28.0568 30.1843 0.182 0.512824 -0.786228
22.9271 27.2661 29.5452 -0.624349 0.0747217 1.70705
22.088 30.0105 29.2754 -0.566277 -2.03594 -2.29768
25.6807 26.4754 28.9062 -0.437651 0.216227 -0.0948374
24.8417 29.2197 28.6364 -1.26573 1.42211 -0.455189
24.0026 31.9641 28.3665 -2.03252 -1.58899 -1.17905
ITEM: TIMESTEP
1000
ITEM: NUMBER OF ATOMS
550
ITEM: BOX BOUNDS ss ss ss
8.0972420130708826e+00 3.4170887944127031e+01
7.0588947162656019e+00 3.3601023533998578e+01
8.4455313826284577e+00 3.2209281584890093e+01
ITEM: ATOMS x y z vx vy vz
22.3854 9.44921 12.1011 -1.35319 -0.610336 -1.26017
25.0912 10.1591 12.3259 -1.17679 -0.547026 0.252903
14.2701 14.4741 11.811 0.783903 1.79101 0.907421
18.4579 13.2626 10.6025 1.94513 1.1341 -0.841578
21.3864 13.8488 10.7908 -0.288868 -0.368605 0.656643
20.5493 11.4304 11.3095 -1.33631 0.447268 -0.33745
24.1023 14.5217 10.9656 -0.968258 -1.06323 0.607152
25.9403 12.6808 11.711 -0.509223 -0.697 -0.43491
23.4302 11.821 11.3595 0.860336 1.29326 0.410624
14.876 17.0734 11.2805 0.473423 0.0478928 2.75244
17.3919 16.316 12.266 -0.0141514 -0.666256 3.72335
17.1807 17.7594 9.72566 -0.305437 1.34282 -1.33251
19.1896 15.7867 10.2047 0.869528 -0.208846 -0.0972074
16.5365 15.0282 10.1579 -2.36648 0.0701144 0.10351
19.7993 18.4155 9.95293 -0.408586 0.910538 -0.637695
21.9322 16.5826 10.4518 -0.981001 0.835683 0.372751
24.606 17.3014 10.3995 -0.444065 -0.702586 1.11888
26.7038 15.3055 11.1091 0.214004 -0.321251 -1.70714
27.2231 18.1632 10.5431 1.95651 -0.494177 2.26144
13.927 21.8007 11.9186 2.09729 0.0101 -0.0226427
18.6894 22.0423 11.6236 0.829478 -1.20286 -0.515236
18.0849 19.1416 11.9831 -0.700542 -1.69339 1.51878
17.7397 20.3533 9.6769 1.01735 -0.513795 1.27014
16.0619 22.4909 10.4098 0.80878 -0.996939 0.111147
15.4454 19.5882 10.9493 0.258935 0.888464 0.684739
20.7513 20.0462 11.969 0.966591 -1.38854 -0.445207
20.311 21.1508 9.46873 0.412979 1.24099 0.328927
22.5825 19.4047 9.93973 2.28894 1.63974 -0.519364
23.5011 20.8185 12.1727 0.117052 -0.0152242 0.274959