ITEM: TIMESTEP
0
ITEM: NUMBER OF ATOMS
55
ITEM: BOX BOUNDS ss ss ss
1.5018164562272911e+01 2.5771835437727088e+01
1.5128822386838578e+01 2.5661177613161421e+01
1.5107410961039818e+01 2.5682589038960181e+01
ITEM: ATOMS x y z vx vy vz
20.1026 17.764 19.2481 -0.161963 1.65442 -1.22184
17.7086 19.3595 20.21 -1.76914 1.33007 0.919457
19.2435 20.2598 17.7532 1.39663 0.274808 0.83341
19.8102 15.1329 18.1013 -1.07746 0.857415 -0.347586
15.0222 18.3239 20.025 1.19748 -0.404492 1.59784
18.0919 20.1245 15.1115 1.93642 -0.879248 0.945436
17.4162 16.7284 19.0631 1.22356 1.48276 -1.2831
18.951 17.6287 16.6064 -0.670722 -0.0586832 2.76127
16.5571 19.2242 17.5682 -0.455894 -1.27953 0.280339
22.189 19.7209 18.2385 -0.130721 0.501009 0.343313
23.9829 19.0468 16.082 -1.06585 2.00271 -2.51712
24.2685 17.8134 18.8387 1.21954 -0.607643 -1.04995
21.8966 17.0898 17.0917 1.60191 -0.170577 -0.573174
21.0374 19.5856 15.5968 -0.177016 -0.674654 -0.169452
22.1822 15.8565 19.8483 -2.03486 -0.338151 -1.66291
18.3154 22.3025 19.7948 0.814904 -0.383089 0.0474586
16.2359 24.2099 19.1946 0.90962 0.318785 1.3804
19.0049 24.4333 17.9762 0.53852 -1.27037 1.83099
15.6291 21.2669 19.6098 -1.59551 -0.794685 -0.255702
17.1639 22.1672 17.1531 0.792109 -2.00369 -1.60356
19.9329 22.3906 15.9346 -1.64136 0.17233 0.637429
21.0845 22.5258 18.5764 0.325017 0.394257 -1.14384
21.7739 24.6567 16.7578 0.621362 -1.0589 0.969051
23.7708 23.5614 18.7614 -0.683202 -1.36893 -0.325877
21.3769 25.1569 19.7232 -3.2028 -1.98991 -0.589594
24.8753 20.7564 18.4235 -1.99993 -1.30771 1.16893
22.8784 21.8517 16.4199 0.952177 -0.713071 0.272559
19.7055 18.2642 22.2136 -1.22782 1.41355 1.42122
19.0161 16.1333 24.0322 1.35206 0.780398 -0.347405
19.4131 15.6331 21.0668 0.201427 0.958931 -0.2696
17.0192 17.2286 22.0286 -0.561543 -0.0655798 -1.26717
15.9147 20.0336 22.3665 -1.23804 -0.594676 -1.56521
17.9116 18.9383 24.3701 0.557988 1.06661 -0.678182
22.4746 18.4875 20.9952 -1.40834 -0.276987 0.771557
24.5541 16.5801 21.5954 -0.444561 0.227306 0.0515603
25.1609 19.5231 21.1802 -1.18891 0.591011 0.509647
23.6261 18.6228 23.6369 0.106375 0.601741 1.91414
21.7851 16.3567 22.8138 -0.270544 0.697441 -1.65278
20.8571 18.3994 24.8554 -0.921944 -0.2707 -0.974391
18.601 21.0691 22.5515 0.973144 0.104709 0.899426
16.8071 21.7432 24.708 -1.30856 -0.473459 -2.0009
18.6078 24.9335 20.9417 0.796953 2.13253 -0.383555
18.8934 23.7002 23.6983 1.95948 -0.507993 0.0460091
19.7526 21.2044 25.1932 2.93238 -0.830531 -0.40918
16.5215 22.9766 21.9513 0.37913 -2.06176 0.449804
20.395 20.395 20.395 1.20626 0.47675 1.27126
23.0814 21.4305 20.58 0.983453 0.315497 -0.10589
20.6874 23.026 21.5419 2.0087 -0.715449 -0.388365
21.5465 20.5302 23.0368 1.35019 1.36887 0.497499
25.7678 22.4661 20.765 0.0766697 -0.0147567 0.945929
20.9798 25.6571 22.6887 0.458843 0.206952 -0.663793
22.6981 20.6655 25.6785 0.336558 -0.0348437 0.558663
23.3738 24.0616 21.7269 0.0470785 0.524993 1.02676
24.2329 21.5658 23.2218 -2.19826 -0.0683298 -0.520443
21.839 23.1613 24.1836 -1.82099 0.762539 -0.380782
ITEM: TIMESTEP
1000
ITEM: NUMBER OF ATOMS
55
ITEM: BOX BOUNDS ss ss ss
1.5018164562272911e+01 2.5771835437727088e+01
1.5128822386838578e+01 2.5661177613161421e+01
1.5107410961039818e+01 2.5682589038960181e+01
ITEM: ATOMS x y z vx vy vz
20.277 18.2149 19.2724 -2.35924 0.895442 -0.24737
18.0499 19.4893 20.2447 2.55 -2.35515 -1.65507
19.1749 20.3276 17.9386 0.66018 -0.348588 2.86787
19.9299 15.6119 18.3458 0.276846 1.64617 1.95559
15.6468 18.0905 20.139 3.30433 3.61255 -2.27535
18.8118 19.7579 15.2676 -0.860239 1.26251 2.24359
17.6255 17.1263 19.0867 1.45539 -1.37212 -0.245592
19.0585 17.8273 17.0283 0.958157 0.325927 -1.04812
16.6733 19.5336 17.7832 0.297875 -0.850452 0.727355
22.0923 19.6634 18.4398 -1.31024 2.61324 3.80613
23.4195 19.205 16.0853 1.83057 -2.54707 2.56689
24.1951 17.9336 18.8379 -0.345306 2.64848 3.41394
21.6288 17.0271 17.3744 -2.3419 1.92277 -3.6083
21.0553 19.5113 16.0995 0.896745 -0.792339 -0.783923
22.2042 16.0103 19.9797 -0.472763 -0.271901 -1.66047
18.4932 22.0906 20.0464 3.07274 1.97426 -0.59675
16.5496 24.1525 19.7238 3.42403 -4.01373 -1.08396
18.6941 23.9049 18.278 2.27102 -2.27446 -2.41171
15.5395 21.171 19.7149 0.768104 -0.517326 1.67619
16.9869 22.1871 17.7597 -1.25463 2.20517 -0.390326
20.1851 21.9131 15.9469 -0.0216701 -1.79206 0.577352
20.9405 22.3172 18.405 -4.59034 -2.34814 4.32925
22.4795 24.2776 17.046 -1.10332 -2.45917 -0.568681
23.486 23.4735 19.0982 1.8671 -0.323188 0.555568
21.1768 24.7747 19.4658 0.271124 0.470697 1.98619
24.6477 20.6128 18.5064 -1.85856 0.742159 -0.490272
22.8799 21.783 16.7169 1.37782 1.0758 0.180835
19.8719 18.6738 21.8988 2.67872 1.45206 -0.571971
19.0779 16.6218 23.4874 0.294262 2.66298 -0.739989
19.4966 16.0748 20.897 0.461766 -1.118 0.0334067
17.1533 17.2455 22.0148 -1.53435 2.65047 0.422275
16.2268 20.0476 22.1282 1.74632 2.56213 3.99235
18.0059 19.0293 24.0671 -3.83389 -0.777335 -0.629713
22.3572 18.7403 20.8762 0.158832 1.25291 0.37207
24.0311 16.8541 21.6365 -0.702915 2.45649 -1.97218
24.8535 19.7079 21.1131 2.1578 -2.08607 -0.077667
23.4364 18.6848 23.3614 -0.240827 1.34987 -0.214819
21.5112 16.7047 22.6274 1.50452 0.062984 2.51653
20.6893 18.525 24.5349 -1.64147 -0.637636 0.117391
18.8233 20.95 22.2704 0.364193 -2.68262 -2.42157
17.19 21.758 24.1756 0.0117129 0.273638 -2.63197
18.7807 24.6855 21.2225 -2.70165 -1.00084 3.62635
19.2045 23.5392 23.6435 -1.13211 -0.242046 0.852453
19.6617 21.1092 25.0455 3.15999 0.860498 2.40816
16.5429 22.8168 21.8485 -0.461683 -1.5982 3.86712
20.5328 20.5433 20.344 -1.40869 0.485858 -5.1301
22.7537 21.4253 20.4471 -2.36794 -2.72789 0.94303
20.6698 22.6595 21.5355 -2.10934 -0.323591 -3.01027
21.4126 20.7669 22.9326 -0.600786 0.065569 -4.16297
25.2082 22.24 20.6326 -1.89109 0.479295 -0.792725
20.8654 25.1661 22.3098 2.41556 -3.44178 -0.353011
22.5973 20.3822 25.335 -2.21171 -0.285806 -4.9009
23.2042 23.9913 21.6119 2.82342 0.844827 -1.35402
23.7808 21.6962 22.8916 -2.43789 1.57952 0.624486
21.8845 23.0979 24.2051 -1.26459 -1.24672 -0.632596
ITEM: TIMESTEP
2000
ITEM: NUMBER OF ATOMS
55
ITEM: BOX BOUNDS ss ss ss
1.5212396635337859e+01 2.5422685055282354e+01
1.5915319727236277e+01 2.5223208409855367e+01
1.5599528716749981e+01 2.5342186557873987e+01
ITEM: ATOMS x y z vx vy vz
20.1468 18.0665 19.0009 -1.19998 -3.32768 1.01887
17.9651 19.1794 20.1818 -2.76831 1.28665 2.04041
19.933 15.5163 18.5129 -0.845923 1.99529 -1.24511
15.3712 18.2507 19.8742 -2.51827 0.255395 -1.58042
18.0399 20.2422 15.562 -3.1537 1.29301 2.08186
17.691 16.7546 18.9438 2.34335 -0.560123 1.63619
19.1475 17.8156 16.3736 -0.567019 -3.45162 0.143891
16.5701 18.8545 17.7656 0.545662 -0.944678 -0.978204
22.3223 19.6517 18.438 -0.3884 -0.534945 -0.530896
23.7966 18.9499 16.5526 1.53974 -4.53586 2.34475
24.2239 18.0845 18.773 1.0943 -0.833824 -3.87608
21.8605 17.375 16.9737 1.47465 -0.499001 -1.82759
20.9766 19.9284 16.0328 -1.28419 0.132037 -2.45682
22.1005 15.7258 19.6858 0.798058 1.38029 1.86553
18.7529 20.5275 17.7969 -3.23572 0.765933 -4.42297
18.3 22.1499 19.9247 2.06355 -2.10923 0.77109
16.4776 23.8068 19.1967 -3.24792 0.835851 -1.9994
19.0966 23.9677 17.677 3.69383 3.35635 0.234185
15.9176 21.1011 19.689 2.59194 -1.52957 -0.546392
16.2188 21.9841 17.5506 2.03589 -0.437958 -4.57143
19.9108 22.4388 15.9299 1.79782 2.00928 -0.633608
21.0342 22.6987 18.6208 0.611403 1.69191 2.52056
22.5177 24.0235 17.0805 -3.04587 1.30587 0.64489
23.9159 23.209 18.8347 -0.468449 0.607213 0.744983
21.878 25.2039 19.6547 0.987447 1.16035 1.13179
24.9438 20.8467 18.3904 3.00869 -0.55153 1.13083
22.6393 21.736 16.6193 -2.04426 4.60294 -0.766142
20.5289 20.4792 20.1563 -1.39525 -0.867011 -2.66033
19.8207 18.1512 22.0467 -1.11351 -1.71874 2.08227
19.2687 16.5374 23.947 -0.598807 1.17912 0.391574
19.6791 15.6605 21.1592 2.721 1.62679 1.18676
17.371 17.3364 22.2929 0.695396 -0.696132 -1.16006
16.0785 20.3353 22.3175 0.390854 0.756819 2.01801
17.9312 19.2349 24.113 0.240341 -1.17686 1.73086
22.397 18.4062 20.783 -2.72439 -1.56885 0.679648
24.1642 16.9343 21.0892 1.1138 -1.24173 -2.38701
25.1615 19.4873 21.4225 -1.02815 -1.39159 0.860789
23.4995 18.8016 23.4682 0.675694 1.66824 -0.148394
21.7467 16.6058 23.0022 -0.456552 -0.0630129 -0.764979
20.7145 18.6024 24.721 0.65319 2.08196 -0.192227
18.5951 20.8095 22.559 1.18848 0.423974 3.07133
16.9473 22.2368 24.4264 3.88894 1.22449 2.28097
18.6055 24.934 20.4901 1.93733 1.84544 -4.64114
19.0301 23.5437 23.9482 -1.37699 -0.0346206 0.151099
19.6877 21.2079 25.1878 1.3421 -1.85779 -1.46837
16.7812 23.0522 21.9959 1.84791 -2.1968 2.9451
22.8863 21.6197 20.6898 0.543316 0.0183866 -0.706882
20.317 23.1225 21.8223 -2.30755 -1.78758 -2.9478
21.4524 20.4319 22.8527 -3.58372 1.37499 3.36056
25.5445 21.8736 20.566 -0.599688 2.61914 2.38798
20.6863 25.2794 22.3944 -1.03717 -1.71794 1.08282
22.5333 20.4695 25.2167 -0.876078 1.61925 0.752986
23.0742 23.9492 21.9062 1.66643 -3.08504 -2.1852
23.8908 21.7007 23.1036 -2.7173 0.396888 0.414241
21.5832 22.8331 24.4114 1.09204 -0.794132 0.990629
ITEM: TIMESTEP
3000
ITEM: NUMBER OF ATOMS
55
ITEM: BOX BOUNDS ss ss ss
1.5132207346725460e+01 2.5339823196028394e+01
1.5444963737448079e+01 2.5099962918991274e+01
1.5433835176929261e+01 2.5011300158328503e+01
ITEM: ATOMS x y z vx vy vz
19.9991 17.6305 19.1138 1.87412 0.127922 2.38318
17.835 18.8896 19.9318 2.88564 1.18885 1.3352
19.9899 15.2117 18.3903 1.74921 -2.27614 0.919287
15.0647 18.4214 19.619 1.81838 -3.06526 -3.19872
18.1477 20.1774 15.6548 0.737129 1.31907 -0.157157
16.997 16.722 19.0531 -0.507133 1.70707 0.54216
19.0639 17.5424 16.8963 -0.302961 0.944135 -0.765136
16.8646 18.9407 17.7994 -1.76572 -0.642283 0.233009
22.0089 19.2596 18.2209 1.03741 0.610902 -0.696265
24.0373 19.4506 16.1571 1.67202 -4.03249 1.55144
24.2733 17.967 19.0056 -0.189881 1.9919 -2.0724
22.0033 16.9694 17.4433 0.477009 0.760943 -1.05488
20.922 19.837 15.8592 0.939902 1.23468 0.0237053
22.093 15.7066 20.0326 0.291716 -2.06199 -0.902119
19.4678 20.3032 17.7832 0.771961 1.46943 -0.180278
18.2753 21.9329 19.9696 2.06267 -1.82268 -0.639489
17.1838 24.0534 19.6011 -2.32125 -0.828629 -5.0067
19.3362 24.2494 18.262 -2.65263 -2.50606 2.67772
15.7957 20.8502 19.5678 3.15263 -0.223408 -1.39023
17.4335 22.0959 17.4998 0.344619 1.85864 2.44291
19.4251 22.6676 16.1101 -5.03519 0.762882 1.03288
18.9285 24.5499 21.5424 0.380393 0.524987 1.79196
21.0519 22.5659 18.3621 -1.08941 -3.47057 0.963459
21.4097 24.3365 16.5328 0.514445 2.13381 4.93491
23.5169 23.1758 18.935 -1.09251 1.40819 -0.509594
21.5577 24.9934 19.6186 0.247327 -0.794076 -1.23108
24.5446 20.6323 18.2711 0.681662 -2.68637 1.34651
22.9173 21.8296 16.7557 -0.968636 -1.31041 -2.12462
20.1477 20.381 20.2111 -0.722917 1.23735 1.48898
19.5096 18.4752 22.1433 -3.14787 -0.667878 -1.40394
18.8717 16.652 23.7552 -1.05997 3.14154 -0.121425
19.589 15.8802 21.557 -0.741931 1.17442 -0.385163
16.9444 17.6411 21.9564 1.03514 -0.0695055 3.38754
16.3175 20.2721 21.854 0.571464 -0.907505 -0.495369
17.9398 19.4296 24.1306 0.415753 0.423472 -0.728114
22.1478 18.1973 20.6606 0.13958 -0.730846 -1.53491
24.6066 16.9931 21.4081 0.582545 1.56456 0.191504
24.9676 19.8877 21.2915 -4.38855 0.299475 -0.861984
23.5993 18.9543 23.28 -0.161971 1.69531 -0.617662
21.9369 16.7319 22.6994 -0.0868181 1.92206 -1.78225
20.5506 18.7206 24.5386 -1.10437 1.31189 -0.133692
18.8443 21.3861 22.5317 -0.56386 -0.332921 3.86433
17.0725 21.986 24.5639 1.06379 -0.790155 -3.20079
19.1986 23.5772 23.9917 4.29271 -0.259832 1.52445
19.8142 21.2967 24.8652 0.0244114 2.24711 -1.37239
16.5156 22.705 21.7931 -0.647785 2.11339 1.46333
20.8232 22.9475 21.2963 1.49635 -3.2952 -1.24042
22.9195 20.8792 20.3697 -1.17171 -1.66487 -1.84955
21.6741 20.4673 22.7551 -0.758783 -0.237094 0.86283
25.0578 22.7473 20.9586 0.558578 -0.0062668 -0.156329
20.8897 25.2594 23.0241 2.18536 2.222 0.164958
22.6581 20.4856 25.3532 -2.02623 -0.597601 2.30596
23.1877 24.3198 21.4592 1.04617 0.965243 1.47709
23.861 21.3776 23.2126 0.950944 -0.804462 -1.04486
21.9366 23.1125 24.0765 -3.49295 -2.27672 -2.05178
ITEM: TIMESTEP
4000
ITEM: NUMBER OF ATOMS
55
ITEM: BOX BOUNDS ss ss ss
1.5227837444929913e+01 2.5071325421933611e+01
1.5711751775913397e+01 2.5233527809079614e+01
1.5386851539476917e+01 2.5449012475951310e+01
ITEM: ATOMS x y z vx vy vz
20.1303 17.784 19.3264 0.211315 -3.59535 -0.498937
17.9001 19.2406 20.339 2.4845 -1.71173 -0.955398
19.8343 15.5591 18.3867 2.97055 -2.57536 -0.632819
15.5436 18.8963 19.9193 -2.29356 -2.05167 0.316623
18.2454 20.3512 15.2862 -2.51969 1.3338 0.653026
17.5948 16.9707 19.5256 -1.2733 1.27346 1.54072
18.9974 17.5033 16.5242 -1.14973 -2.78858 -1.47778
16.599 19.3351 17.5415 1.35988 1.27611 -1.97901
21.9224 19.5665 18.4308 0.542708 -0.858776 0.98577
23.8601 19.189 16.2864 1.14674 -1.915 4.74441
23.8579 17.793 18.8503 1.50237 0.468682 0.200503
21.838 17.1809 17.0497 0.304911 2.6674 -1.977
21.3349 19.7362 15.964 -1.5345 -1.24726 -1.17641
22.0723 16.2302 20.1434 0.205997 0.561319 -2.64736
19.1643 19.999 17.6671 -1.11651 -1.6583 1.6285
18.2699 22.5072 19.7513 0.28794 1.03154 -0.141434
16.7965 24.598 19.3246 0.974049 -0.0258112 0.503044
18.9889 24.3383 18.0616 1.80122 -0.0391268 0.240303
15.9928 21.2375 19.8884 2.40896 1.5128 -1.08862
17.0821 21.9721 17.2104 0.760791 1.37793 -0.674147
19.9491 22.0331 16.0334 -1.64606 -0.55555 -1.17183
21.107 22.1758 18.5754 -0.0817841 -1.54364 -1.44717
21.6515 24.1672 16.8736 -0.874667 0.409828 -0.780257
23.1692 23.8017 18.8454 1.75681 3.27265 0.897762
21.0738 24.7356 20.0554 0.61244 -4.10456 -1.53526
24.7988 20.3446 18.2951 -1.30085 1.77729 -0.233088
23.2082 22.0351 16.9006 -0.180845 -2.051 0.705213
20.2731 20.6003 20.3925 0.50635 2.11275 -2.13192
22.9793 21.4658 20.2432 1.53991 -1.38044 0.5942
19.7452 18.2042 22.2532 2.33471 -1.41403 -1.39006
19.1529 16.2368 23.8856 -1.12237 1.68615 1.16031
19.3956 15.7639 21.2186 -0.126791 -0.664076 -0.747177
17.2182 16.9314 22.1817 -1.75774 1.53632 4.36852
16.2328 19.5499 22.4461 -3.84693 0.322142 -1.03209
18.2076 18.9507 24.3816 2.94528 -2.55952 4.99408
22.5286 18.7392 21.0719 -1.54568 -0.096433 -3.16291
24.0779 16.5182 22.0747 -2.59834 -0.147986 -1.6571
24.9844 19.6514 21.0399 0.322965 2.02526 1.17529
23.3685 18.4273 23.7717 -2.32363 3.91194 -1.80332
21.6919 16.4818 22.8402 -0.0724247 2.40006 -0.478405
20.9365 18.7765 24.3707 0.758818 1.71541 1.12179
18.6723 25.322 21.0158 -1.26191 -0.535731 4.59162
18.574 20.8111 22.1795 3.7083 2.14711 1.26004
16.9448 21.6903 24.1196 -0.0928981 -0.705287 -1.7021
18.6316 23.6738 23.5328 -1.18033 1.38985 0.344564
19.8401 21.3131 24.6776 -0.218341 -1.54733 0.141694
16.8266 23.1115 21.9099 1.35278 1.55523 0.596408
20.0621 22.988 21.6803 -3.55491 -0.468854 0.694462
21.6738 20.8283 22.5841 1.39271 -3.29037 -1.04448
25.4441 22.6108 20.3495 1.77501 -0.0582316 4.42716
21.0459 24.8429 22.5069 0.355324 2.38966 -0.0268217
22.3795 20.8786 25.0012 -1.05568 -3.12546 -2.59418
23.1871 23.5278 21.7925 0.166299 1.08123 -1.3276
24.2753 21.5021 22.9221 -0.10793 0.81731 0.495768
22.393 23.0457 24.2262 -1.65224 0.662224 -0.867091
ITEM: TIMESTEP
5000
ITEM: NUMBER OF ATOMS
55
ITEM: BOX BOUNDS ss ss ss
1.5291834569263434e+01 2.5056827005173997e+01
1.5646230716187723e+01 2.5136710552927045e+01
1.5330869728667325e+01 2.5512490974776771e+01
ITEM: ATOMS x y z vx vy vz
19.7449 17.6742 19.4017 -0.265601 0.337041 -1.5008
19.6839 15.2909 18.1771 0.251385 -1.34247 1.08218
15.2215 18.632 20.1829 0.521512 -3.8009 0.307496
17.6913 16.4621 19.7865 -2.66784 0.940824 -2.25176
18.908 17.4702 17.1388 -0.854788 0.140325 2.52648
17.0476 19.54 17.9812 1.10094 -2.16687 0.929585
19.5985 20.4936 17.5715 -1.83145 0.576207 -1.81725
21.8892 19.6786 18.4065 1.53457 0.927956 2.04449
23.6088 18.8346 16.1783 -1.0475 -0.807591 2.16328
23.8835 18.2895 18.7478 -0.637072 1.1609 3.37538
21.7466 17.3541 17.3015 -1.30622 3.25979 -0.53767
21.1379 19.5356 15.7363 2.29476 2.02518 0.259304
22.3149 16.2793 19.965 1.62497 0.564309 -0.65011
18.356 19.7732 15.4688 1.38357 0.178386 -0.513366
18.6064 22.181 19.5118 -0.391872 -1.66946 0.978503
16.5595 23.9884 19.4531 0.2653 0.937204 2.11739
19.0663 24.4653 17.9323 0.427177 1.98353 -2.23956
15.812 21.7591 19.4865 0.705845 -1.0886 -1.30941
17.4205 22.2313 17.1992 0.996836 1.01886 -0.913661
19.8164 22.1687 15.7056 1.53544 0.884919 3.90275
20.5488 20.6004 20.6612 1.56635 -0.758022 -1.64266
21.2944 22.5077 18.641 0.943038 0.307338 -0.926254
21.3032 24.2341 16.6614 2.49828 -1.68662 0.882239
23.7525 23.3675 18.5801 -1.58746 1.48187 0.997974
21.5845 25.1178 19.5544 -1.21548 4.57515 0.308534
24.5021 20.8771 18.3712 -0.54741 -1.93147 1.78001
22.4536 21.6137 16.5444 -3.50026 0.322176 0.646445
17.6489 19.7098 20.379 -2.05123 -2.80309 0.631825
19.5882 18.0266 21.9855 1.31203 -3.34242 0.709814
19.0392 16.144 23.5385 -0.5814 4.38507 0.834778
19.8281 15.2029 21.1283 1.68582 -1.30897 0.535889
16.8256 17.7388 22.0202 -0.381741 -1.56744 -1.43512
15.876 20.1904 22.2911 -0.8358 -1.12326 -1.54532
18.3017 18.9626 24.1712 -0.261215 -0.354194 -0.206457
22.5389 18.7397 21.0149 0.584299 2.89842 -0.159856
24.802 17.4625 21.137 1.64331 -2.57053 -1.35986
25.3416 20.1226 21.7953 -0.261217 1.22042 -3.04644
23.6102 18.8679 23.4166 -0.784901 0.289125 -3.93032
21.57 16.4901 22.4974 -0.235127 -0.332038 0.183585
20.8406 18.0621 24.6584 -1.24711 0.22733 -0.285697
18.9823 24.7036 20.3781 0.236638 2.22558 -0.896699
18.5761 21.2221 22.7071 -2.66492 -1.6518 -1.49092
16.8754 21.2594 24.7064 1.17948 2.48838 1.73908
18.6204 23.5288 23.2848 3.57046 -1.3714 1.10528
19.3758 21.7478 25.2412 1.47636 1.3079 0.59579
16.5574 22.6737 21.6616 -1.52135 -0.314916 1.91529
21.0821 22.9378 21.5866 1.71149 0.65852 2.36268
23.1748 21.3375 20.86 -1.72455 -1.72789 1.32932
21.2716 20.1792 23.2741 0.360129 2.16785 1.88339
25.5269 22.3181 20.5607 -0.487641 -4.0143 -0.449913
21.4789 25.1559 22.2529 0.0782598 0.611802 -0.86787
22.3899 20.1091 25.5616 -2.6459 -0.0925058 -0.169359
23.5336 23.9235 21.4105 0.890589 -1.60291 -4.02331
23.4328 21.6245 23.4427 2.16021 -1.19026 -0.293235
21.483 22.864 24.4175 -3.00198 0.517574 -3.66589
ITEM: TIMESTEP
6000
ITEM: NUMBER OF ATOMS
55
ITEM: BOX BOUNDS ss ss ss
1.5722293114192745e+01 2.5478507475229886e+01
1.5688907519624165e+01 2.5188772693225555e+01
1.5793934327260967e+01 2.5158643277634500e+01
ITEM: ATOMS x y z vx vy vz
20.176 17.9755 18.771 -0.491652 1.50811 3.65783
19.7225 15.5903 17.7938 -1.27795 -0.735267 0.618273
15.8836 17.5654 20.1037 0.615297 0.356917 -0.230306
17.7218 16.9312 18.4619 -0.292684 -0.106215 -0.589532
18.7067 17.9315 16.4065 -0.222199 -0.247942 2.77886
16.6909 19.3522 17.813 1.00873 0.889242 -1.71897
17.8893 20.2664 15.7323 0.499685 1.99885 1.13086
17.8656 18.9309 20.2189 -0.572121 1.49679 0.654468
22.2328 19.9285 18.3761 -1.41476 -2.33833 0.523889
24.0629 19.0873 16.709 1.69554 -0.361739 -0.947197
24.0185 17.9026 18.9637 -1.76493 -1.40828 0.470598
22.1752 17.0036 17.332 0.349937 -0.786675 -0.359406
21.3817 18.9391 16.2406 0.421441 -2.89066 -3.71708
22.12 15.7951 19.5545 1.0631 0.692612 0.0609955
19.597 20.4667 17.5653 -0.6277 1.31401 1.49406
18.3561 21.8931 19.5402 -0.207576 0.010918 2.41466
16.5977 23.8286 19.2971 0.49379 0.0397721 -1.46551
19.2176 24.9153 18.0371 -0.778436 -0.89725 2.76674
15.7402 21.3161 19.941 -2.58172 -1.04425 2.32318
16.5061 21.7713 17.5119 -1.19638 -4.95663 1.45335
19.5669 22.8872 16.5887 2.3581 1.32265 -1.90024
18.8274 24.2972 20.628 2.45758 -1.05977 -0.634342
21.2494 22.6783 18.7025 -3.09011 1.20083 1.69096
21.7046 24.437 16.88 0.737477 4.35518 1.72163
23.8639 23.2643 18.985 0.00523811 1.06246 -1.21882
21.3156 24.8374 19.7847 0.250246 -1.13142 0.576344
24.95 20.8881 18.262 0.905684 0.240204 -1.75726
22.7325 21.659 16.7172 0.30527 -0.639501 1.01678
19.7661 18.7389 22.4856 -1.39863 0.0162168 -0.117647
19.4065 17.1913 24.2345 2.59151 0.606304 -2.73206
19.5188 16.4716 21.2124 2.23794 1.45476 -0.887826
17.0129 17.5127 22.7494 0.390864 -0.383958 -0.917903
17.8891 19.4354 24.2439 1.7614 0.143022 0.374531
22.2262 18.3034 20.8501 -1.24963 2.2035 0.571269
23.6879 16.5568 21.5308 -0.971759 2.61027 0.761533
24.7505 19.2752 20.9562 1.75445 3.08026 -1.01301
23.6834 18.6496 23.5287 -1.6228 -1.69406 0.549544
21.8128 16.8578 23.0911 -1.94254 0.061332 -0.96723
20.9441 18.626 25.1615 -0.115853 -1.80298 0.475205
22.8891 20.8975 25.0084 -2.78344 -0.472482 -1.61994
16.0048 19.8319 22.1335 -0.204248 1.14403 1.30694
18.2097 21.101 22.2492 3.44409 2.00517 0.374561
16.6421 21.831 24.1196 0.764098 1.77199 0.235714
18.8407 23.8119 23.1131 1.79277 -0.526013 -3.20491
19.6461 21.0079 24.5569 -0.88877 -0.376079 0.662351
16.4507 23.0557 21.8726 0.547081 -0.438605 -3.80407
20.4171 20.3073 20.4406 -1.81343 0.706821 -0.0879666
20.5692 22.5566 21.693 -3.39879 -2.41382 -0.0667722
23.1389 21.437 20.3587 3.64235 -1.40189 0.643787
21.8706 20.1488 23.0015 1.57512 -0.837324 -0.769738
25.3444 22.1958 20.9134 -1.00722 0.738762 3.15109
21.1586 25.1945 22.5137 -1.41479 -4.02124 -1.56847
23.0467 23.8766 21.7668 -0.246871 0.408883 -2.66679
23.9851 21.6381 22.9006 -0.536249 -1.58005 0.625675
21.9403 22.8757 24.1216 0.444467 1.11257 -0.122664
ITEM: TIMESTEP
7000
ITEM: NUMBER OF ATOMS
55
ITEM: BOX BOUNDS ss ss ss
1.5379420822756142e+01 2.5470942215670821e+01
1.5668444768795879e+01 2.5394351407526578e+01
1.5446567841754549e+01 2.5408115642708346e+01
ITEM: ATOMS x y z vx vy vz
20.1714 17.9037 19.2319 -2.40516 0.305932 0.945979
20.1973 15.8778 17.438 3.71257 0.373147 -2.00185
15.5847 18.2503 20.3374 2.7426 1.10097 2.42705
17.6159 17.0013 18.885 -4.49896 -0.95645 -2.64658
18.6345 17.7937 16.6319 -0.148373 -1.00789 1.69708
16.4938 19.1793 17.8422 -1.09526 -1.76154 -0.254926
18.2319 20.2345 15.6741 -2.84944 1.37277 1.48179
17.7813 19.4182 20.2556 -0.216237 -0.406632 -1.36406
20.3027 20.5412 20.4411 1.50987 -1.87742 0.668998
22.0357 19.9148 18.1542 -0.552627 -0.782637 0.645185
24.295 19.3831 16.5466 4.07639 -1.05092 2.30308
23.9462 18.2543 18.9207 2.1471 0.00431756 2.13986
22.1589 17.1 17.1348 1.02866 -0.732912 -3.44238
20.952 18.906 15.8824 -3.70005 -2.57941 -1.91103
21.9019 15.8932 20.054 0.747458 0.880984 -1.32697
19.0965 20.4215 18.0035 -1.80866 -1.45051 -2.60572
18.2863 22.2097 19.823 0.532441 0.572129 -0.371358
16.169 23.6182 19.3209 2.75703 -0.491055 -0.0173539
19.2872 24.3405 17.9276 1.20581 3.13136 1.33797
15.472 21.2451 19.7331 0.348538 -0.542884 1.70847
16.6621 21.8746 17.4523 1.61839 3.58076 0.752088
20.2653 21.8601 16.404 -1.05625 -1.44133 1.15463
21.2805 22.6796 18.9501 2.98825 -0.995222 2.11162
21.8998 24.1676 16.8219 -1.27213 -1.00665 -3.45186
23.9364 23.4244 18.7656 -0.198882 -2.11952 -0.25615
21.5626 25.1298 19.504 0.0405523 -0.236754 0.0258475
24.7903 21.077 18.4438 2.71577 2.09965 0.247878
23.2083 21.8393 16.6367 -0.791659 0.989963 -0.880147
22.9718 21.0094 20.6221 1.10528 0.760404 1.77383
19.4685 18.2859 22.1896 0.0740632 1.63114 -1.71461
19.0757 16.6465 23.818 0.393265 3.38354 3.81896
19.4911 15.9847 21.1961 -0.958383 1.67215 -2.46581
17.1355 17.3145 22.2627 -2.42236 -0.724803 1.70291
17.8028 19.0028 24.5129 -1.98451 -4.66796 1.17934
16.2357 20.304 22.212 1.0218 -1.12062 1.84117
22.2644 18.4112 20.9448 1.13612 1.83036 0.122918
24.2593 16.8613 21.4246 -0.435828 2.41923 -1.9174
25.1168 19.4667 21.163 1.62997 -1.38134 2.32022
23.4969 18.6308 23.5011 0.123316 -1.98688 2.04156
21.8547 16.411 22.7794 0.56219 0.722251 -0.501582
20.7063 18.6323 24.7637 -1.08212 -0.774718 2.69656
21.5273 20.3534 22.8979 -0.565401 2.09361 -1.14957
18.4106 24.7626 20.6538 -4.85719 0.848242 -0.686392
18.6715 21.0423 22.6431 1.1387 2.90197 1.84689
17.0781 21.7891 24.3781 0.657198 -2.13918 -4.09168
18.7753 23.8026 23.2701 -0.311875 2.24646 -1.42414
19.8613 21.1889 24.9383 2.34075 1.0135 1.39568
16.8191 22.9645 22.0738 0.97778 -0.331619 -2.14325
22.5152 20.6072 25.1386 -2.67166 -4.1207 -4.53285
20.5882 22.9157 21.5108 -2.03768 -0.763556 -0.0152691
25.3612 22.5074 21.0451 1.12757 -1.70809 -1.56236
20.8141 25.2884 22.1792 -1.4031 1.41033 2.22412
23.083 23.6821 21.5045 -2.93469 2.68648 -1.16506
24.23 21.6799 23.1192 0.53353 -1.60588 2.86618
21.8909 22.6409 23.7661 1.26551 0.733442 -1.5775
ITEM: TIMESTEP
8000
ITEM: NUMBER OF ATOMS
55
ITEM: BOX BOUNDS ss ss ss
1.5262164792579773e+01 2.5354311135177284e+01
1.5912890019045804e+01 2.5337853294139297e+01
1.5773747041465034e+01 2.5427173777014133e+01
ITEM: ATOMS x y z vx vy vz
19.9291 17.3287 19.5446 -0.491923 -2.07612 3.36957
20.4992 16.575 17.1449 -0.0544818 1.33861 1.56447
15.3329 18.5365 20.5796 0.843462 -0.145068 1.18012
17.5347 17.0737 19.5086 1.28953 -0.198465 -2.09382
18.4279 17.7567 16.9187 1.76179 0.592539 0.887504
16.2953 19.4368 18.1415 -4.2807 -0.302637 3.4224
18.2276 19.9715 15.697 3.40055 0.919375 -2.21313
17.5963 19.7706 20.3351 1.0442 0.608428 -1.01209
19.334 19.9488 18.1067 -0.128288 -1.6373 0.745935
22.327 19.5887 18.3946 1.79076 1.49271 -0.102055
24.621 19.0471 16.2501 0.573154 -0.0271711 -0.326076
24.7672 18.3283 18.9074 1.29633 2.72068 1.32242
22.7182 17.561 17.1005 -0.648569 -2.67376 -2.01996
21.4853 19.614 15.8815 0.800219 1.56955 2.04983
22.5576 16.4028 19.3098 -0.0266145 3.04672 3.6731
18.6641 22.3357 19.723 -0.977146 -0.353819 -1.05958
16.6977 23.7537 19.0741 -0.71266 1.93052 -0.4468
18.6865 24.217 17.6651 1.87521 1.6612 -0.116745
15.786 21.5389 19.9419 1.77693 1.04933 -0.127025
17.1026 21.7585 17.27 3.26139 3.40315 0.325744
19.9664 21.9803 16.2017 1.49772 0.486815 1.00658
21.0645 22.2517 18.746 1.01007 2.81861 0.257009
21.1832 24.0259 16.6901 -3.02371 0.335535 -1.60627
23.5759 23.1915 18.7419 0.347509 -1.04808 -0.76586
21.0283 24.7617 19.6119 1.44485 2.1685 -2.12205
24.8003 20.8436 18.3679 -1.83195 -0.694134 -1.48236
23.0738 21.4741 16.4777 -2.45782 -1.72735 -0.0648293
20.5571 20.1449 20.5494 -1.11376 -2.42911 -0.250943
19.3842 18.3082 22.1164 -2.28788 5.52188 -1.36098
19.2301 16.6633 24.1327 -2.77995 -5.23994 0.189367
18.7995 15.6859 21.3323 0.753877 -2.95539 3.32003
16.891 17.2556 22.3426 1.99179 1.14985 -1.457
17.8535 19.1314 24.2309 -0.694706 -0.467467 -0.213057
16.0055 20.3049 22.4049 0.526272 -0.428761 0.218275
22.4207 18.4485 20.8841 0.577737 2.12536 -1.74346
24.3906 16.8647 21.48 -0.0966025 -2.77341 -0.159944
25.191 19.6106 21.1395 -2.16606 -1.74663 -0.810258
23.2994 18.4841 23.549 1.01547 2.45642 1.81715
21.4923 16.4442 22.4952 -2.11688 1.23758 0.202362
20.792 18.5194 24.2949 2.55689 1.67818 0.878082
21.7184 20.5565 22.7251 2.90506 -0.757505 -2.16923
18.729 24.988 20.7031 0.185813 -1.1193 1.86763
18.6389 21.1413 22.5488 0.330839 0.197887 2.19133
16.9029 21.7134 24.2595 -2.79623 -2.11128 1.02914
18.8508 23.7986 23.4361 -0.296748 0.242214 -0.499037
19.5695 20.9464 25.0047 -1.65022 -1.76011 0.461323
16.857 22.9375 22.0126 -2.57127 -1.86048 0.0240702
23.0932 21.2521 20.651 -0.53217 -0.139118 0.578232
22.2397 20.3815 25.2353 2.75101 -0.767665 -1.10703
20.6125 22.9972 21.4364 -3.028 -1.26077 -1.20802
25.3726 22.4842 20.9001 -0.0725906 0.483483 0.889884
20.7158 25.315 22.3442 1.55873 0.50365 -1.21926
23.2064 23.6449 21.7163 -1.93915 -1.37274 -0.890902
24.0245 21.4927 23.4243 -0.650736 -0.997978 -1.23076
21.6045 23.1371 24.0441 0.259657 -2.66723 -3.59302
ITEM: TIMESTEP
9000
ITEM: NUMBER OF ATOMS
55
ITEM: BOX BOUNDS ss ss ss
1.5504650093145345e+01 2.5383888890422288e+01
1.5836504065691281e+01 2.5166677198904459e+01
1.5312002216967780e+01 2.5421153262271389e+01
ITEM: ATOMS x y z vx vy vz
19.9373 17.1949 20.0054 -1.72183 4.12214 -1.04963
17.343 17.0049 18.4549 -2.0572 -2.65957 1.9506
18.7155 17.9076 15.4717 2.83941 -1.67303 -0.911976
16.6002 19.4724 17.8195 0.46964 0.648257 -1.47567
18.1193 20.3189 15.2603 0.173744 -0.463322 -0.884048
17.8415 19.1654 20.1255 1.81036 0.880112 1.49469
19.0989 19.4523 17.7068 -1.37068 2.8648 -3.48924
20.056 16.8158 17.4325 0.941423 1.60274 -0.0695824
21.761 19.6631 18.2048 -2.8971 0.061578 -2.9181
23.7989 19.4944 16.4566 3.66748 3.59079 1.42584
24.4124 18.141 18.9275 0.764757 -0.823768 1.93844
22.3802 17.5199 17.2389 -0.381462 -1.98174 1.65895
20.9279 19.2152 15.4787 0.505678 0.0728017 1.96888
22.4433 16.155 19.41 1.06339 0.293448 -0.429063
20.2252 20.2144 20.5722 0.175175 -2.62318 -1.53331
18.3335 21.8844 19.7581 1.20732 -0.144012 1.11741
16.5119 23.8786 19.1646 -0.28465 1.22934 -0.0489494
19.2121 24.0104 18.0728 1.83648 1.10788 0.746654
15.7961 21.1251 19.8342 1.38835 0.851765 -1.29688
17.3169 22.1469 17.5005 -3.59669 0.742202 -0.607025
19.9355 21.6584 16.5539 -0.899929 0.827884 0.54204
21.0112 22.3341 18.8514 1.384 -0.626853 -1.18031
21.2558 24.0589 16.5488 -3.43415 -4.08344 0.671381
23.3736 23.0749 19.2476 1.0043 0.339279 2.4139
21.3068 25.0908 19.8381 0.0199318 -0.199848 0.397248
24.4419 20.6898 18.8009 2.42623 -0.265813 -0.691729
22.8569 21.7464 16.6647 -1.17318 0.463429 0.727904
15.3791 17.9783 19.7373 -2.90773 1.08171 2.57842
19.7772 18.5353 22.5032 1.60954 -2.25438 1.20438
19.3821 16.9098 24.247 0.317401 0.405959 0.278434
19.3024 15.7077 22.1295 2.76667 -3.20448 0.47684
17.0473 17.1913 21.9771 0.441648 3.36894 0.95028
18.1647 19.5316 24.3658 -1.14999 -4.18076 0.612547
16.2741 19.9342 22.0605 0.577934 -0.896308 -1.33284
22.406 18.3732 20.7605 -2.70796 -2.91208 -3.33767
24.2996 16.7625 21.4628 -0.397326 -1.09547 0.767263
25.0622 19.4609 21.2195 1.49605 -2.41225 -1.39405
23.3509 18.6949 23.3483 -1.52449 -1.92228 0.903583
21.9095 16.585 22.5048 2.33436 -0.140424 -0.962344
20.9535 19.326 24.8968 0.60132 -1.30027 2.12632
18.7765 24.7536 20.8804 -2.53523 1.63918 -1.6505
18.5893 21.2791 22.4744 -0.653773 1.33979 1.76944
17.0038 22.0727 24.1492 -0.962398 1.35109 1.54568
18.8254 23.6633 23.4938 -0.271936 0.248793 -1.07734
19.7479 21.534 25.0199 1.74894 -0.353944 -1.59705
16.6878 23.0306 21.8091 -0.426325 -0.539238 -0.14652
21.5572 20.6862 22.9794 -1.0965 0.00522427 0.961909
22.8263 21.0139 20.7307 -1.55325 2.38299 3.59744
22.9784 20.9112 25.3403 -2.04 -0.816178 -2.02798
20.7459 23.0239 21.5017 0.088846 1.2091 -2.51361
25.4483 22.2731 20.6636 1.37543 -0.527785 -0.0205308
20.9286 25.246 22.6846 1.37817 2.0523 0.637772
23.3873 23.5798 21.9583 -2.4446 0.0415346 0.444169
24.2845 21.2891 23.2008 1.71877 -0.136777 -1.71851
21.6166 22.944 24.2251 0.355634 3.41214 -1.54394
ITEM: TIMESTEP
10000