ITEM: TIMESTEP
0
ITEM: NUMBER OF ATOMS
561
ITEM: BOX BOUNDS ss ss ss
6.9590250482864979e+00 3.3830974951713500e+01
7.2356729425285211e+00 3.3554327057471475e+01
7.1821477328473682e+00 3.3607852267152630e+01
ITEM: ATOMS x y z vx vy vz
16.3556 14.7272 10.176 0.450282 -0.193374 1.46398
19.3011 14.1883 10.6613 0.0254255 -0.996952 1.48023
24.333 15.6063 10.1369 0.438782 1.57564 -0.003468
27.2785 15.0675 10.6222 0.294418 0.689847 0.839491
13.1025 18.8185 9.64298 -0.745702 1.25524 1.56402
15.7888 19.854 9.82798 1.05246 -0.390453 0.771347
14.6373 19.7188 7.18623 -0.391397 0.662938 0.0753628
15.4964 17.223 8.68112 0.0338021 0.951569 -1.62997
17.5828 19.1799 7.67149 0.437226 -1.23699 -1.18121
18.4419 16.6841 9.1664 -0.466512 -1.9885 -2.34526
18.7343 19.3152 10.3133 -0.949052 -1.35197 1.01202
21.6799 18.7763 10.7985 -0.699706 0.0465388 0.327274
20.5283 18.641 8.15676 -1.09261 3.20467 -2.50535
21.3874 16.1452 9.65166 0.147028 -1.18745 0.13346
23.4738 18.1022 8.64204 -0.200506 0.301943 -2.15523
25.3148 20.3682 9.46517 -0.404683 -1.77883 -0.17211
29.3648 17.0244 9.61257 -0.0717188 0.848261 -1.57323
28.2603 19.8293 9.95043 0.0309356 -0.268035 -0.539822
26.4193 17.5633 9.1273 -1.1377 -0.9256 0.406399
13.7093 21.7615 9.2278 1.11569 1.24767 0.461351
17.6298 22.1201 10.6511 0.115392 2.1929 -0.860019
18.3193 24.251 8.83249 -0.62914 2.69017 0.352543
16.4783 21.9849 8.00936 -0.300689 -1.22274 -0.526092
15.5503 24.0276 10.0509 1.6458 -0.520857 0.484803
21.2648 23.7121 9.31776 -2.77708 0.184298 -0.311161
19.4238 21.446 8.49463 0.0282113 0.116676 -0.896917
24.2103 23.1732 9.80302 -1.02723 1.903 -1.25377
22.3693 20.9071 8.97989 -1.09269 -0.416424 -1.82526
27.1558 22.6343 10.2883 -0.287422 -0.522968 0.453879
17.3913 26.2937 10.8741 0.458278 -0.0331446 -0.349141
22.0013 28.7831 10.4788 0.266415 -1.03718 -2.7148
20.1603 26.517 9.65563 1.11737 0.586378 -0.216005
26.0513 25.4393 10.6262 -0.282406 0.467305 -2.1321
23.1058 25.9782 10.1409 -2.15378 -1.16797 -0.391009
18.0738 9.73556 13.1658 0.869511 0.0352768 0.376443
15.6798 11.3311 14.1277 -0.426639 -0.390654 0.431573
18.933 7.23975 14.6607 1.71457 -0.651719 2.25103
21.0193 9.19668 13.6511 -1.73901 0.714853 -0.201729
23.1057 11.1536 12.6415 -0.137642 1.34196 -0.264141
12.4268 15.4224 13.5946 -0.672157 0.3567 -2.1582
18.3662 12.3666 14.3127 0.105713 0.939451 0.705897
17.5071 14.8624 12.8178 0.454921 0.490207 -2.54018
17.2147 12.2314 11.6709 -1.18481 -0.430399 -1.30175
14.8207 13.8269 12.6328 -0.270986 0.115614 1.94876
20.4526 14.3235 13.303 1.72922 1.65461 0.0844761
20.1602 11.6925 12.1562 -0.42224 -0.0626883 -0.973653
22.2466 13.6494 11.1466 -1.16629 0.307784 1.3504
23.3981 13.7847 13.7883 -1.73034 -0.4463 0.140923
25.4845 15.7416 12.7787 -1.25078 0.72505 -1.2984
25.1921 13.1105 11.6318 -2.23984 -0.30057 1.13122
25.4777 11.8772 14.3885 -1.85815 -2.25774 1.65077
29.6504 15.791 12.3692 0.194238 0.719166 -2.67135
27.5641 13.8341 13.3789 0.224999 -2.55948 -0.171108
10.0328 17.0179 14.5565 -0.227557 0.0708113 -1.9479
10.6396 19.9609 14.1413 0.448886 1.17972 -0.258185
14.254 18.9537 12.2847 -1.8247 0.376287 0.477129
11.5676 17.9182 12.0997 -1.70339 -0.657423 1.10327
13.9616 16.3227 11.1379 0.490532 -0.26578 0.683165
16.9404 19.9893 12.4697 0.21648 1.26247 0.54243
17.7995 17.4935 13.9646 -1.06256 -1.18383 1.06111
16.648 17.3582 11.3229 0.136448 0.233103 1.06259
15.1131 16.4579 13.7796 1.3177 -0.142842 -0.225072
19.8859 19.4504 12.955 1.49225 2.19461 0.622944
20.745 16.9546 14.4499 -1.35813 -0.742502 -0.704077
19.5935 16.8193 11.8081 -1.55926 0.410751 -1.16627
25.7769 18.3726 13.9255 1.75228 -0.399465 -0.371478
22.8314 18.9115 13.4403 -0.120303 -0.90547 -1.99991
24.6254 18.2374 11.2838 0.0961494 0.216331 0.710868
22.539 16.2805 12.2934 1.49357 -1.6437 1.41474
27.5709 17.6985 11.7691 0.531117 0.320095 0.219314
28.4633 19.4082 14.1105 0.317557 -0.440855 -1.20447
27.8565 16.4652 14.5257 1.00194 -1.1043 -0.148207
30.2573 18.7341 11.9541 -0.474752 -1.26891 -0.0569757
30.5428 17.5007 14.7107 -0.181653 2.46592 -1.193
13.9328 23.9395 13.9111 0.790675 -1.22726 -0.824316
13.326 20.9965 14.3263 1.37827 0.651213 0.0306055
12.7813 23.8042 11.2694 -0.937272 -0.214966 0.465523
12.1744 20.8612 11.6846 0.163171 2.5217 -1.42888
11.2464 22.9039 13.7261 -0.183808 -1.85128 -0.807478
16.0124 22.032 14.5113 -0.958266 -1.26529 1.58959
14.8608 21.8967 11.8696 -0.362639 2.41639 0.958701
16.7018 24.1628 12.6927 -1.21878 1.00893 1.89705
20.6224 24.5214 14.116 2.14442 -1.1865 2.26893
18.7814 22.2554 13.2929 1.50241 -1.56846 0.951416
21.7269 21.7165 13.7781 -0.271325 -0.634114 2.62972
19.4708 24.3862 11.4742 0.477835 -0.406812 1.37303
20.5753 21.5812 11.1364 -0.590563 0.722012 0.486134
23.5679 23.9826 14.6013 -0.407351 0.04464 0.873392
24.6724 21.1776 14.2634 -1.17141 -0.346358 -1.45195
25.3618 23.3084 12.4448 1.42545 -0.447323 -2.02331
22.4163 23.8473 11.9595 1.13214 0.763889 0.257833
23.5209 21.0424 11.6217 0.601146 0.0483725 0.904747
26.4664 20.5035 12.1069 0.111408 0.460265 -0.705567
27.3588 22.2131 14.4484 1.09931 0.910165 -0.343819
28.0482 24.344 12.6298 0.298987 -0.715556 -0.0490281
29.1527 21.539 12.2919 -0.937676 0.331058 -1.79802
31.1497 20.4437 14.2955 0.861676 -0.808623 2.75051
30.0451 23.2487 14.6334 0.739328 0.578792 0.145538
11.8533 25.8469 13.311 0.59721 0.854994 0.305456
14.6223 26.0703 12.0925 1.08504 -1.37138 -0.0669305
13.6943 28.113 14.1341 0.0277422 0.773559 2.07182
16.4633 28.3364 12.9156 1.44876 -0.374604 0.555502
20.3838 28.695 14.339 -0.790992 -2.16746 -0.255955
21.3118 26.6523 12.2974 -0.658326 -1.10792 -0.81636
18.5428 26.4289 13.5158 0.671759 -0.719843 -0.964023
19.2323 28.5597 11.6972 1.86578 -0.318215 -1.5528
23.1528 28.9184 13.1205 1.64871 -0.897939 0.719099
24.2573 26.1134 12.7827 1.78244 1.1525 1.67112
24.9468 28.2442 10.964 0.346943 -0.720504 -0.468593
26.9437 27.1489 12.9677 0.490074 1.71114 -0.136711
18.3042 30.6025 13.7388 0.151271 1.66956 -0.126766
21.0733 30.8258 12.5203 -0.718756 -2.45591 -1.61695
23.8423 31.0492 11.3019 -1.77091 0.336922 -1.49626
25.8392 29.9539 13.3055 1.18947 0.411257 -0.883355
23.4452 31.5494 14.2674 1.0811 0.135805 -1.80477
14.145 10.4308 16.5844 -0.815796 -0.83006 0.224388
16.8314 11.4663 16.7694 -1.26572 0.452747 -0.212442
16.539 8.83526 15.6226 -3.17973 -1.22845 0.168154
19.2254 9.8708 15.8076 -0.101376 -1.30201 1.3163
21.5973 10.5944 17.5546 1.91441 -0.113452 -0.52287
18.5359 7.73996 17.6262 2.5101 0.31891 -0.16891
21.3049 7.96333 16.4078 -1.09834 -0.0233756 -1.685
23.6769 8.68692 18.1548 -1.10779 1.43757 -0.565448
23.3913 9.92026 15.3981 -0.553528 0.390277 0.661911
25.7633 10.6438 17.1452 -0.139773 -0.417506 1.82177
14.4374 13.0618 17.7313 -2.61445 -0.554848 0.387151
13.5783 15.5576 16.2364 1.00188 1.59829 0.344639
11.751 12.0263 17.5463 0.966577 -2.94203 0.535357
13.2859 12.9266 15.0895 -0.17922 0.888371 -0.780348
10.8919 14.5221 16.0514 -0.403841 -1.97776 -0.00912462
17.1238 14.0974 17.9163 -0.307943 -0.32822 0.241852
15.9723 13.9621 15.2745 0.153727 0.796858 -0.876582
19.8102 15.1329 18.1013 -1.00982 1.04536 -0.958322
19.5178 12.5019 16.9544 -0.127037 -0.529731 -0.662179
18.6586 14.9977 15.4595 -0.0846744 2.32394 0.183477
21.6042 14.4588 15.9448 -0.304448 -1.47348 0.332795
21.3117 11.8277 14.798 1.21781 0.514791 0.80941
23.9761 15.1824 17.6918 0.852251 -0.0868834 0.17286
23.6837 12.5513 16.545 -0.104235 2.09427 1.18754
25.7701 14.5082 15.5354 1.02198 -1.85278 -1.34444
26.0557 13.2749 18.292 -0.374254 -0.11301 -1.89162
28.1421 15.2318 17.2824 -0.392062 -0.496565 1.76577
29.936 14.5577 15.1259 -2.11113 0.365085 1.96761
27.8496 12.6008 16.1355 -0.150628 -0.699291 -0.055644
30.2216 13.3244 17.8826 -0.396387 1.06557 -1.52543
8.49794 16.1176 17.0132 0.939117 -2.49187 -3.04497
9.10477 19.0606 16.5981 -1.08337 -0.340912 -0.206812
13.8707 18.1887 17.3832 0.514429 -0.665807 0.804973
11.1843 17.1531 17.1982 2.19842 1.22765 0.200708
12.7192 18.0534 14.7415 -1.36933 1.76237 -0.138669
11.7911 20.0962 16.7831 0.925898 -0.0117187 1.93268
18.0919 20.1245 15.1115 2.05778 -0.269143 0.53495
16.5571 19.2242 17.5682 -0.307423 -0.798433 -0.238532
15.4055 19.089 14.9265 -1.10453 -0.543151 0.369575
16.2647 16.5932 16.4214 -0.400202 -0.136713 2.88148
19.2435 20.2598 17.7532 1.4115 0.551249 0.509468
22.189 19.7209 18.2385 -0.0349537 0.648421 0.185561
18.951 17.6287 16.6064 -0.488258 0.344161 2.05378
21.8966 17.0898 17.0917 1.56145 0.13027 -0.887052
21.0374 19.5856 15.5968 0.0720968 -0.191851 -0.363793
23.9829 19.0468 16.082 -0.786896 2.16051 -2.39675
26.0625 17.1393 16.6822 0.912726 0.191053 0.934317
23.6905 16.4157 14.9352 -0.0410643 -1.58307 -0.274269
26.6693 20.0823 16.267 -0.337518 -0.58104 -1.4239
28.7489 18.1748 16.8672 0.129503 -0.803452 -0.341448
31.4353 19.2104 17.0522 1.03944 -0.732741 0.009612
30.8284 16.2674 17.4674 0.852098 0.369146 0.252977
8.78357 24.0463 18.2245 -0.69878 2.28813 -0.984282
9.71159 22.0036 16.1829 0.734314 -0.292857 -0.913684
14.4775 21.1317 16.9681 -0.805568 -0.429272 -0.575469
12.398 23.0392 16.3679 0.617048 -2.22984 1.49156
17.1639 22.1672 17.1531 0.936526 -1.44594 -1.699
15.0843 24.0747 16.5529 -0.601609 1.54687 -0.661634
17.8534 24.2981 15.3344 1.06009 0.424461 -1.01716
21.7739 24.6567 16.7578 0.862962 -0.657075 1.13584
19.0049 24.4333 17.9762 0.710763 -0.88258 1.75052
19.9329 22.3906 15.9346 -1.22639 0.587035 0.541149
24.8753 20.7564 18.4235 -1.7402 -1.09607 1.18431
22.8784 21.8517 16.4199 1.11856 -0.338517 0.332457
25.5648 22.8873 16.6049 0.649653 -0.568334 2.33255
29.3557 21.1178 16.452 0.319026 0.163413 -0.0524597
28.2512 23.9228 16.7899 1.37243 0.192286 -1.20189
32.0421 22.1534 16.637 1.01055 -1.66282 -0.449967
9.3904 26.9893 17.8093 1.06142 1.22208 1.55499
10.3184 24.9466 15.7677 -1.0207 1.35893 0.943526
12.0768 28.0249 17.9943 0.0332821 0.175063 -1.51721
11.47 25.0819 18.4095 0.790717 0.290272 -1.77438
13.0048 25.9822 15.9527 -1.22159 -1.84637 -1.21925
10.9252 27.8896 15.3525 -2.70756 -0.525623 1.35024
16.9253 26.3408 17.376 -0.998832 0.211843 0.534817
17.6148 28.4716 15.5574 1.35384 -0.256808 0.436878
14.8458 28.2482 16.7758 0.629514 -0.139185 1.00158
15.7738 26.2055 14.7343 0.318525 -0.0565635 1.30621
22.0663 27.2877 17.9046 1.19779 0.593956 1.27123
19.6944 26.5641 16.1576 -0.745261 0.0595881 0.493587
22.4634 26.7875 14.9391 -1.85386 2.0377 0.393333
24.4603 25.6922 16.9428 0.951084 -0.0696116 0.213029
25.1497 27.8231 15.1241 1.12752 2.47518 -0.608199
24.7527 28.3233 18.0896 2.97403 -0.65027 0.377124
27.1467 26.7278 17.1278 -1.6437 0.165254 -0.980148
26.2543 25.0181 14.7863 -1.52849 0.32424 -1.18794
29.833 27.7633 17.3128 0.150797 0.676234 -0.161125
27.8361 28.8586 15.3091 0.811601 0.974249 -0.26014
28.9406 26.0536 14.9713 0.465756 1.2116 -0.925571
30.9376 24.9583 16.9749 -0.315825 -0.0218561 -0.411712
9.99723 29.9323 17.3941 -0.408777 2.54879 -0.252438
12.7662 30.1557 16.1757 0.894866 -1.21537 -0.41611
15.5352 30.3791 14.9572 -1.40682 0.949598 0.842582
17.9072 31.1027 16.7043 -0.964231 -0.000166115 0.00873624
15.1382 30.8793 17.9227 -0.596696 1.57178 -0.694801
19.9868 29.1952 17.3044 -1.38213 -1.26455 -0.469576
20.2792 31.8262 18.4513 -0.0981738 -1.03921 0.786402
20.6762 31.326 15.4858 0.678924 -0.0237572 0.125428
22.7558 29.4186 16.086 0.1304 0.577194 -0.90695
23.0482 32.0496 17.2328 0.171079 2.36637 -1.88494
25.4421 30.4541 16.271 0.942067 0.989666 -0.824347
27.4391 29.3588 18.2746 -1.32545 0.310643 0.358838
13.748 10.931 19.5499 1.97115 -1.46783 -1.55036
18.4313 10.8712 21.7385 0.981974 0.261868 -2.10231
18.1389 8.24017 20.5917 2.27701 -2.34224 -1.47012
16.1419 9.33548 18.5881 -0.679338 -0.801184 0.36364
15.7449 9.83568 21.5535 1.52502 -0.255544 -0.395792
18.8283 10.371 18.7731 2.62369 -0.369679 0.400627
21.2003 11.0946 20.5201 0.115283 -0.478253 -0.910051
20.9079 8.46355 19.3732 -0.470455 -1.9425 -0.772057
23.9693 11.318 19.3016 -0.0798544 0.800412 1.11928
26.0488 9.41049 19.9018 0.886476 0.764853 1.32211
23.2798 9.18712 21.1203 -1.78339 -0.675144 0.518456
28.4208 10.1341 21.6489 2.26469 -0.171157 -0.0875481
28.1352 11.3674 18.8922 2.34161 -1.48552 -0.476096
6.9631 15.2173 19.47 0.237947 0.0757727 -1.0841
9.35707 13.6218 18.5081 -0.767313 0.317913 1.96205
8.96003 14.122 21.4736 -0.550328 -3.068 -0.421718
12.0435 14.6573 18.6931 0.0977007 2.70439 -0.343514
11.6464 15.1576 21.6586 -0.927844 0.433013 0.448415
14.0404 13.562 20.6968 4.47249 -0.991663 0.474746
11.354 12.5265 20.5118 -0.32116 0.272309 -0.649537
14.7298 15.6929 18.8781 1.0845 0.400198 0.888944
16.7268 14.5976 20.8818 -0.974167 -0.322189 0.832615
16.4343 11.9665 19.7349 0.791487 -0.437062 -0.937618
19.4131 15.6331 21.0668 0.00732153 0.908952 -0.869162
22.1822 15.8565 19.8483 -1.97419 -0.253481 -1.97273
19.1207 13.0021 19.9199 -0.307335 2.05234 0.114507
21.8897 13.2254 18.7015 0.0226424 0.792606 1.34413
21.4927 13.7256 21.6669 -2.06044 1.44826 -0.248887
24.2617 13.949 20.4485 0.0389934 -0.237184 2.01602
23.5722 11.8182 22.2671 -1.03642 -1.02447 -0.494744
26.6337 14.6726 22.1955 0.252116 -1.24324 0.712858
26.3481 15.9059 19.4389 3.54468 -0.614983 0.396204
28.4276 13.9985 20.039 -0.625089 -0.171776 0.595568
26.3413 12.0415 21.0487 1.50242 -0.559635 -0.993984
30.5072 12.091 20.6392 -0.471254 -0.552756 1.83891
31.114 15.034 20.224 -0.325185 0.266348 -0.19223
9.64948 16.2528 19.655 -0.809994 -1.31511 -1.12156
10.2563 19.1959 19.2398 0.908586 0.733096 0.197813
10.5419 17.9625 21.9965 0.473635 -0.1096 0.312107
7.56993 18.1603 19.0548 -0.951387 0.392724 0.331898
7.85551 16.927 21.8115 -1.07234 -0.735478 0.143045
8.46234 19.87 21.3963 1.78061 1.06904 -1.15733
12.3359 17.2884 19.84 -1.62406 0.0758687 -1.00331
14.3328 16.1931 21.8436 -0.999935 -0.849305 1.4539
12.9427 20.2314 19.4248 -0.0503423 -1.24417 -0.711794
13.2283 18.998 22.1815 -1.47 -1.32272 0.215677
17.7086 19.3595 20.21 -1.66531 1.36113 0.427074
15.0222 18.3239 20.025 1.04959 -0.154364 0.812068
17.4162 16.7284 19.0631 1.09041 1.60135 -1.82879
17.0192 17.2286 22.0286 -0.711461 -0.0530014 -1.79672
20.1026 17.764 19.2481 -0.169821 1.67891 -1.53327
19.7055 18.2642 22.2136 -1.30995 1.22748 0.915878
22.4746 18.4875 20.9952 -1.40006 -0.296946 0.496497
24.5541 16.5801 21.5954 -0.59455 0.0678981 -0.199582
25.1609 19.5231 21.1802 -1.18365 0.421268 0.494676
24.2685 17.8134 18.8387 1.12614 -0.470717 -1.12996
27.2405 17.6156 21.7804 -0.321182 -0.986998 0.788875
26.9549 18.8489 19.0237 0.379681 0.785075 0.421831
29.9269 18.6511 21.9654 0.158631 0.301347 0.660578
29.6413 19.8845 19.2087 -1.09401 0.800934 -0.942716
29.0345 16.9415 19.6239 0.739228 -0.485643 0.955161
32.6132 19.6867 22.1504 -0.951753 0.439277 -0.0803759
31.7208 17.977 19.8089 -0.83805 -2.07449 0.128547
8.17676 21.1033 18.6396 -1.18455 -0.318265 -0.0839651
9.06916 22.813 20.9811 -0.722818 1.42472 0.774201
13.5495 23.1744 19.0096 0.57385 0.620678 -1.49899
13.8351 21.9411 21.7663 -0.0651488 -1.66518 -0.250907
10.8631 22.1389 18.8246 -1.31251 2.53161 0.918143
11.1487 20.9055 21.5813 -1.1777 0.967398 1.6861
11.7555 23.8485 21.1661 0.688851 1.05524 0.0565795
18.3154 22.3025 19.7948 0.807855 -0.196309 -0.102407
16.2359 24.2099 19.1946 0.976211 0.548574 1.15761
16.5215 22.9766 21.9513 0.298501 -1.87121 0.218351
15.6291 21.2669 19.6098 -1.42435 -0.494614 -0.620476
20.395 20.395 20.395 1.0867 0.495654 0.989898
20.6874 23.026 21.5419 1.82269 -0.700963 -0.307632
21.0845 22.5258 18.5764 0.433118 0.549826 -1.02011
23.0814 21.4305 20.58 0.896231 0.266911 -0.0379965
25.7678 22.4661 20.765 0.0764655 -0.11732 1.16887
23.3738 24.0616 21.7269 0.0324241 0.359918 1.2335
23.7708 23.5614 18.7614 -0.479974 -1.15277 -0.0284002
28.4541 23.5016 20.95 0.551628 0.262654 1.77628
26.4572 24.5969 18.9464 0.237043 -0.11056 0.872986
27.5617 21.792 18.6085 0.627032 0.294377 -1.29077
27.8473 20.5586 21.3652 0.0662729 -0.323403 -0.499807
31.1405 24.5372 21.135 -0.947502 0.688111 -1.32539
30.2481 22.8275 18.7935 -0.879989 -1.72813 0.200569
30.5337 21.5941 21.5502 -2.16532 0.955385 0.514565
32.9345 23.863 18.9785 0.227903 0.684973 0.962627
33.2201 22.6297 21.7352 0.0153001 -1.7061 -0.970792
32.3277 20.92 19.3937 -0.537972 0.151386 1.63896
10.2828 28.699 20.1508 0.741042 1.16887 -0.866258
9.67599 25.756 20.566 -1.95118 -1.64881 -1.19759
14.1563 26.1174 18.5945 0.00584456 -0.173598 -0.323949
14.4419 24.8841 21.3511 1.33078 -1.21978 -2.10409
14.4487 28.7485 19.7413 0.134294 1.61132 -0.449508
12.3624 26.7915 20.751 1.30315 0.0891343 -0.0429013
16.5283 26.841 20.3415 -0.987407 -0.456598 1.994
17.2178 28.9718 18.5229 -1.76162 -1.08838 0.778904
21.3769 25.1569 19.7232 -2.81493 -1.74345 -0.280778
18.6078 24.9335 20.9417 0.78904 2.01843 -0.269556
21.6693 27.7879 20.8701 0.220332 1.2702 0.739885
18.9003 27.5646 22.0885 1.45638 0.99956 0.467301
19.2973 27.0644 19.1231 -0.875348 -2.08492 -0.263862
26.0602 25.0971 21.9119 0.232006 -0.523077 -0.158979
24.0632 26.1924 19.9082 -0.364593 -0.466874 -1.4707
24.3557 28.8235 21.0551 -0.541095 0.708003 -1.44298
28.7465 26.1327 22.0969 0.502647 -1.02434 1.11444
29.1436 25.6324 19.1314 -0.285211 -0.506811 0.357167
26.7496 27.228 20.0932 -0.456735 -2.23484 -0.847826
29.436 28.2635 20.2782 1.78542 -1.13349 0.543746
33.8269 25.5727 21.32 0.191733 -0.160078 1.48525
31.4329 27.1682 22.2819 -0.00616551 -2.07923 -0.38579
31.83 26.668 19.3164 -0.240553 3.59929 -0.58424
12.3692 30.6559 19.1411 -0.372886 -1.38255 -0.697563
12.6548 29.4226 21.8978 1.30254 0.0623606 -0.820043
16.8207 29.472 21.4884 -0.720044 1.33352 0.54705
14.7412 31.3795 20.8882 -0.701769 -2.13053 -0.768813
17.5102 31.6029 19.6697 2.46843 -1.60027 -1.78975
21.9617 30.419 22.0169 -1.50154 -0.0543361 -3.13786
19.5897 29.6954 20.2699 0.0430654 -0.930064 0.716304
19.8821 32.3265 21.4168 2.18146 -0.890332 -0.712669
22.3587 29.9188 19.0515 1.25167 0.103292 1.8301
22.6511 32.5498 20.1983 0.880034 0.486247 -1.08401
24.6481 31.4545 22.2019 -0.381579 -0.173435 -0.209253
25.0451 30.9543 19.2365 0.393254 -1.49321 -1.21381
27.042 29.859 21.2401 -0.951444 -0.0553433 1.19398
13.3509 11.4312 22.5154 0.959883 -0.312263 -0.106571
18.0342 11.3714 24.704 1.23167 0.51572 2.28846
17.7418 8.74039 23.5572 -1.19028 0.205117 1.14232
15.3479 10.3359 24.519 1.34205 -0.627516 -0.610517
20.8032 11.5948 23.4856 0.263781 1.28839 0.821971
20.5108 8.96376 22.3387 0.180917 0.0364378 0.310854
20.1138 9.46397 25.3042 -1.85559 1.0381 0.505258
25.2548 10.4109 25.8328 -0.0358642 -0.696912 0.262689
22.8828 9.68734 24.0857 1.79107 -0.782271 -1.38414
25.6518 9.9107 22.8673 -0.583468 1.22475 1.82451
28.0238 10.6343 24.6143 -0.10019 -1.31551 0.487493
30.7928 10.8577 23.3959 -1.01324 -1.23401 0.0698752
9.85244 15.8317 23.8151 -2.00259 0.0652862 -0.481889
13.6433 14.0622 23.6622 0.122854 0.934781 -0.766192
14.5357 15.7719 26.0037 -0.403647 -2.30846 0.996973
10.957 13.0267 23.4772 0.290726 1.39176 0.455809
12.9539 11.9314 25.4809 1.90195 1.81178 -0.737355
11.8494 14.7364 25.8187 -0.600925 -0.804299 0.399315
18.3266 14.0025 25.8509 -0.925886 -0.0349106 0.974832
16.3297 15.0978 23.8472 -0.726657 -0.612247 0.265561
15.6403 12.9669 25.6659 -1.71679 1.696 0.476369
16.0373 12.4667 22.7004 1.69678 0.359095 2.03807
18.7237 13.5023 22.8854 -0.103395 -0.875567 0.15947
21.0956 14.2259 24.6324 0.870751 0.511802 0.885561
23.8647 14.4492 23.414 -1.11997 -0.0718098 0.584184
23.1752 12.3184 25.2326 0.702662 -0.019515 1.77293
25.9442 12.5418 24.0142 -0.00173636 -0.338851 -0.66701
25.0162 14.5845 26.0557 0.579932 -1.55832 0.528599
28.7132 12.7651 22.7957 -2.47455 0.617074 0.740855
29.32 15.7081 22.3805 0.701708 -0.772891 -0.691127
27.7852 14.8078 24.8373 -0.155443 -1.23125 -2.11281
29.8648 12.9004 25.4375 1.92444 -0.413003 -1.16465
31.3996 13.8007 22.9807 0.784131 -1.73997 0.18015
30.4716 15.8434 25.0223 0.314491 0.572304 -0.846709
8.74793 18.6366 24.153 0.912609 0.450107 1.75052
11.4343 19.6722 24.338 -0.443125 -2.29921 -0.841347
12.5388 16.8672 24.0001 -1.43109 -0.538832 0.83873
15.9147 20.0336 22.3665 -1.28509 -0.540172 -1.90835
17.9116 18.9383 24.3701 0.224651 0.777836 -1.06509
15.2252 17.9027 24.1851 1.32896 1.96098 -0.435874
19.0161 16.1333 24.0322 0.906462 0.514883 -0.923335
21.7851 16.3567 22.8138 -0.510427 0.469501 -1.946
20.8571 18.3994 24.8554 -1.17817 -0.563496 -1.21061
23.6261 18.6228 23.6369 -0.156094 0.270132 1.62531
25.7057 16.7153 24.2371 -0.20418 1.44641 1.05911
22.9366 16.4919 25.4556 0.803533 -1.17727 0.356044
26.3125 19.6583 23.8219 0.664417 -0.433605 1.73139
28.392 17.7508 24.4221 0.222895 0.551799 -0.0559469
32.0064 16.7437 22.5655 2.13037 1.13815 1.36093
31.0784 18.7864 24.6071 0.225989 0.163756 0.522499
9.35474 21.5796 23.7378 -0.785494 -0.880191 0.554475
9.96157 24.5226 23.3226 -0.528699 -1.55431 -0.603233
14.1207 20.7077 24.523 0.0815705 -1.7768 -0.564604
12.0411 22.6152 23.9228 -1.6305 0.402177 0.571751
16.8071 21.7432 24.708 -1.44389 -0.639477 -2.11947
17.0995 24.3743 25.8548 0.0505162 -0.769318 1.40255
14.7275 23.6507 24.1078 -0.984846 0.0185908 1.36695
21.5465 20.5302 23.0368 1.06949 1.07506 0.355588
18.601 21.0691 22.5515 0.763807 0.0229114 0.598374
21.839 23.1613 24.1836 -1.85044 0.417462 -0.223067
18.8934 23.7002 23.6983 1.66898 -0.640541 0.0425944
19.7526 21.2044 25.1932 2.41675 -1.07894 -0.528016
22.6981 20.6655 25.6785 -0.0127448 -0.457819 0.489448
24.2329 21.5658 23.2218 -2.18073 -0.327618 -0.341816
25.3845 21.701 25.8635 -0.249755 -0.386595 0.0345348
24.5253 24.1968 24.3686 -0.575173 1.48418 -0.528426
26.9193 22.6013 23.4068 0.829544 1.52667 -0.0572606
29.6057 23.6369 23.5918 0.423923 0.980907 0.202823
28.0708 22.7366 26.0485 -0.445779 -2.41192 -2.47536
28.9989 20.6938 24.0069 -0.698466 2.29265 -0.543178
32.2921 24.6724 23.7768 -0.563354 1.01255 0.791917
31.6852 21.7294 24.1919 -1.22186 -0.00744236 -0.382713
10.5684 27.4656 22.9074 1.50384 0.490384 -0.32795
12.6479 25.5582 23.5076 1.09517 1.49234 1.00992
10.854 26.2323 25.6641 0.686613 -1.20012 1.32825
12.9404 28.1892 24.6545 -1.68567 1.354 1.70262
16.8139 25.6076 23.0982 -0.281724 -1.16024 0.857139
17.1063 28.2387 24.245 -0.64198 0.470361 1.68687
14.7343 27.5151 22.498 0.442026 0.571712 -1.16896
15.0199 26.2818 25.2546 2.70546 -0.869473 1.38576
20.9798 25.6571 22.6887 0.39445 0.0479488 -0.331634
21.2722 28.2881 23.8356 0.40897 0.603704 1.58538
22.1314 25.7923 25.3305 0.607242 -0.857643 1.01774
19.1858 26.3312 24.8452 0.979717 0.992534 -0.102962
19.4783 28.9623 25.992 -0.339007 0.539593 0.392516
23.6662 26.6926 22.8737 0.208716 0.918074 1.3145
24.8177 26.8279 25.5155 0.350934 0.835622 0.678151
26.3526 27.7282 23.0587 1.23146 -0.984487 -0.718134
27.2117 25.2324 24.5536 0.470555 0.29761 -0.760024
29.039 28.7637 23.2437 0.760089 -1.4759 -0.855941
29.8981 26.2679 24.7386 1.10429 -0.858755 -1.3213
27.5041 27.8634 25.7005 0.719972 0.34195 -0.0953947
17.1131 32.1031 22.6352 -0.676409 0.11154 -1.63501
17.3987 30.8697 25.3919 -1.55815 -2.3457 -1.36516
15.0267 30.1462 23.6448 0.261296 0.615623 -0.431366
21.5646 30.9192 24.9824 -0.789438 -0.232015 0.87064
19.1927 30.1956 23.2354 -2.42485 1.31595 0.620363
22.2541 33.05 23.1638 -0.404159 -0.169354 -0.886442
19.4851 32.8267 24.3822 0.366307 1.03021 -0.664224
23.9586 29.3237 24.0206 -0.478398 1.70982 -0.0408278
24.251 31.9547 25.1674 -0.430369 0.472741 -0.519581
26.645 30.3592 24.2056 1.61533 -0.127412 -0.6528
16.9477 9.74081 29.4881 -2.1236 0.182426 -0.630339
17.3448 9.2406 26.5226 1.11322 0.726474 -1.53212
14.9508 10.8361 27.4845 -0.605471 -0.859423 -0.107909
19.7167 9.96418 28.2697 -0.861037 0.779551 -1.17044
22.4858 10.1875 27.0512 0.787678 -0.607339 -1.01057
13.8463 13.6411 27.8223 -0.102358 -1.12062 0.278182
17.6372 11.8716 27.6695 0.694912 1.97734 -1.85914
16.5327 14.6766 28.0073 0.124132 -2.65241 1.2805
15.8432 12.5458 29.826 0.853871 -0.254192 -1.27587
20.4062 12.095 26.451 2.03503 -1.53525 -1.73525
19.4782 14.1377 28.4926 -3.22778 -1.0734 0.371825
22.2472 14.3611 27.2742 1.23469 -0.664838 -0.177522
21.5577 12.2303 29.0928 0.369665 2.49082 -1.25448
24.3267 12.4536 27.8744 -0.217794 0.679493 -1.81255
28.9367 14.9431 27.479 -1.6611 1.17504 1.40443
26.1677 14.7197 28.6975 0.486684 0.423276 -0.836181
27.0957 12.677 26.6559 -0.538584 2.33085 0.680257
9.64033 20.3463 26.4945 0.890935 0.170513 1.54817
10.7449 17.5413 26.1566 -0.627368 -0.487858 1.53042
14.3236 20.2865 28.6831 0.880702 0.154306 -0.10752
13.4312 18.5769 26.3416 0.427196 1.16486 -3.14316
12.7418 16.446 28.1602 -1.50419 0.815872 -0.142214
11.6373 19.251 28.4981 -0.462002 -0.189654 0.566912
17.2221 16.8074 26.1887 -0.4661 0.504538 0.935771
16.1176 19.6124 26.5266 -0.743469 0.392881 0.0715115
15.4282 17.4816 28.3452 0.933906 -0.848382 -0.978867
18.3737 16.9427 28.8305 0.855405 1.22798 1.273
17.2691 19.7476 29.1683 -0.459845 -1.03943 -0.0940639
22.0086 18.5346 27.4971 0.0896903 1.71966 2.02426
20.1676 16.2686 26.674 0.802761 -0.249083 0.347377
19.0631 19.0735 27.0119 0.738507 2.06333 -0.546897
21.3192 16.4038 29.3158 2.42152 1.67091 1.2259
20.2147 19.2088 29.6536 -0.967568 -1.12866 -0.769999
24.7776 18.758 26.2787 -1.18365 -0.217915 2.09758
25.9292 18.8933 28.9204 -0.941878 0.953191 1.7144
24.0882 16.6272 28.0973 1.622 1.6731 -1.61306
26.8572 16.8505 26.8789 -0.562391 0.582163 1.9813
27.464 19.7935 26.4637 -0.358392 0.291937 -0.547401
28.0087 16.9858 29.5206 -0.407287 2.84629 0.666239
28.6156 19.9288 29.1054 1.89605 -0.41695 -0.895447
29.5436 17.8861 27.0639 0.941771 0.476298 -1.06414
10.5327 22.0559 28.8359 -1.18193 -0.858578 0.580486
10.2472 23.2893 26.0793 -0.0213516 -0.855906 0.0163285
13.2191 23.0915 29.0209 -1.05553 0.296134 -0.514871
12.9335 24.3248 26.2643 -0.51888 2.52645 0.661547
12.3267 21.3818 26.6795 1.83312 -0.0122652 0.131011
15.0131 22.4174 26.8645 -0.8509 -0.181796 1.78208
17.9586 21.8785 27.3497 1.11574 -0.112068 -0.040703
16.1646 22.5526 29.5062 -2.29189 -2.08597 1.21237
18.251 24.5095 28.4966 -1.31725 1.03654 -1.17484
20.9041 21.3396 27.835 0.732061 0.703724 1.14306
20.045 23.8354 26.3401 -0.433672 0.193428 -0.0483881
21.1965 23.9707 28.9819 -0.629672 -2.05654 -1.57839
23.8496 20.8007 28.3203 0.600915 2.3569 -2.87343
22.9905 23.2965 26.8254 -1.56436 0.943889 1.43467
24.142 23.4318 29.4671 -0.0632317 -0.877588 1.45836
25.6769 24.3321 27.0104 0.835735 1.91662 0.627485
26.536 21.8363 28.5053 -0.522943 -0.803363 -0.493976
29.2224 22.8718 28.6903 0.0207263 -0.402662 0.410643
26.8284 24.4673 29.6521 -1.68087 0.694503 2.87674
30.7572 23.7721 26.2335 -0.699797 0.793694 0.633145
30.1504 20.8291 26.6487 -0.835522 0.637674 1.20308
11.1396 24.999 28.4208 -1.0832 0.64487 0.021885
13.2259 26.9559 27.4111 -0.194414 -1.18524 0.644856
17.3919 27.0053 27.0017 0.632661 0.851448 -0.572828
15.3055 25.0484 28.0113 1.49263 2.05845 1.17245
15.5979 27.6795 29.1582 -0.0375581 1.16125 2.12842
15.3123 28.9128 26.4015 -0.649469 0.567989 -0.249386
20.3374 26.4665 27.487 0.38445 0.0740937 0.100892
20.6298 29.0975 28.6338 -1.044 -1.00951 0.45502
18.5434 27.1406 29.6434 -2.72898 -0.243614 -1.71154
22.4238 28.4234 26.4773 -0.433324 -2.54642 1.26673
23.2829 25.9276 27.9722 -0.182937 -0.500112 1.19899
23.5753 28.5586 29.1191 -1.57218 0.459634 1.99126
25.9693 26.9631 28.1572 1.39019 -0.903032 -2.54576
28.3632 25.3676 27.1954 -0.363916 -1.14003 -0.486501
17.6843 29.6364 28.1485 0.483604 -0.222614 1.66381
21.857 33.5502 26.1293 1.38928 0.00322921 3.5662
19.7707 31.5933 27.1389 -0.169427 0.176764 -1.07503
22.7162 31.0544 27.6242 1.03033 1.22248 -0.128387
25.1102 29.4589 26.6623 -0.0270165 0.846449 -0.025148
14.7387 15.3507 30.1638 -0.55656 0.311884 -0.584069
17.6842 14.8118 30.6491 1.89002 -1.09678 -1.77163
20.6297 14.273 31.1344 0.532075 0.595885 -0.193386
18.7887 12.0069 30.3112 -0.56709 -1.19434 -1.4268
23.3987 14.4963 29.9159 1.01523 1.20704 0.981342
13.6342 18.1557 30.5017 0.163895 0.337967 -0.474427
18.4207 19.8829 31.8101 -0.915377 0.0228324 -1.15968
16.5797 17.6168 30.987 1.10299 0.494664 0.239365
21.3662 19.344 32.2954 -0.226968 -0.156822 3.10248
19.5252 17.0779 31.4722 0.180311 1.16483 -1.16596
23.1602 18.6699 30.1389 -0.704453 -0.234177 1.49642
24.3117 18.8051 32.7806 1.05008 -0.830032 -0.674604
22.4707 16.539 31.9575 0.871626 0.41439 -0.333805
25.2397 16.7624 30.7391 -0.0791913 -0.498777 -0.36928
27.0807 19.0285 31.5622 1.16425 0.485812 0.369998
11.4252 23.7656 31.1774 -1.01885 -2.00585 -0.301295
14.3707 23.2267 31.6627 0.552862 -0.894058 0.129873
12.5297 20.9607 30.8396 0.789288 -0.736608 -0.651831
17.3162 22.6878 32.148 -2.39423 -2.99611 0.288269
15.4752 20.4218 31.3248 0.231042 2.55545 -0.451558
22.0557 21.4748 30.4767 1.66224 -0.922512 0.727388
19.1101 22.0137 29.9915 -0.980086 -0.642051 -0.305714
20.2617 22.149 32.6332 -0.384037 0.329004 1.04241
19.4026 24.6448 31.1383 -1.20177 -0.710478 0.652515
25.0012 20.936 30.962 -2.81847 0.660275 -1.66321
26.1527 21.0712 33.6038 -0.754307 -0.575899 2.19682
25.2936 23.567 32.1089 -0.866744 -0.319153 0.826088
23.2072 21.6101 33.1185 1.26046 -0.151855 -0.40746
22.3481 24.1059 31.6236 1.49818 -0.184252 -1.58242
27.6875 21.9715 31.147 -0.029621 -1.42782 -1.01579
13.5115 25.7225 30.1678 -1.0273 1.82619 0.546083
16.457 25.1837 30.6531 -0.408534 0.570977 0.774565
21.4889 26.6017 30.1287 -0.705778 -3.53237 -2.76646
24.4344 26.0628 30.614 1.19861 -0.461371 1.31555
ITEM: TIMESTEP
1000
ITEM: NUMBER OF ATOMS
561
ITEM: BOX BOUNDS ss ss ss
7.3441915437703278e+00 3.3617166067396695e+01
7.6163315632819177e+00 3.3147792657457643e+01
7.6938291237046021e+00 3.3160080721050505e+01
ITEM: ATOMS x y z vx vy vz
16.5018 15.132 10.7142 -0.24348 -0.478382 -0.254193
19.0911 14.1793 10.8967 0.62638 0.725168 -0.535292
24.4691 15.4747 10.342 0.035384 0.486358 0.368475
27.1769 15.0132 10.8133 -0.352841 0.404596 0.505362
13.2891 18.8452 9.6468 0.178122 0.73636 -1.43307
15.7122 19.9532 10.0482 -0.490886 -1.90507 -0.273211
14.5374 19.7235 7.52028 1.37999 0.950615 1.5541
15.4063 17.2391 8.92113 -1.25359 1.25063 1.15825
17.3433 19.1447 7.98299 0.6671 0.512771 0.233108
18.1518 16.8276 9.22063 0.599432 0.302987 1.28412
18.2952 19.5592 10.3744 -2.44117 1.79599 1.28102
21.5192 18.8657 10.8831 -0.0890171 0.478141 0.794571
20.116 18.626 8.66955 1.30414 0.112245 2.15817
21.0997 16.2466 9.76259 -0.31044 1.12763 0.872727
23.3557 17.8667 9.3043 -2.99405 1.2592 3.14546
25.4531 20.181 9.7073 -1.56225 -0.323455 -0.233486
29.1821 16.9682 9.79949 -1.44123 0.547149 3.34898
28.2805 19.3936 10.3219 0.243446 -1.56594 0.693065