ITEM: TIMESTEP
0
ITEM: NUMBER OF ATOMS
561
ITEM: BOX BOUNDS ss ss ss
9.0266308618504301e+00 3.1763369138149525e+01
7.0854073529075405e+00 3.3704592647092454e+01
6.9010025917630875e+00 3.3888997408236904e+01
ITEM: ATOMS x y z vx vy vz
17.1116 13.0768 10.7381 -1.66241 -1.20799 0.821396
18.9303 14.2231 8.82158 -0.0130458 -0.494167 -0.557602
21.1323 13.7134 10.6064 -0.58416 -2.1331 -1.51864
25.153 14.35 10.4747 0.518038 0.536023 -1.14395
14.3845 17.2526 10.648 1.20283 0.33973 0.880794
16.2032 18.399 8.73146 0.15759 2.01604 -0.850646
16.6574 15.7379 9.73477 -1.53245 0.239544 -1.10356
18.4053 17.8893 10.5163 1.50483 -1.81109 1.46457
18.476 16.8842 7.81827 0.385511 -0.20409 1.31457
20.6781 16.3745 9.60307 0.0886492 -0.599667 -0.829557
22.951 14.8597 8.68988 0.941421 0.675344 0.241354
20.7489 15.3694 6.90508 0.568017 -1.7104 0.616526
22.4967 17.5208 7.68657 -0.97766 -1.21879 -0.735461
24.6988 17.0111 9.47137 -1.27945 2.49156 0.928478
11.6575 21.4285 10.5578 1.81806 -0.111928 0.100492
13.9303 19.9138 9.64466 0.405914 1.06472 -3.14792
15.6782 22.0652 10.4261 -1.19225 0.882416 1.64875
17.951 20.5504 9.51295 1.16755 0.584325 0.248019
20.2239 19.0356 8.59976 -0.728668 -0.343777 1.52555
22.426 18.5259 10.3846 0.218983 1.20321 0.877543
21.9717 21.187 9.38125 2.37492 1.59132 1.23543
26.4467 19.1626 10.2529 0.828695 0.263542 -1.80095
24.2446 19.6722 8.46806 0.821521 1.16835 1.29044
25.9925 21.8237 9.24955 -0.494905 -1.07327 -0.115227
19.6989 22.7018 10.2944 -0.582781 0.570351 0.457254
23.7196 23.3385 10.1627 -3.30627 -1.12802 0.361112
27.7403 23.9751 10.031 0.192111 -0.295268 1.45491
13.4744 10.7841 14.5711 0.43995 0.631612 0.549426
13.0201 13.4452 13.5677 0.818567 -1.2999 0.454775
15.293 11.9304 12.6546 0.689469 1.90212 -1.74026
14.8388 14.5915 11.6513 -2.3399 1.20012 0.646008
17.4951 11.4208 14.4394 -0.366361 0.132609 0.0370437
17.0408 14.0819 13.436 0.577463 0.147221 0.315384
19.3137 12.5671 12.5229 -1.55009 0.0208177 -0.904575
21.5158 12.0574 14.3077 0.565743 -0.700606 0.891892
23.3344 13.2037 12.3912 3.0751 -0.751972 0.435134
25.5365 12.6941 14.1759 -0.712335 -0.609614 0.361156
27.3551 13.8404 12.2595 -0.124335 -0.52913 1.2561
29.5572 13.3307 14.0442 1.55229 2.16515 0.702082
10.7473 14.96 14.4809 -0.725208 0.308636 0.127198
10.293 17.6211 13.4776 1.14133 0.702937 -0.303685
12.5659 16.1063 12.5645 -0.34691 0.135112 -0.481791
14.768 15.5967 14.3492 0.749858 1.99269 -0.491334
14.3138 18.2578 13.3459 0.213102 0.402986 -0.00404798
16.5866 16.743 12.4328 -0.648369 1.24511 0.546271
18.7887 16.2333 14.2175 -2.49757 0.500998 0.834755
18.8595 15.2282 11.5196 -0.269075 0.458338 0.415426
21.0616 14.7185 13.3043 1.21979 2.35756 -0.564717
22.8094 16.87 14.0858 -1.42707 -0.109686 -3.1379
20.6073 17.3796 12.3011 0.675696 0.806865 -0.571983
22.8802 15.8648 11.3879 -1.2832 0.998781 -1.14705
25.0823 15.3552 13.1726 0.469337 0.895478 0.264902
26.8301 17.5066 13.9541 -0.426415 -2.46226 -2.44006
24.628 18.0163 12.1694 1.35463 0.074585 -0.0592373
26.9009 16.5015 11.2562 2.7563 -0.877043 1.39483
29.103 15.9918 13.0409 -0.0365162 -0.885381 1.50308
30.8508 18.1432 13.8224 0.503686 0.275807 -0.742057
12.0409 19.7726 14.2591 -2.1603 0.778257 0.54075
9.83882 20.2822 12.4743 -1.37268 1.62526 -0.142935
12.1117 18.7674 11.5612 1.18262 0.391205 2.33996
16.0616 20.4092 14.1274 0.992139 -1.26898 -0.116676
13.8595 20.9189 12.3426 -0.966238 0.353414 0.445747
16.1324 19.4041 11.4294 -1.75014 -0.617239 0.184528
18.3345 18.8944 13.2142 0.191773 1.55061 -0.477711
20.0823 21.0459 13.9957 -0.738053 -2.26552 -0.295084
17.8803 21.5555 12.2109 -1.27169 0.560544 -1.2834
20.1531 20.0407 11.2977 1.86813 -0.233027 -0.479455
22.3552 19.5311 13.0825 1.50864 2.0515 1.15416
24.103 21.6825 13.864 1.63829 -0.940447 0.712684
21.901 22.1922 12.0792 -0.142765 0.695923 1.14274
24.1738 20.6774 11.166 -1.09356 -1.11163 -0.459566
26.3759 20.1677 12.9508 1.11881 1.50899 0.976014
28.6488 18.6529 12.0377 -1.29908 0.424745 -0.168638
30.3966 20.8043 12.8191 -2.65716 -0.546063 0.396349
28.1945 21.314 11.0343 -0.344615 2.36866 0.930484
9.31382 23.9485 14.169 0.0432656 2.60221 -0.376724
11.5867 22.4337 13.2558 -1.83302 0.240404 0.449336
9.3846 22.9433 11.471 -1.2015 -1.99857 -1.28359
11.1325 25.0948 12.2525 0.898663 -0.131189 1.86762
13.3345 24.5851 14.0373 0.0983082 0.683951 -0.907122
15.6074 23.0703 13.1241 0.0603649 0.872911 -0.785755
13.4053 23.58 11.3393 0.0519049 -2.75275 1.26181
15.1532 25.7314 12.1208 0.862804 -0.918517 -1.03712
17.3552 25.2217 13.9056 -1.80651 1.65214 0.442574
19.6281 23.707 12.9924 -0.959078 -1.46947 0.97738
17.426 24.2166 11.2076 0.678964 0.9861 -0.0165203
21.376 25.8584 13.7739 -0.72832 -0.0633922 0.276218
23.6488 24.3436 12.8607 1.42676 -0.651501 -0.994536
21.4467 24.8533 11.0759 0.59136 -0.0979685 0.860645
25.9217 22.8288 11.9475 -0.158795 2.00874 1.19794
27.6695 24.9802 12.729 0.967008 -1.93742 -1.36384
25.4675 25.4899 10.9442 1.54882 1.61479 -1.64961
28.1238 22.3191 13.7323 -0.524614 2.5739 0.608552
29.8716 24.4706 14.5138 -0.636324 0.505165 1.60492
29.9424 23.4654 11.8158 0.80227 -1.24518 -0.888295
12.8803 27.2462 13.034 1.34705 0.535193 -0.0607069
14.6282 29.3976 13.8155 0.577322 -2.31521 1.368
16.901 27.8829 12.9023 0.809791 0.113505 -0.201948
19.1739 26.3681 11.9891 -1.67052 0.362015 0.480498
23.1238 28.0098 14.5554 0.049539 0.112634 0.644551
20.9217 28.5195 12.7706 -0.664529 -1.22551 -0.928754
23.1946 27.0047 11.8574 0.673477 -0.811051 -1.06542
25.3967 26.495 13.6422 1.9339 -1.55342 -1.77354
27.1445 28.6465 14.4237 0.589157 -0.0355142 1.71947
24.9425 29.1561 12.6389 -1.24487 0.947544 1.77944
27.2153 27.6413 11.7257 1.13532 -0.69773 -0.231833
29.4174 27.1317 13.5105 -0.458362 -0.166089 -1.93032
29.4882 26.1265 10.8125 1.41071 -0.0253836 3.45798
16.376 31.5491 14.597 0.37839 -0.139982 0.178668
18.6489 30.0343 13.6838 -1.5285 -0.567505 0.730542
20.3967 32.1857 14.4653 -0.525175 -2.32186 0.873379
22.6696 30.6709 13.5521 0.447096 -0.495691 1.2437
11.6557 9.63783 16.4875 0.124178 0.244916 1.34737
15.6764 10.2745 16.3558 0.808914 -0.962225 1.84637
13.8578 9.12816 18.2723 0.0947846 -0.489792 0.545855
17.8785 9.7648 18.1406 1.48542 -0.947972 -2.44416
21.8992 10.4014 18.0089 -0.18457 -0.615979 0.569997
11.1307 13.3041 18.1822 1.08871 -0.214484 0.889295
11.2015 12.2989 15.4842 -0.319966 -0.113233 0.958386
13.4036 11.7893 17.269 -0.400035 -1.26223 0.0628321
15.1514 13.9407 18.0505 -2.74541 -1.81567 -0.225074
12.9494 14.4504 16.2657 -1.11469 -0.491405 -1.38042
15.2222 12.9356 15.3525 1.54545 0.924059 0.520366
17.4243 12.4259 17.1373 1.73701 -0.676677 0.115127
19.1721 14.5773 17.9188 2.45358 -1.09392 -0.468761
19.6971 10.9111 16.2241 1.61669 0.0585778 -0.767614
19.2429 13.5722 15.2208 1.40177 -1.24896 -2.06092
21.445 13.0625 17.0056 0.128159 -0.244029 -0.279202
23.7179 11.5478 16.0924 0.268817 0.783548 -0.969248
23.2636 14.2089 15.0891 -1.05945 -0.575085 0.431828
25.4657 13.6992 16.8739 -1.16115 0.569686 0.605823
27.7386 12.1844 15.9607 -0.108012 -0.536321 -0.545676
25.9199 11.0381 17.8772 0.402624 -0.778354 0.0541058
29.4864 14.3358 16.7422 -1.60073 0.142075 -0.944869
31.7593 12.821 15.829 0.638606 2.39902 -2.78959
29.9407 11.6747 17.7455 2.16757 1.11958 1.4953
10.6765 15.9652 17.1789 -0.30123 -0.59279 -1.43589
12.4243 18.1166 17.9604 0.851743 1.42099 -0.025121
12.4951 17.1115 15.2624 1.33008 1.89525 -0.400147
14.6972 16.6018 17.0472 0.698156 -0.688938 2.37951
16.5158 17.7481 15.1307 -0.909495 0.546385 -1.28976
16.9701 15.087 16.134 -0.916108 -0.506276 2.02237
18.7179 17.2384 16.9155 -0.681098 -0.00256716 0.504131
23.1929 15.214 17.7871 -1.96519 -0.27516 -1.89721
20.9908 15.7236 16.0023 -0.943979 0.0204311 1.39518
22.7386 17.8751 16.7838 -0.24173 -1.15452 0.857758
20.5366 18.3848 14.999 0.0942207 0.1544 -1.54371
27.2136 15.8506 17.6554 -1.16918 -0.532439 -1.15464
25.0115 16.3603 15.8706 -0.386373 -0.146572 2.93379
27.2844 14.8455 14.9574 -0.971374 -0.312059 0.90755
28.9614 18.0021 18.4369 0.584733 0.257732 1.8082
31.2343 16.4873 17.5237 -1.7817 2.05113 0.414603
29.0322 16.9969 15.7389 -0.305941 -1.49013 0.394115
31.3051 15.4821 14.8257 -0.080873 -0.932236 -1.93929
9.69727 22.2925 17.8703 0.814271 0.42249 0.892849
10.2223 18.6263 16.1756 0.604501 0.537389 -1.50437
11.9701 20.7777 16.9571 -0.940866 -1.36091 1.57315
9.76805 21.2874 15.1723 0.318553 -0.642035 -1.19244
16.4451 18.7532 17.8287 0.0760829 -0.417625 -0.466168
14.243 19.2629 16.0439 -0.0524685 -1.71552 -0.257425
15.9908 21.4143 16.8254 2.17557 -1.28297 2.24576
13.7888 21.924 15.0406 0.133949 0.149256 0.672836
18.2637 19.8995 15.9122 -0.738415 -0.285467 0.83974
20.0116 22.051 16.6937 -0.163065 -1.3578 1.3373
20.4658 19.3899 17.697 -0.953597 0.19082 0.5163
22.2844 20.5362 15.7805 -1.06188 0.332078 -0.543017
24.4865 20.0265 17.5653 -0.336372 -0.322392 0.262426
26.2343 22.178 18.3468 1.0497 0.444695 0.874965
26.7593 18.5117 16.6521 -0.335862 2.06292 0.159624
24.5573 19.0214 14.8673 1.31786 0.0552955 1.81417
26.3051 21.1728 15.6488 0.184115 0.536892 -0.94712
28.5072 20.6632 17.4336 -0.150027 -0.833842 0.177839
30.7801 19.1484 16.5204 -0.0439067 -1.59467 -0.240659
28.578 19.658 14.7356 -0.528769 -0.813195 -0.480408
30.3258 21.8095 15.5171 -0.412489 -2.52203 1.22419
9.24304 24.9536 16.867 0.344134 0.714915 0.615801
11.5159 23.4388 15.9538 1.81075 0.992358 1.6276
13.718 22.9291 17.7386 -0.591502 1.48806 -0.71434
13.2638 25.5902 16.7353 1.42354 -0.595951 -2.08179
15.5366 24.0754 15.8221 0.645394 -0.9004 -0.694419
17.7387 23.5658 17.6069 1.50709 -1.63739 0.907507
19.4866 25.7172 18.3884 -0.28742 -0.695982 2.57195
17.8095 22.5606 14.9089 -0.430991 -0.630903 1.78066
19.5573 24.7121 15.6904 -0.69189 -0.276082 0.590483
21.7594 24.2024 17.4752 -0.859607 -1.28164 -1.17212
24.0323 22.6876 16.562 0.515099 -1.08281 1.08561
21.8302 23.1973 14.7772 1.39044 -0.31183 0.369394
23.578 25.3487 15.5587 0.646685 -0.153113 0.905598
25.7801 24.8391 17.3435 1.23682 -1.00503 -0.784204
25.8509 23.8339 14.6455 -1.01762 -0.624236 -0.353934
27.5988 25.9854 15.427 -2.34157 -2.03427 1.1334
30.2551 22.8146 18.2151 -1.04498 -0.766109 1.42996
28.053 23.3243 16.4303 -0.43933 -2.26457 -0.895052
29.8008 25.4757 17.2118 -0.531665 0.719343 -1.5261
10.9909 27.105 17.6485 0.797444 1.81872 0.552421
12.7388 29.2565 18.43 -0.925812 -1.86633 0.116535
11.0617 26.0999 14.9505 0.0329905 0.803829 0.672068
12.8095 28.2513 15.732 0.385008 0.373961 -2.61294
15.0116 27.7417 17.5168 0.0782442 0.32587 -0.773567
15.0824 26.7365 14.8188 0.939498 1.52413 0.280166
16.7595 29.8931 18.2983 1.33503 0.0862192 -1.30371
17.2845 26.2269 16.6036 -1.01085 0.892355 1.67025
19.0323 28.3783 17.3851 -0.652861 0.528654 1.9232
16.8302 28.888 15.6003 1.25118 -0.216156 -0.314356
19.1031 27.3732 14.6871 0.696761 -0.489619 -0.991458
23.5073 26.3538 18.2567 1.67213 -0.944133 0.626971
21.3052 26.8635 16.4719 -1.14126 0.708437 -0.993407
23.053 29.0149 17.2534 0.0641897 -0.880874 -0.410898
20.851 29.5246 15.4686 4.37387 -1.00694 0.387181
27.528 26.9905 18.125 -0.482775 1.73007 -0.141419
25.3259 27.5002 16.3402 0.0454675 -0.937405 0.600597
27.0738 29.6516 17.1217 -1.39254 -1.26507 -0.607844
29.3466 28.1368 16.2085 0.349188 0.117712 -0.00935493
14.5574 30.4028 16.5135 0.068622 0.136442 0.958317
16.3052 32.5542 17.295 2.10432 1.20598 0.0605649
18.5781 31.0394 16.3818 2.4989 -0.424283 0.319198
20.326 33.1908 17.1633 0.837086 0.242263 -2.21324
18.1239 33.7005 15.3785 -0.549556 -2.30729 -1.0047
20.7802 30.5297 18.1666 -0.267378 -1.279 -2.1896
22.5988 31.6761 16.2501 1.56992 0.362465 1.93662
24.8009 31.1664 18.0349 0.646956 -0.53304 0.868406
24.8717 30.1613 15.3369 1.64327 1.60439 -0.000520875
11.5849 10.643 19.1855 0.311044 2.26741 -1.81673
13.787 10.1333 20.9703 -0.572654 -2.53207 -1.54282
16.0599 8.61849 20.0571 -0.451374 1.55973 -0.616349
17.8077 10.7699 20.8386 -0.0541359 0.193149 -1.01385
20.0806 9.25513 19.9254 -0.936535 -0.987784 0.54546
18.262 8.10882 21.8419 -0.0874848 1.29965 -0.087612
24.1013 9.89177 19.7937 1.61269 0.574876 -0.261456
22.2827 8.74547 21.7102 0.0925996 -1.00149 1.6311
26.3034 9.38211 21.5785 -1.09324 1.4662 -0.394222
28.122 10.5284 19.662 -0.546743 0.665747 -0.186004
11.0599 14.3092 20.8802 1.70731 -0.207629 -0.609354
11.5142 11.6481 21.8835 1.10213 -0.853676 0.135843
13.3328 12.7944 19.967 1.21079 0.0416064 -1.75774
15.6057 11.2796 19.0538 0.0192757 -1.47729 -0.906005
15.5349 12.2847 21.7518 0.279662 1.63884 -0.0801277
17.3535 13.431 19.8353 1.12417 1.21109 -0.0870254
19.6264 11.9162 18.9221 -1.62098 0.672927 2.97155
19.5556 12.9214 21.6201 0.571653 -0.170329 1.70694
21.3742 14.0677 19.7036 0.294495 0.609022 1.0467
23.6471 12.5529 18.7904 0.104299 -0.34752 -0.435732
21.8285 11.4066 20.7069 -0.629966 -3.49175 -2.69217
23.5763 13.558 21.4884 -2.66608 -0.163979 -1.66851
27.6678 13.1895 18.6587 -0.865212 0.282643 -1.70774
25.8492 12.0432 20.5752 0.766958 -1.08778 1.37783
27.597 14.1946 21.3567 -1.03239 0.788891 0.0513361
31.6885 13.8262 18.527 0.787659 -1.73591 0.299151
29.8699 12.6798 20.4435 1.40508 0.17804 -0.788949
10.6057 16.9703 19.8769 -0.0104752 0.557077 0.231839
12.8078 16.4606 21.6617 -0.348488 0.431053 -0.511247
12.8786 15.4555 18.9637 0.929662 -0.747423 1.17961
14.6264 17.6069 19.7452 -0.00329788 -0.498298 0.525721
15.0807 14.9458 20.7485 1.86976 -1.21901 0.594655
16.8993 16.0921 18.832 -2.15297 -0.380234 -0.290379
18.6471 18.2436 19.6135 -1.83021 0.403532 -0.206757
16.8285 17.0973 21.53 -0.877955 -0.101814 1.21034
19.1014 15.5825 20.6168 -1.51319 0.469058 2.02226
20.92 16.7288 18.7003 0.335138 -1.86053 0.240693
20.8492 17.7339 21.3983 1.22859 -0.43131 1.33316
23.1221 16.2191 20.4851 1.0586 -1.7245 -0.386833
24.9407 17.3654 18.5686 -0.518164 0.48292 -1.89725
24.8699 18.3705 21.2666 0.890171 -0.852564 2.7977
25.3949 14.7043 19.5719 -0.24383 -0.0685218 -0.345398
27.1428 16.8557 20.3534 0.534247 1.19059 -0.892308
25.3242 15.7094 22.2699 1.52958 -0.0976177 -1.54354
29.4157 15.341 19.4402 0.0599345 -1.72274 -0.899114
31.1635 17.4924 20.2217 -0.940386 0.450712 -0.0218184
29.3449 16.3461 22.1382 -1.48318 -2.23093 -1.3703
31.6177 14.8313 21.225 -1.61398 1.50076 1.71774
10.0807 20.6365 21.5716 -1.67398 1.31828 0.425153
12.3536 19.1217 20.6584 -1.40468 -0.359635 0.524401
10.1515 19.6314 18.8736 0.26044 -0.637608 -0.154549
11.8993 21.7828 19.6551 0.229241 0.842984 1.28527
14.1014 21.2732 21.4399 0.814842 -0.219355 -0.122666
16.3743 19.7584 20.5267 2.07424 -0.303174 0.539451
14.1722 20.268 18.7419 -0.253831 -0.455589 0.0428958
18.1221 21.9098 21.3082 0.865371 0.531355 -0.927218
18.1929 20.9047 18.6102 -0.344012 -1.05619 0.809825
18.5764 19.2487 22.3115 -1.26363 0.271752 0.353016
20.395 20.395 20.395 -1.73584 -1.12997 1.1938
22.6679 18.8802 19.4818 1.08418 1.62048 -1.8069
22.2136 21.5413 18.4785 -0.844442 -2.09434 -0.304972
22.5971 19.8853 22.1798 -0.871014 -0.267304 0.830508
24.4157 21.0316 20.2633 -0.500679 0.364655 2.05568
26.6886 19.5168 19.3501 -1.41342 -0.439142 -0.626267
26.6178 20.522 22.0481 -0.467097 -1.29653 -0.0322362
28.4364 21.6683 20.1316 0.945536 -1.38877 -1.73016
30.7093 20.1535 19.2184 0.447855 0.671292 1.55939
28.8907 19.0072 21.1349 0.778281 0.57034 0.16901
30.6385 21.1586 21.9164 0.539448 1.73573 -0.159123
9.62649 23.2976 20.5683 1.73652 -0.527787 -0.382441
11.3743 25.449 21.3498 0.181453 -1.32494 0.695009
9.17227 25.9587 19.565 -1.40504 -0.855114 -0.74995
11.4451 24.4439 18.6518 -1.18953 -0.161225 0.572179
15.8493 23.4246 22.2214 0.743126 0.029784 0.560164
13.6472 23.9343 20.4366 0.239429 -0.196714 0.833222
15.3951 26.0857 21.2181 0.949894 -0.131408 0.140056
15.9201 22.4195 19.5234 0.613435 -0.890155 0.980538
15.4658 25.0806 18.5201 -0.827902 -0.464472 -0.642166
19.87 24.0612 22.0897 -0.811235 2.14121 -2.42678
17.6679 24.5709 20.3049 -1.59254 0.934964 1.38526
19.9408 23.0561 19.3917 -1.2254 -0.234494 2.08627
22.1429 22.5464 21.1765 1.12166 -0.347286 0.308525
23.8907 24.6979 21.958 -1.2211 0.439439 0.460667
21.6886 25.2075 20.1732 -0.266782 1.43936 1.03244
23.9615 23.6927 19.26 0.98148 1.0297 -0.165371
26.1636 23.1831 21.0448 -0.327531 -0.741298 -0.274374
27.9114 25.3345 21.8263 -0.0549035 0.986006 -0.909888
25.7093 25.8442 20.0415 0.0233225 -0.697729 1.32076
30.1843 23.8197 20.9131 -1.31643 -0.43432 -1.95828
27.9822 24.3294 19.1283 -0.132132 2.35612 0.155757
9.10149 26.9638 22.263 0.186118 1.19506 0.467118
10.9201 28.1102 20.3465 -0.0676195 0.712224 1.29314
13.1222 27.6005 22.1313 -0.00785635 -0.177026 -0.437392
13.193 26.5954 19.4333 -2.14614 1.3879 -0.288139
14.9408 28.7468 20.2148 0.771596 -0.157317 0.109772
17.1429 28.2371 21.9996 0.206935 1.26131 0.629466
19.4158 26.7223 21.0864 -0.606755 1.47857 -0.604162
17.2137 27.232 19.3016 -1.53099 -1.3112 0.131284
18.9615 29.3834 20.0831 0.0120701 -1.74108 -0.678505
21.1636 28.8738 21.8679 0.580766 0.269148 -1.37568
23.4365 27.359 20.9547 0.605391 -0.426936 1.67146
21.2344 27.8686 19.1699 1.04183 0.412206 -1.12107
25.1843 29.5104 21.7362 0.840292 0.193261 0.858581
27.4572 27.9956 20.823 0.669523 0.783845 1.05668
25.2551 28.5053 19.0382 -2.89771 0.694326 -1.74749
29.7301 26.4808 19.9098 -1.10865 -1.13559 0.998932
29.2758 29.1419 18.9065 -0.314457 -0.516039 0.258171
12.668 30.2616 21.128 -0.0657136 -0.304587 1.94404
14.4866 31.4079 19.2115 0.255111 0.0440774 -0.156178
16.6887 30.8982 20.9963 -0.1221 -1.22648 -0.842776
18.5073 32.0445 19.0798 -1.57337 0.242629 -1.32225
20.7094 31.5349 20.8646 -0.576468 0.552416 0.821002
22.9823 30.0201 19.9514 -0.00282545 1.7527 1.93053
22.528 32.6812 18.9481 -0.790927 2.25948 -0.662198
24.7301 32.1715 20.7329 0.685252 -0.190233 0.232517
27.003 30.6567 19.8197 1.00175 -0.3658 0.650098
29.2051 30.147 21.6045 1.04289 0.00261616 -0.160758
15.9891 9.62362 22.7551 -0.599698 -0.807289 0.036337
15.9183 10.6287 25.4531 1.21734 1.2685 0.550746
20.0098 10.2603 22.6234 -2.1936 -0.339493 1.28221
18.1912 9.11395 24.5399 0.263812 2.56766 -1.32515
20.464 7.59916 23.6267 0.880066 -0.156779 -1.11612
22.2119 9.75059 24.4082 -0.531645 0.438158 -0.460692
22.6661 7.08949 25.4115 -0.165122 -0.045953 3.25797
24.4848 8.2358 23.495 -0.0712071 -0.994097 0.423342
26.2326 10.3872 24.2765 -1.47431 0.972743 -0.03463
11.4434 12.6532 24.5815 -0.179664 0.0907 -1.87224
13.262 13.7995 22.665 -0.805012 -2.1672 0.236196
13.7162 11.1384 23.6683 0.552951 -0.275664 0.788957
15.4641 13.2898 24.4498 2.4978 0.329501 -0.0454863
17.2827 14.4362 22.5333 -1.29877 0.95907 0.861165
17.737 11.7751 23.5366 -0.67784 -0.768938 0.492644
19.4848 13.9265 24.3181 1.96763 -1.39842 -1.45868
19.939 11.2654 25.3214 -0.0912218 -1.77629 -0.736907
21.7577 12.4117 23.4049 0.341773 0.657162 0.963108
23.5055 14.5631 24.1864 0.499367 -1.20781 -1.12027
24.0305 10.8969 22.4917 -1.11927 0.310706 1.48545
21.6869 13.4168 26.1029 -0.9367 1.47117 0.982165
23.9598 11.902 25.1897 0.189841 0.492516 -0.388052
25.7784 13.0483 23.2732 -0.412232 -1.95351 -2.25799
25.7076 14.0535 25.9712 0.81616 -0.554976 -0.602768
28.0512 11.5335 22.36 0.888724 0.806854 1.47365
29.7991 13.685 23.1415 2.25397 -0.116074 0.0407384
27.9805 12.5387 25.058 -0.430744 -0.00562521 0.638144
29.7283 14.6901 25.8395 1.81818 1.26588 -1.12116
10.5349 17.9754 22.5749 -0.0504271 0.713046 -1.51425
10.9892 15.3143 23.5782 0.950366 0.420582 -0.978311
12.737 17.4657 24.3597 0.3005 0.524422 -0.774893
15.0099 15.9509 23.4465 -0.154468 2.38602 -1.11152
13.1912 14.8046 25.363 -1.66158 -0.635591 1.15804
14.9391 16.9561 26.1445 -0.707326 1.28188 1.5951
16.7577 18.1024 24.228 0.852783 0.316648 0.317315
19.0306 16.5876 23.3148 0.986754 -1.16728 -0.427996
17.212 15.4413 25.2313 2.24613 -2.30022 -1.3749
18.9598 17.5927 26.0128 -1.24324 0.284214 1.21357
21.3034 15.0728 22.4016 0.0219762 1.25137 2.15103
23.0513 17.2242 23.1831 -0.996787 1.95336 0.545965
21.2327 16.0779 25.0996 1.49579 -0.167643 -0.318444
22.9805 18.2294 25.8811 -0.349833 0.402225 -0.616178
27.072 17.8609 23.0514 -1.18403 -0.588967 0.661419
25.2534 16.7146 24.9679 -1.05098 3.24472 -2.46153
27.5262 15.1998 24.0547 0.183114 -1.14554 0.207742
29.2741 17.3512 24.8362 0.456326 1.6266 0.0549899
31.547 15.8364 23.923 -0.905055 0.930636 -1.08533
10.0099 21.6416 24.2696 -1.70138 0.253656 -1.54288
12.2828 20.1268 23.3564 -1.0719 -1.30607 0.133222
10.4642 18.9805 25.2729 1.88442 -0.462694 -1.09945
12.212 21.132 26.0544 -1.2278 -0.0509372 -0.370555
14.0307 22.2783 24.1379 -0.361538 2.5955 -0.330868
14.5557 18.612 22.4432 -0.190454 3.51678 -0.563593
16.3035 20.7635 23.2247 0.196968 0.61487 -0.172514
14.4849 19.6172 25.1412 0.192096 0.648442 -2.6271
16.2327 21.7686 25.9227 -2.14339 0.323658 1.99818
20.3242 21.4001 23.093 -0.330148 -0.161406 -0.253707
18.5056 20.2538 25.0095 -0.353396 0.243419 -0.147086
20.7784 18.739 24.0963 2.26094 -0.841095 -0.741989
22.5263 20.8905 24.8778 -0.0324255 -0.982952 0.737432
24.3449 22.0368 22.9613 1.11831 -0.840791 -1.34372
24.7992 19.3757 23.9646 1.24924 -0.0492895 -0.39619
26.547 21.5271 24.7461 -0.40777 0.467538 1.02286
27.0012 18.866 25.7494 -0.176774 0.344895 -2.1267
28.8199 20.0123 23.8329 -0.40066 0.729324 0.751205
30.5677 22.1637 24.6144 0.77759 1.34317 -0.942076
31.0927 18.4975 22.9197 0.323117 0.761007 -0.461838
31.022 19.5026 25.6177 -1.15362 0.0875835 -1.62967
9.55571 24.3027 23.2663 0.876048 0.209108 -0.0771036
11.8286 22.7879 22.3531 0.433217 0.501632 -1.05252
9.48493 25.3079 25.9643 1.62174 -0.680617 2.24872
11.7578 23.7931 25.0511 -0.802257 -0.567144 2.17324
13.5764 24.9394 23.1346 1.03473 1.06263 0.309252
13.5056 25.9445 25.8326 -0.404838 0.657522 0.00599359
15.7785 24.4297 24.9194 -1.05121 -1.89867 -0.377188
17.5971 25.576 23.0029 0.051919 -0.136956 1.11723
18.0514 22.9149 24.0062 0.854138 0.93752 -0.304131
19.7992 25.0664 24.7877 1.22807 0.398231 -0.960514
20.2534 22.4052 25.791 0.415152 1.11011 -0.736512
22.0721 23.5516 23.8745 0.434264 -1.47543 -1.28063
23.8199 25.703 24.656 0.972411 1.01732 -0.912018
26.0928 24.1882 23.7428 0.72569 0.399095 -0.15174
24.2742 23.0419 25.6593 2.51831 -1.50366 -1.87062
28.3657 22.6734 22.8296 0.39626 -0.700728 -0.516046
30.1135 24.8248 23.6111 -0.263604 0.501618 -2.19231
28.2949 23.6785 25.5276 -2.43087 -2.82573 0.235501
9.03071 27.969 24.961 1.03617 0.467499 0.909858
11.3036 26.4542 24.0478 1.79563 -0.721936 -0.382287
10.8493 29.1153 23.0445 -1.03454 -0.0396263 0.901801
13.0514 28.6056 24.8293 -0.2385 1.67578 -1.61443
15.3243 27.0908 23.9161 1.3721 0.551753 0.43537
14.8701 29.7519 22.9128 -0.918805 -0.137687 1.66286
17.0721 29.2422 24.6976 -1.38785 1.26392 0.8268
19.345 27.7275 23.7844 0.369274 0.0835014 -0.431374
17.5264 26.5811 25.7009 -0.0140646 -2.09781 -0.456021
21.0929 29.8789 24.5659 -1.10064 1.09178 -1.04505
21.6179 26.2127 22.8712 -0.659128 0.0849444 -0.240615
23.3657 28.3641 23.6527 0.946557 0.624461 1.04705
21.5471 27.2178 25.5692 -0.385771 -0.104431 -1.00714
25.6386 26.8493 22.7395 -0.217534 0.326903 1.56865
27.3864 29.0007 23.521 1.05701 -0.415951 -1.20917
25.5678 27.8544 25.4375 -0.59798 1.05117 0.718713
27.8406 26.3396 24.5243 -0.39139 -1.06286 -0.555929
29.6593 27.4859 22.6078 -0.782348 0.0608896 -1.87371
29.5885 28.4911 25.3058 -0.0447841 0.962768 -0.140709
18.8908 30.3886 22.7811 1.17419 0.591506 1.14011
22.9115 31.0252 22.6494 -0.404222 -0.590404 -1.52836
25.1136 30.5155 24.4342 -1.51661 -0.526265 -2.24697
26.9322 31.6618 22.5177 3.44747 -0.583968 0.301174
29.1343 31.1522 24.3025 0.74027 2.1365 -0.4112
18.1204 10.1191 27.2379 1.20864 -1.31262 0.0125456
20.3933 8.60428 26.3247 -0.0387068 -0.421734 -0.21562
22.1411 10.7557 27.1062 1.03113 1.31388 1.11715
24.414 9.24092 26.193 0.216832 1.30508 -1.03441
11.3726 13.6583 27.2795 -1.80167 -0.67621 0.644002
11.3018 14.6635 29.9775 -0.745096 -0.764004 0.591854
13.6455 12.1435 26.3663 0.261907 -2.61051 -0.0386846
15.3933 14.295 27.1478 -0.141747 -0.718631 0.0581933
13.5747 13.1487 29.0643 -0.531335 2.70861 0.414891
15.8475 11.6339 28.1511 -1.00415 -0.417808 -1.72761
17.6662 12.7802 26.2346 -0.84553 -0.161961 0.521093
17.5954 13.7853 28.9326 -0.334259 -1.77564 -0.0883397
19.8683 12.2705 28.0194 0.142516 0.868405 2.11978
21.6161 14.4219 28.8009 1.05897 -0.704571 -0.595363
23.889 12.9071 27.8877 0.491084 0.529796 -0.721306
26.1618 11.3924 26.9745 -0.879795 0.190092 -1.06524
27.9097 13.5438 27.756 1.88784 -0.91028 -1.68409
10.9184 16.3194 26.2762 -0.772679 0.371981 2.01322
12.6662 18.4709 27.0577 0.840713 0.0403799 0.43536
10.8476 17.3246 28.9742 0.73998 -0.566189 -0.932466
13.1205 15.8098 28.061 -1.89613 1.09342 0.598924
14.8683 17.9612 28.8425 1.74354 -0.72839 -1.31149
15.3225 15.3001 29.8458 -0.228295 -1.18059 -0.484009
17.1412 16.4464 27.9293 2.32557 -1.47603 -0.381425
19.414 14.9316 27.0161 0.682936 0.942927 0.327024
19.3433 15.9367 29.7141 1.96514 -0.249979 -1.53889
21.1619 17.083 27.7976 -2.6331 -0.405419 1.33911
23.4348 15.5683 26.8844 -1.06118 -0.567823 0.182167
23.364 16.5734 29.5824 0.854559 0.569148 -0.273507
25.1826 17.7197 27.6659 0.915721 0.64373 1.76272
27.4555 16.2049 26.7527 -2.00734 0.256732 -0.442801
25.6368 15.0586 28.6692 0.34431 2.64775 -1.16444
27.3847 17.21 29.4507 -0.254716 0.834987 -1.74208
29.2033 18.3563 27.5342 -0.629385 -0.596611 0.42378
31.4762 16.8415 26.621 -0.68533 1.63769 0.778476
29.6575 15.6952 28.5375 1.1002 0.711132 0.291972
31.4054 17.8467 29.319 0.227556 2.8024 -0.43682
10.3934 19.9857 27.9709 -0.168401 -1.10551 0.61165
12.1412 22.1371 28.7523 -3.24836 -1.19169 0.186744
12.5955 19.476 29.7557 -0.0953858 -0.655329 0.32321
14.4141 20.6223 27.8392 -1.2134 -0.405938 -1.28006
16.687 19.1075 26.926 -0.454381 -0.342395 0.471516
18.4348 21.2589 27.7075 -0.214577 0.975894 -0.776973
16.6162 20.1126 29.624 -0.644501 1.28133 1.88168
18.889 18.5978 28.7108 -0.947959 0.541192 0.333453
20.7077 19.7441 26.7943 1.04444 0.840451 -1.49057
22.4555 21.8956 27.5758 -0.597475 -2.90956 -0.43959
20.6369 20.7493 29.4923 -1.17874 -0.154816 -0.116847
22.9097 19.2345 28.5791 -1.07422 -0.184767 -0.213812
24.7284 20.3808 26.6626 0.907364 -0.165796 -0.0882019
24.6576 21.3859 29.3606 0.455218 1.34024 -0.289435
26.9305 19.8711 28.4474 0.883831 0.388515 1.53149
28.7491 21.0174 26.5309 -1.13384 -0.877928 0.422025
28.6783 22.0226 29.2288 -1.20147 -0.617007 0.534095
30.9512 20.5078 28.3157 -0.655608 -0.251581 1.51899
9.93916 22.6468 26.9676 1.11961 0.491161 0.367224
11.687 24.7982 27.7491 -0.475531 2.86193 0.649543
13.9599 23.2834 26.8359 -0.866145 0.633642 1.19308
15.7077 25.4348 27.6174 0.174611 0.166941 0.497517
13.8891 24.2885 29.5338 -0.889752 -0.75499 0.207784
16.162 22.7737 28.6206 0.425893 -0.148793 1.45325
17.9806 23.92 26.7042 -0.454409 1.05458 -1.51736
19.7284 26.0715 27.4857 -0.556977 -0.535817 1.83191
17.9098 24.9252 29.4021 0.011394 1.01725 -1.67947
20.1827 23.4104 28.4889 -0.310921 0.205033 1.93089
22.0013 24.5567 26.5725 -0.643816 0.21784 -1.73469
21.9305 25.5618 29.2704 -0.462117 -1.83472 -0.0642057
26.022 25.1933 26.4408 0.719461 0.0615319 0.0304294
24.2034 24.047 28.3572 0.219257 1.57221 0.423309
26.4762 22.5322 27.4441 1.26471 -0.464206 -0.608273
30.0427 25.83 26.3091 0.508693 -0.685955 0.0445358
28.2241 24.6837 28.2255 -1.81764 0.826951 -0.206591
30.497 23.1689 27.3124 -0.471871 0.0534205 -0.974507
11.2328 27.4593 26.7458 0.163271 0.154063 -1.17016
15.2535 28.0959 26.6141 -2.25749 0.269499 -0.681428
13.4349 26.9496 28.5305 -1.75261 1.1966 1.37429
19.2742 28.7326 26.4823 0.745137 -1.45596 -0.961936
17.4556 27.5863 28.3988 1.82849 -0.362611 -0.955637
23.2949 29.3692 26.3506 0.888554 0.559062 -1.2262
21.4763 28.2229 28.2671 -0.586277 0.174844 1.57786
23.7492 26.7081 27.354 -0.684325 -1.99926 -0.893902
25.497 28.8596 28.1354 -0.370207 -1.22306 -0.848919
27.7699 27.3448 27.2223 -0.944128 0.126116 -0.115494
25.9512 26.1985 29.1387 1.80699 2.00987 -0.786726
27.3156 30.0059 26.2189 -0.759678 0.870842 0.535891
13.0497 16.8149 30.759 -1.89658 -1.52664 -1.20142
17.0704 17.4515 30.6273 -2.08031 -1.13411 -0.373903
21.0911 18.0882 30.4956 0.530339 0.0633484 -0.353233
14.3433 21.6274 30.5371 -0.170712 -1.27407 0.529291
14.7975 18.9663 31.5404 -0.50018 -1.40235 -0.625132
16.5454 21.1178 32.3219 -0.0199033 -0.673513 -0.0236102
18.364 22.2641 30.4054 -0.613291 0.450861 0.688904
18.8183 19.603 31.4087 -2.73005 0.24757 -0.313281
20.5661 21.7544 32.1902 -0.997158 1.97418 -1.27259
22.839 20.2396 31.277 1.51421 -0.244713 0.518561
25.1118 18.7248 30.3639 0.488874 0.778788 -0.152249
26.8597 20.8762 31.1453 -0.637249 -0.985431 -1.40631
29.1325 19.3615 30.2322 -0.586785 2.48867 0.734458
16.0912 23.7789 31.3186 -0.55716 -1.86103 -0.762584
17.839 25.9303 32.1001 0.0765944 0.154366 0.294702
20.1119 24.4155 31.1869 -1.92096 -2.19486 1.65178
18.2933 23.2692 33.1034 0.317627 -0.959926 -2.77759
20.0411 25.4206 33.8849 1.14374 0.693343 -0.295401
22.3847 22.9007 30.2737 -0.689808 2.47015 -1.05213
24.1326 25.0521 31.0552 1.07494 1.4187 1.45591
22.314 23.9058 32.9717 0.0377258 0.228572 -0.943021
26.4055 23.5374 30.142 0.733277 -0.100161 -0.979473
24.5868 22.391 32.0585 1.67859 -0.376196 0.438266
15.637 26.44 30.3153 0.88667 -2.83137 0.483835
19.6577 27.0766 30.1836 0.878862 -2.33799 -3.13078
23.6784 27.7132 30.0519 -0.735202 0.505008 -2.23981
21.8597 26.5669 31.9684 -0.228342 -0.322953 1.80426
ITEM: TIMESTEP
1000
ITEM: NUMBER OF ATOMS
561
ITEM: BOX BOUNDS ss ss ss
9.2723590483211691e+00 3.1715434236494755e+01
7.7903264396034979e+00 3.2808907764025143e+01
7.8120314063184244e+00 3.3171940404342287e+01
ITEM: ATOMS x y z vx vy vz
17.057 13.3076 10.8869 -0.26063 -0.619192 0.99695
19.0373 14.2976 8.87021 0.426721 0.387373 -1.03045
21.1294 13.6536 10.4699 -1.72615 0.575311 1.57363
24.9608 14.5521 10.8142 -1.26596 0.295554 -0.654345
14.417 17.2455 10.9033 -0.232533 -0.328915 0.172019
16.182 18.2827 9.09001 0.817824 2.27105 0.916802
16.6091 15.6499 9.93846 0.997996 -1.59977 -0.151023
18.5086 17.9214 10.4793 -1.29611 -0.462345 -0.17144
18.5012 16.7856 8.06325 2.36227 -0.312418 1.57847
20.6731 16.3991 9.76533 -0.925666 -0.615002 0.582862
22.7971 14.9957 8.87094 -1.60743 0.671363 -0.541511
20.7907 15.3498 7.00473 -0.165055 2.35152 0.48165
22.4786 17.4517 7.78905 0.548854 0.833313 0.079723
24.5933 17.0075 9.49662 1.06585 -1.88125 -0.0177101
11.7726 21.3791 10.902 -1.21872 0.127671 0.660909
14.1298 19.8958 9.96035 1.62417 -0.812085 -1.32223
15.6252 22.1168 10.5891 0.245431 1.19425 1.5684
17.893 20.4927 9.66036 -0.379381 -0.994356 1.3229