ITEM: TIMESTEP
0
ITEM: NUMBER OF ATOMS
561
ITEM: BOX BOUNDS ss ss ss
7.2883313350540098e+00 3.1327718988491863e+01
6.5643226612724517e+00 3.4120936030117186e+01
7.3049035441843904e+00 3.3485096593503002e+01
ITEM: ATOMS x y z vx vy vz
16.5236 14.0175 11.6044 -0.192908 2.38086 -1.15245
18.3586 13.2897 9.50405 1.17061 0.522327 -0.223205
15.5558 12.4232 9.40673 0.0506151 0.0685327 -0.893204
21.1615 14.1562 9.60136 -0.709903 1.45 0.764339
14.5998 17.3344 10.1185 0.240424 1.65584 -0.18011
13.9031 14.5691 10.538 1.68822 -0.527801 0.457543
17.2203 16.7829 11.1848 -0.677677 -0.00936405 0.337273
16.9492 17.9538 8.56763 0.130171 0.138603 0.724383
19.0553 16.055 9.0845 -2.11912 0.261508 2.02027
16.2525 15.1885 8.98718 0.844096 0.285732 0.294072
20.0232 17.6494 11.2822 -1.75442 1.71464 0.502491
21.8582 16.9215 9.18182 -1.20413 -0.102476 -0.347006
24.661 17.7881 9.27913 -0.936326 0.315031 -0.028031
26.7672 15.8893 9.796 -1.18051 -0.84412 0.590306
23.9643 15.0227 9.69868 -0.638902 -0.792518 0.433049
29.57 16.7558 9.89331 0.199388 2.44541 -1.40427
15.2965 20.0997 9.69895 0.682429 -0.0223061 1.79309
13.6438 22.2457 10.8303 0.94853 0.793542 0.151099
12.9471 19.4804 11.2498 -0.869925 0.0131207 -0.060276
17.917 19.5482 10.7653 1.55656 -1.60417 0.935145
17.6459 20.7191 8.14808 -0.205329 -0.691613 2.61704
20.7199 20.4147 10.8626 -0.539549 1.5283 -0.686008
20.4487 21.5856 8.2454 -0.744922 -0.450113 -0.594755
22.826 18.5159 11.3795 0.148776 0.757668 -0.846791
22.5549 19.6868 8.76226 1.01989 1.5691 0.358435
19.752 18.8203 8.66495 0.777065 -0.452805 -0.910919
23.5227 21.2812 10.9599 0.0240186 0.727761 1.38268
25.6289 19.3824 11.4768 -2.62509 -0.592351 0.42401
25.3577 20.5534 8.85958 0.110134 2.67703 -0.322763
27.5435 21.3361 10.5679 1.0682 -1.81775 -0.410138
27.4639 18.6546 9.37645 -0.254925 -0.172716 -0.376259
29.6496 19.4373 11.0848 -0.872006 -0.29289 0.471612
14.3405 25.011 10.4107 0.325691 -0.147758 0.833478
16.9611 24.4594 11.4771 2.12266 -0.285944 0.505572
16.6899 25.6304 8.85986 0.945811 0.519851 -0.940441
18.6137 22.3135 10.3457 -1.76019 1.98229 0.360763
18.3426 23.4844 7.72853 0.648539 2.33766 -2.88522
15.9932 22.8651 9.2794 -0.778514 -1.26886 -1.15232
19.3104 25.0788 9.92619 0.0299001 0.601547 0.172547
21.4962 25.8615 11.6345 0.372408 -1.87943 0.185771
21.4166 23.18 10.4431 -1.36684 -0.510204 -0.639791
21.1455 24.351 7.82585 1.02049 -1.48674 -1.7234
23.2516 22.4522 8.34271 0.0567079 -0.315886 2.05206
23.3312 25.1337 9.53418 -0.96096 -0.863458 1.45142
25.5169 25.9163 11.2425 0.7201 0.832716 -0.605195
25.4373 23.2349 10.051 1.39108 0.071212 -0.0764766
19.0393 26.2498 7.30898 -1.33209 -0.342104 0.483963
18.4714 27.8232 9.65637 -1.65288 -1.15336 1.16105
16.122 27.2038 11.2072 -0.490217 1.47077 -0.571762
21.225 27.0324 9.01732 1.15146 1.57013 -1.84057
20.6571 28.6059 11.3647 -0.755365 -2.11549 -0.31824
23.4108 27.8151 10.7256 -0.260599 -0.369494 0.244581
16.098 10.0813 14.6411 -2.77589 0.143269 -0.302417
14.4454 12.2272 15.7725 0.479569 -0.0329502 -0.371452
14.1742 13.3982 13.1553 1.49322 -0.368575 0.518603
16.7948 12.8466 14.2216 -0.873571 -2.13981 0.174729
18.9009 10.9478 14.7385 -0.0534127 -0.787371 0.0100003
18.6298 12.1187 12.1212 0.314557 -1.10137 -2.72201
15.8269 11.2522 12.0239 -1.01399 1.84023 -1.24159
19.5976 13.7131 14.3189 0.260699 0.517823 -0.788269
21.7037 11.8143 14.8358 -0.517148 -0.135881 0.585843
21.4326 12.9853 12.2186 1.76026 1.10644 -1.15251
27.3094 13.5474 15.0304 0.87294 0.471082 1.77936
24.5066 12.6808 14.9331 0.743591 -0.695168 -0.630754
24.2354 13.8518 12.3159 -2.04623 0.0878287 -0.451797
30.1123 14.4139 15.1277 0.442799 1.13565 -0.223632
10.8689 17.69 15.4179 -0.277065 0.725648 -1.79797
15.1421 14.9925 15.3529 -0.327024 -1.32819 -0.75411
14.8709 16.1635 12.7357 -0.641805 -2.48292 -1.66045
13.2183 18.3094 13.867 0.761175 -0.0235184 0.0663443
12.5216 15.5441 14.2866 0.467348 0.661692 -0.180643
12.2504 16.7151 11.6694 -0.626836 -1.1286 -1.41427
18.4593 17.2063 15.9997 -0.062974 -1.62647 -0.266901
17.4915 15.6119 13.802 -0.938983 -1.38612 1.01856
15.8388 17.7578 14.9334 1.4576 -0.581905 -0.956444
23.0972 17.3449 13.9967 -1.81136 0.342454 0.489124
20.2943 16.4784 13.8994 0.0797507 0.964086 -0.743734
22.4004 14.5796 14.4162 -1.72053 1.12236 1.46999
22.1293 15.7506 11.799 1.87412 -0.485932 -1.09431
19.3265 14.8841 11.7017 0.183191 0.613838 -2.61943
25.9 18.2115 14.094 -1.29919 0.405341 -0.159552
25.2033 15.4461 14.5135 -0.9228 0.202893 -1.75053
24.9322 16.6171 11.8963 0.0321843 -1.82832 -0.923581
27.0383 14.7183 12.4132 0.871868 0.18825 1.56752
28.0061 16.3127 14.6109 -0.257296 -0.663854 0.499891
27.735 17.4836 11.9937 0.0620622 -0.423549 -0.485654
29.9207 18.2663 13.702 1.15796 1.16398 0.48208
29.8411 15.5848 12.5105 0.751358 -0.331152 -0.89381
11.2945 21.6263 12.3811 -0.365254 0.403462 0.999762
10.5978 18.861 12.8007 -0.578008 2.34975 0.695186
8.94509 21.0069 13.932 0.233914 2.67098 -0.504016
13.915 21.0747 13.4475 -0.381609 -0.137782 -1.87722
11.5656 20.4554 14.9983 1.25927 -0.0849574 -0.436984
19.156 19.9716 15.5801 -0.149783 -0.546758 -0.63684
18.8849 21.1425 12.9629 -1.61018 0.103064 -1.01647
18.1882 18.3772 13.3825 2.19356 -1.22224 2.25288
16.5355 20.5232 14.5138 -0.719017 -0.217947 0.81917
16.2644 21.6941 11.8966 -0.113471 -1.31706 1.33537
15.5677 18.9288 12.3162 1.99501 -1.51078 -1.7155
21.9589 20.8381 15.6775 -1.97961 -0.290632 -1.94774
21.6877 22.0091 13.0603 -0.503285 0.438792 -1.92863
20.991 19.2437 13.4798 -0.919341 -1.28987 1.57999
23.7939 20.1103 13.5771 -1.34282 -0.810092 -0.677475
25.9796 20.8929 15.2855 -0.607293 -2.07845 -1.57269
25.7085 22.0639 12.6683 -1.27484 1.02234 -1.18232
28.0857 18.9942 15.8023 -1.67021 0.632978 2.9065
27.8146 20.1651 13.1851 0.274098 0.54126 1.00277
30.0003 20.9478 14.8935 -0.162918 -0.832591 0.021558
29.7292 22.1187 12.2762 2.33266 -1.61709 -0.398456
9.64179 23.7723 13.5125 1.43855 0.708271 -0.0354403
7.29241 23.1529 15.0634 1.52992 -0.0927798 -1.64725
9.07386 25.3457 15.8599 -1.02956 0.779228 -0.0713515
14.8828 22.6691 15.6451 0.28511 -0.532443 -0.191589
14.6117 23.8401 13.0279 0.284728 0.918753 1.26591
12.2623 23.2207 14.5788 0.118144 0.241199 -1.60191
11.9912 24.3917 11.9616 -1.00598 0.390815 -0.583087
14.0438 25.4135 15.3753 -1.40174 -0.0362095 -3.21181
11.4232 25.9651 14.309 0.916478 0.252694 -0.169877
17.2322 23.2885 14.0943 0.0164615 -0.452989 0.472702
19.0137 25.4813 14.8908 -2.13116 -0.348639 -0.359914
16.3931 26.0329 13.8244 -1.50577 0.955592 1.39646
19.8527 22.7369 15.1606 1.44848 0.533355 0.497837
19.5816 23.9079 12.5434 -1.27785 1.21691 0.90802
21.7673 24.6905 14.2517 2.4579 -1.08573 -0.54211
23.953 25.4732 15.9601 -0.929154 0.028735 1.33786
23.8735 22.7917 14.7686 -0.31414 2.01843 0.144086
23.6023 23.9627 12.1514 -0.09771 -0.903243 0.181436
25.788 24.7454 13.8597 -0.254488 0.512425 0.362049
27.9738 25.5281 15.5681 -0.499509 0.89781 0.810209
27.8942 22.8466 14.3766 -0.838629 -0.366375 0.84234
27.623 24.0175 11.7594 1.17944 -0.967153 -1.3105
29.8088 24.8002 13.4677 -0.59756 1.12597 1.89385
13.7726 26.5844 12.7581 1.37117 0.100724 1.75433
13.2047 28.1579 15.1055 -0.541699 -1.11927 -0.889279
18.7425 26.6522 12.2736 -1.77794 0.406446 -0.257224
18.1746 28.2256 14.621 -1.13916 -0.22626 2.07941
17.9034 29.3966 12.0038 -0.150736 1.418 1.04581
15.5541 28.7772 13.5546 -0.327996 -2.52901 1.19563
20.9282 27.4349 13.9819 -0.895194 0.195208 0.483038
20.0892 30.1793 13.7121 0.226509 0.233303 0.653857
23.114 28.2176 15.6902 0.262012 0.490514 -0.045484
22.8428 29.3886 13.073 1.07104 -1.20762 -0.138843
23.6819 26.6442 13.3429 -0.196839 -1.17289 0.820149
25.8676 27.4269 15.0512 -0.61136 1.30764 0.500275
25.5965 28.5978 12.434 0.258706 1.58495 -0.503505
25.0286 30.1712 14.7814 0.276011 0.56537 -0.185705
27.7822 29.3805 14.1423 1.90475 -1.24932 0.528658
27.7026 26.699 12.9508 -0.630256 0.689792 0.646727
29.968 30.1632 15.8506 -1.0953 1.33892 -0.51318
29.8884 27.4817 14.6592 -0.102221 -1.41757 0.550366
14.9861 30.3507 15.902 -1.10682 1.01724 1.8228
17.3355 30.97 14.3511 0.40893 -0.512313 -1.22953
22.2749 30.962 15.4204 -0.26914 2.56811 -0.3399
19.172 9.77683 17.3557 -0.563983 -1.48759 -0.610059
16.6403 7.73935 19.8755 -0.338274 -1.22767 -0.511277
16.3692 8.91031 17.2583 -2.15761 -1.20912 -0.382131
22.246 9.4724 20.0702 -0.21955 -1.06758 0.332954
19.4432 8.60588 19.9729 -1.98974 -1.58386 -1.20491
25.0489 10.3389 20.1675 -0.664403 0.352705 -0.52713
14.7165 11.0562 18.3897 1.88211 -0.318078 -1.57504
13.0638 13.2022 19.521 0.97529 -0.76439 -0.661611
12.7927 14.3732 16.9038 0.801873 0.480146 -0.320931
18.0337 13.27 19.0364 -1.79081 -0.479007 0.188217
17.337 10.5047 19.456 -0.588082 0.0955037 1.68501
17.0659 11.6756 16.8388 1.00083 -0.799756 0.0553257
15.4132 13.8216 17.9701 -0.671605 -2.07571 -0.818201
20.8366 14.1365 19.1338 1.13928 0.53863 2.34047
22.9427 12.2377 19.6506 1.08718 0.473405 0.425654
22.6716 13.4087 17.0334 -0.475546 2.81387 0.726838
20.1399 11.3712 19.5533 1.82455 -0.431174 -0.846859
19.8687 12.5422 16.9361 0.879113 0.441969 -1.01063
21.9749 10.6434 17.453 -1.59043 0.869364 -0.105395
25.7456 13.1042 19.7479 0.503068 1.61234 -0.105546
25.4744 14.2752 17.1307 0.312953 -0.829139 -0.00964546
24.7777 11.5099 17.5503 0.0871282 0.379129 -0.435411
28.5484 13.9708 19.8453 0.37514 -0.832117 -0.439059
30.6546 12.072 20.3621 -2.70393 -0.552462 1.36493
30.3834 13.2429 17.7449 -1.11586 -0.359915 -0.16724
27.8517 11.2054 20.2648 -1.03915 1.35343 0.961303
27.5806 12.3764 17.6476 -1.13272 -0.711351 0.181278
11.14 16.5191 18.0351 0.290562 2.56443 -1.24007
13.7605 15.9675 19.1014 -0.0515119 -1.01117 0.734315
13.4894 17.1385 16.4842 2.52739 -1.55922 -1.85191
12.1079 18.1135 20.2328 -0.0283043 1.27013 2.06932
18.7304 16.0353 18.6169 1.28737 2.00848 -0.42863
17.0778 18.1813 19.7482 0.706161 2.11363 -0.548847
17.7626 14.4409 16.4192 -1.28206 0.66969 -1.25906
16.3811 15.4159 20.1678 1.83695 -0.108102 -0.480198
16.1099 16.5869 17.5506 -0.141099 0.792018 1.15949
21.5333 16.9018 18.7142 -0.0639887 -1.21846 -0.711499
21.2622 18.0728 16.097 0.593658 0.634358 -1.51354
20.5654 15.3075 16.5166 -0.976585 0.473 0.467353
24.3361 17.7684 18.8115 1.49292 2.14061 0.647973
26.4423 15.8696 19.3284 0.454502 0.572263 -1.17217
26.1711 17.0405 16.7112 2.72126 -0.867234 1.38316
23.6394 15.003 19.2311 2.15937 1.24417 0.222719
23.3683 16.174 16.6139 -1.38228 1.75377 -0.121694
28.3569 17.8232 18.4195 1.40223 -0.958382 -2.52282
28.2773 15.1417 17.2281 -0.253263 0.341118 -2.09445
30.463 15.9244 18.9364 -0.695027 2.2808 -0.973171
30.1919 17.0954 16.3192 1.09869 1.20255 1.55145
10.1841 21.4304 18.7469 -1.16896 -1.76714 -1.29538
7.83469 20.811 20.2978 -0.688978 -3.42767 -2.833
7.56355 21.982 17.6806 -2.69222 -0.131195 -1.79123
9.48736 18.665 19.1664 1.83093 -0.982138 -1.78831
9.21622 19.836 16.5492 1.07488 0.609734 0.204875
15.154 21.4982 18.2623 -0.839495 -0.103059 1.74107
12.8046 20.8788 19.8132 0.539321 0.289784 0.216974
12.5334 22.0498 17.196 -2.50177 0.61532 0.754966
14.4573 18.7328 18.6819 -0.143919 2.09058 1.20952
14.1861 19.9038 16.0647 1.01151 -1.87942 -1.33048
11.8367 19.2844 17.6156 -1.01524 1.94352 0.485051
17.7745 20.9466 19.3287 1.04578 -0.113708 0.797596
17.5033 22.1175 16.7115 0.917681 -0.67398 1.10677
16.8066 19.3522 17.131 -0.920707 0.640931 -1.3273
20.1239 21.566 17.7778 1.08067 1.07159 0.352695
22.23 19.6672 18.2947 0.0808057 -0.231655 -0.350543
19.4271 18.8006 18.1973 0.444169 0.610319 1.55917
24.4157 20.4498 20.003 -1.09855 -0.561116 0.377704
24.1446 21.6208 17.3858 -0.395385 -0.16092 2.89626
24.065 18.9393 16.1943 -0.107787 -0.981487 -1.97154
26.2507 19.722 17.9027 0.408085 0.0585726 0.100181
28.4365 20.5047 19.611 -1.54171 0.42499 1.99456
28.1653 21.6756 16.9938 1.22804 -0.502335 1.32532
30.5426 18.6059 20.1279 -0.197223 -0.520919 1.91181
30.2715 19.7768 17.5107 0.209537 -2.69466 -0.0943743
9.91293 22.6014 16.1297 0.959841 0.0704504 1.87176
9.345 24.1748 18.4771 0.737156 -1.06764 1.23463
14.3149 24.2425 17.9925 1.21163 2.45638 -0.660424
11.9655 23.6232 19.5434 0.0977978 -2.55486 1.25408
11.6944 24.7941 16.9262 0.938652 -0.750392 -1.02335
13.747 25.816 20.3399 0.738848 1.14583 -0.016287
19.2848 24.3103 17.508 -2.75377 -1.75473 -0.31383
16.9354 23.691 19.0589 -0.23001 -0.377779 0.0171716
16.6643 24.8619 16.4417 0.667153 -0.839778 0.973006
18.7169 25.8837 19.8554 0.0994217 -0.353446 -0.508722
19.5559 23.1394 20.1252 -0.441584 -1.17398 -0.0453718
22.3096 22.3486 19.4861 0.753343 -0.898413 1.73234
22.0384 23.5196 16.8689 1.71128 -0.641037 0.022026
21.4705 25.093 19.2163 -0.919313 -0.445416 1.94926
24.2242 24.3023 18.5773 1.38341 -1.21147 -2.13384
26.4099 25.085 20.2856 0.749617 -0.573018 0.992071
26.3303 22.4035 19.0941 -1.30982 -1.31355 -0.49018
26.0592 23.5744 16.4769 -1.67718 -1.12432 0.74845
28.2449 24.3571 18.1853 1.03849 0.891876 -0.838005
30.4306 25.1398 19.8936 0.745966 -0.654659 -0.9482
30.3511 22.4583 18.7021 -1.90948 0.994006 0.574106
30.0799 23.6293 16.0849 1.75725 -0.85382 -1.31519
11.1264 26.3675 19.2736 -1.61194 1.4632 1.60486
10.8553 27.5385 16.6564 -0.117398 -1.07442 0.547496
13.4758 26.9869 17.7227 -1.57745 0.494509 0.499375
15.2573 29.1797 18.5192 0.778784 -0.711675 -1.0383
12.9079 28.5603 20.0701 0.87453 0.0638504 0.358892
12.6368 29.7313 17.4529 -1.14669 -0.409889 -1.33562
18.4457 27.0547 17.2382 -0.289457 -1.01924 0.785117
16.0963 26.4353 18.789 -0.403478 -2.41355 -2.50318
15.8252 27.6063 16.1718 -0.474942 -0.794046 -0.526377
17.8778 28.6281 19.5855 -0.811513 -1.7775 0.176068
17.6067 29.7991 16.9683 0.398986 0.103072 -0.0772124
21.1994 26.264 16.5991 -0.653759 0.0298975 0.451727
20.6314 27.8374 18.9465 1.17129 0.842174 -0.359971
20.3603 29.0083 16.3293 -2.09618 0.889538 0.502752
22.546 29.791 18.0376 -1.00956 -1.30159 0.104561
23.3851 27.0467 18.3074 -0.328211 0.250793 -0.541891
26.1388 26.2559 17.6684 -2.33195 1.29058 0.580756
25.5708 27.8293 20.0158 -0.330457 0.437498 -0.562398
25.2997 29.0003 17.3986 -0.1418 3.49219 -0.595536
28.3245 27.0386 19.3767 0.286061 2.28929 -1.91856
28.0534 28.2096 16.7595 1.21567 0.0378893 -1.84049
27.4854 29.783 19.1069 -0.393583 -0.139028 -0.947751
30.2391 28.9922 18.4679 -1.10219 -0.10831 -1.63025
30.1595 26.3108 17.2764 -0.0577581 -0.771587 0.325343
14.4182 31.9241 18.2494 -0.65606 1.28333 1.49523
17.0387 31.3725 19.3157 1.25478 -0.63279 -0.198907
16.7676 32.5434 16.6985 0.619855 -1.55367 0.507461
16.1997 34.1169 19.0459 0.573228 -0.244752 0.624542
18.9533 33.3261 18.4069 0.326087 1.45846 0.415547
19.7924 30.5818 18.6767 1.71922 -0.667631 2.26211
19.5212 31.7527 16.0595 0.293024 0.138315 -1.13412
21.9781 31.3644 20.385 1.52819 -0.234414 -0.39662
21.707 32.5354 17.7678 -0.284757 0.306991 -0.674895
24.7318 30.5737 19.746 -2.19976 -0.388771 1.15037
24.4606 31.7447 17.1288 0.363802 0.578984 0.850753
27.2143 30.9539 16.4897 0.0873231 -1.08138 1.49005
15.2588 8.71434 23.6241 -1.14571 -0.429978 -1.80188
14.9876 9.8853 21.0069 -0.445714 -1.8143 -0.145137
17.8793 8.16277 24.6904 -0.517919 1.0301 -1.44535
17.6082 9.33372 22.0732 -0.589597 -0.586551 1.91965
16.9115 6.5684 22.4927 -0.671789 2.68542 0.367548
20.411 10.2002 22.1705 0.141577 0.125714 0.585652
22.5172 8.30145 22.6874 -0.735142 -0.416579 1.5686
19.7143 7.43493 22.5901 -0.870218 -0.794134 0.567373
25.32 9.16797 22.7847 0.715076 -0.213743 -1.20104
28.1228 10.0345 22.882 -0.225327 -1.86283 -0.775161
14.3028 13.6256 24.3358 0.905053 -1.13956 -0.468226
13.6061 10.8603 24.7554 1.06324 -1.31606 -0.0926321
13.335 12.0312 22.1382 0.0289882 0.834854 2.0316
11.6823 14.1772 23.2695 0.915111 1.28769 1.00087
19.2727 13.6934 23.8513 -0.550243 0.562693 0.961259
18.576 10.9281 24.2709 1.57805 0.416092 2.0845
18.3049 12.099 21.6536 1.12836 0.50486 0.864615
16.6522 14.245 22.785 1.44323 -1.65667 1.44268
15.9555 11.4797 23.2045 0.365175 1.08623 -0.699279
15.6844 12.6506 20.5873 -0.661922 0.166997 -1.67728
21.3789 11.7946 24.3682 2.50642 -0.359622 0.46776
21.1077 12.9656 21.751 0.877092 0.278362 -2.04293
23.2139 11.0668 22.2678 0.680017 -1.80237 0.269845
26.9846 13.5277 24.5628 -0.564435 2.56591 0.676492
24.1817 12.6611 24.4655 0.380251 0.468759 -2.48635
23.9106 13.8321 21.8483 0.0949741 0.203604 1.1004
26.0167 11.9333 22.3651 0.710872 0.476027 0.203097
28.8196 12.7998 22.4625 -0.518117 -1.39943 0.0251012
31.0053 13.5825 24.1708 -1.01448 0.409578 0.372683
30.9257 10.901 22.9793 0.577928 0.822381 0.334734
10.0296 16.3231 24.4008 0.10006 1.28671 -1.17761
9.7585 17.4941 21.7836 -0.964658 0.144985 -1.18926
14.9995 16.3909 23.9163 0.171901 1.34163 0.851144
14.7284 17.5619 21.2991 -1.10851 -0.998716 -0.465441
14.0317 14.7966 21.7186 2.20872 -0.841584 -0.762743
12.379 16.9425 22.85 0.490024 -0.122237 1.60653
11.4112 15.3481 20.6523 0.4064 0.476527 -0.816548
19.0016 14.8644 21.2341 -0.796595 0.451369 0.0790211
17.3489 17.0103 22.3654 0.744014 -1.1477 0.377138
22.7723 17.3253 23.5291 -0.76179 -0.0313762 -1.77342
19.9694 16.4587 23.4318 -1.23278 -0.536421 -1.19039
19.6983 17.6297 20.8145 0.550122 0.225062 1.78857
22.0756 14.5599 23.9486 -2.14753 1.449 -0.195737
21.8044 15.7309 21.3314 0.798006 -0.12251 0.220921
24.8784 15.4264 24.0459 -0.370316 -1.51162 0.390255
24.6073 16.5974 21.4287 -0.0777655 -1.64394 -0.224716
26.793 17.3801 23.1371 -1.0189 -0.626857 -0.282352
26.7134 14.6986 21.9456 -0.645246 0.471412 1.69099
28.8991 15.4813 23.6539 -0.390899 -1.19821 -0.442517
28.628 16.6522 21.0367 -0.0138634 0.797467 -0.00856949
30.8137 17.4349 22.7451 -1.91889 -2.36303 1.74034
30.7341 14.7535 21.5536 -1.21424 -0.313596 -0.0580027
10.7263 19.0885 23.9813 -0.356187 2.48416 0.911983
10.4552 20.2594 21.3641 0.820308 -1.15385 -0.885778
8.10582 19.6401 22.915 -1.02602 -0.898399 0.382157
9.88727 21.8329 23.7115 0.785201 1.29794 -0.960931
13.0757 19.7079 22.4304 0.620427 2.07076 -1.85572
14.8572 21.9006 23.2269 -0.254065 -0.518595 0.331612
18.3168 18.6047 24.5631 0.39406 0.0796441 -0.351728
18.0456 19.7756 21.9459 -1.04356 1.05901 -0.945623
15.6962 19.1563 23.4968 0.198065 -1.23333 0.735902
15.4251 20.3272 20.8795 0.0397354 -0.114478 -0.376185
17.4777 21.3491 24.2933 -0.338931 -0.459082 -1.49841
20.6661 19.224 23.0122 -1.68683 1.38273 0.43017
20.395 20.395 20.395 0.448992 0.539043 -1.02684
19.8271 21.9684 22.7424 0.0513065 0.359507 1.2187
22.8519 20.0067 24.7205 1.09772 -0.498481 -1.10206
22.5807 21.1777 22.1033 0.812088 2.02347 -0.285747
22.5011 18.4962 20.9119 1.53703 0.0985208 -0.857608
24.7665 21.9604 23.8117 1.10665 -0.086238 -0.0416276
24.6869 19.2789 22.6202 0.494186 -0.65863 0.818143
26.8726 20.0616 24.3285 0.665741 -0.14697 0.983404
26.6015 21.2325 21.7113 0.0959248 -0.958337 0.697869
26.5219 18.551 20.5199 -2.3107 -2.06333 1.22261
28.7872 22.0152 23.4197 -0.324307 -0.229884 -0.218676
28.7076 19.3337 22.2282 1.06215 1.19414 -0.131714
30.8933 20.1164 23.9365 0.0986506 -0.00696341 0.392165
30.6222 21.2874 21.3193 -1.8459 -0.745936 0.599985
9.61613 23.0038 21.0943 1.55124 0.62119 -0.42213
14.586 23.0716 20.6097 -1.58619 0.149918 -1.01909
12.2366 22.4522 22.1606 1.83136 0.111128 0.0747926
14.0181 24.645 22.9571 -1.16123 1.07013 1.62813
11.6687 24.0256 24.508 -0.607359 0.684799 -0.335238
11.3976 25.1966 21.8908 1.37325 0.169713 -0.918412
17.2065 22.52 21.6761 0.843647 1.52475 -0.0699292
18.988 24.7128 22.4726 0.690072 -0.596603 2.31489
16.6386 24.0934 24.0234 3.03288 -0.649249 0.330767
16.3675 25.2644 21.4062 0.460571 0.968635 0.179863
22.0128 22.7511 24.4507 0.373785 0.747063 0.439515
21.7417 23.9221 21.8335 1.50894 1.01133 0.429639
21.1737 25.4955 24.1809 1.417 0.142488 -1.21299
24.4953 23.1313 21.1945 -0.413698 0.196556 -0.0571853
23.9274 24.7047 23.5419 -0.181782 -1.2662 -2.07796
23.6562 25.8757 20.9246 -0.674009 2.24078 -0.532968
26.681 23.914 22.9028 0.136662 -0.892617 -0.305075
28.8668 24.6967 24.6111 -0.328284 -0.205175 -0.915804
28.5956 25.8677 21.9939 0.975521 0.42976 -1.11548
28.516 23.1862 20.8025 0.470108 -1.57044 -1.22539
30.7018 23.9689 22.5108 -0.922711 0.759661 -1.10828
13.179 27.3894 22.6873 -0.767994 0.422991 1.91598
14.9605 29.5822 23.4838 -0.190509 0.149132 -2.00686
18.1489 27.4572 22.2028 0.879192 1.93165 0.592354
15.7995 26.8378 23.7536 -0.537758 0.724069 0.444508
15.5284 28.0087 21.1364 0.665966 0.0285555 0.866639
17.581 29.0306 24.5501 -3.24382 -1.00688 0.355124
20.9026 26.6664 21.5637 -1.45765 0.270858 -1.21236
20.3347 28.2398 23.9111 0.252967 -0.219848 1.46782
20.0635 29.4108 21.2939 1.5011 0.0218815 3.48799
23.0883 27.4491 23.272 -2.17129 0.230222 -0.611297
22.8172 28.6201 20.6548 -0.0199183 0.74334 -1.56038
25.842 26.6584 22.633 1.69245 -0.172651 -0.679558
25.0029 29.4028 22.3632 -0.126587 1.27658 -0.237198
28.0277 27.4411 24.3413 -0.160358 0.207905 -2.13707
27.7566 28.612 21.7241 -1.08566 -1.04154 0.428196
30.7814 26.6503 23.7023 0.171601 -1.28441 0.166971
30.5102 27.8213 21.0851 0.475318 1.45701 0.0335286
14.6893 30.7531 20.8666 -1.64012 -0.604293 1.03947
17.3099 30.2015 21.9329 1.63707 1.70524 -1.63439
16.7419 31.775 24.2803 -0.373822 -1.90654 -0.0577553
16.4708 32.9459 21.6631 -0.615841 0.402913 -2.21198
19.2244 32.1552 21.0241 -0.520593 -2.99084 -0.465622
19.4956 30.9842 23.6413 1.08885 0.783208 -1.53468
22.2492 30.1935 23.0022 1.96876 -1.43606 -1.55484
18.8472 9.75714 26.8881 4.34835 -0.924032 0.517488
16.2266 10.3087 25.8217 -0.433371 0.248307 -0.129611
20.6821 9.02929 24.7877 -0.928897 0.619816 1.26135
23.485 9.89582 24.885 2.02773 1.07807 1.44561
14.574 12.4547 26.953 -1.40892 1.01249 0.800461
11.9534 13.0062 25.8867 -0.184418 -0.418271 -0.349688
17.1945 11.9031 28.0194 1.63374 1.67171 0.125072
16.9233 13.074 25.4022 -1.62172 0.419742 -1.14197
20.5117 14.1168 28.6662 0.142174 0.833975 -1.04349
22.3467 13.389 26.5658 -1.22268 -0.070657 0.644546
19.815 11.3515 29.0857 -1.56535 -1.24325 0.233941
19.5439 12.5225 26.4685 0.00690668 -1.70057 -0.555864
21.65 10.6237 26.9854 1.22919 -0.123829 -0.184299
25.1495 14.2555 26.6631 -1.06585 -0.306879 0.88401
27.2557 12.3567 27.18 1.04652 1.52997 1.02442
24.4528 11.4902 27.0827 -0.00219148 0.926065 0.776135
26.2878 10.7623 24.9824 0.436302 1.12352 -0.876286
29.1703 14.3103 26.2711 0.69425 0.290129 -0.0578964
29.0907 11.6289 25.0797 0.806975 -0.928041 2.83299
10.9975 17.9175 26.5985 0.785135 0.409078 -1.8358
8.6481 17.2982 28.1494 -2.45184 -2.83879 0.242508
10.3008 15.1522 27.018 -0.312288 -0.0350604 3.09122
13.618 17.3659 27.6648 -2.88132 0.739152 -1.66894
15.2707 15.22 26.5335 0.0109153 -0.431521 -0.873361
12.9213 14.6006 28.0844 -0.593526 1.66181 -0.752687
12.6502 15.7716 25.4672 -0.165909 0.268747 -1.13063
18.5879 17.4337 27.1803 0.0462447 -0.112709 1.17614
16.2385 16.8144 28.7312 -1.02359 0.0499673 0.992417
15.9674 17.9853 26.114 1.72075 -0.409123 -0.359597
17.8912 14.6684 27.5998 0.00521945 1.77671 2.04538
17.6201 15.8394 24.9826 0.723377 -0.192108 0.368266
21.2084 16.8821 28.2466 1.78709 -0.676812 -0.302497
20.9373 18.0531 25.6294 -0.214167 1.69057 -1.51422
23.3145 14.9833 28.7635 -0.36901 -0.776985 -0.214036
23.0434 16.1543 26.1463 -0.0658763 0.920671 -0.829745
20.2406 15.2878 26.049 -1.25554 0.592454 0.549118
25.2291 16.937 27.8546 -0.150773 2.31137 0.228742
24.958 18.1079 25.2374 -1.09551 -1.20464 1.09021
27.0641 16.2091 25.7543 1.60351 -0.914866 0.76402
27.3353 15.0382 28.3715 1.44321 2.1019 1.18589
29.2499 16.9918 27.4626 -0.0277461 -0.449242 0.462211
28.9787 18.1628 24.8454 -0.0723923 -1.46361 -0.969008
31.0849 16.264 25.3623 -0.643348 0.30786 0.759295
8.37696 18.4691 25.5322 0.515494 -0.729085 0.0708919
10.4295 19.491 28.9459 -1.23597 -0.576455 0.602614
10.1584 20.6619 26.3287 -0.422626 0.712606 0.711462
13.3469 18.5369 25.0476 1.04493 -0.347767 0.745348
15.1283 20.7297 25.8441 -0.452996 1.75309 -0.0867215
12.7789 20.1103 27.395 0.430588 0.0202301 0.274857
12.5078 21.2813 24.7778 -0.465622 -2.17273 -0.888143
14.5604 22.3031 28.1915 -0.457419 -2.19374 0.975515
17.7488 20.1781 26.9105 1.21796 0.612522 1.24009
15.3994 19.5587 28.4613 1.23405 -0.95133 -0.748001
20.3693 19.6265 27.9768 0.969376 0.592881 1.1367
20.0982 20.7975 25.3596 -1.46048 -0.584545 -2.13479
23.123 18.8358 27.3377 -0.206306 0.271491 1.65377
22.2839 21.5802 27.0679 3.50555 -0.640933 0.428686
25.3087 19.6185 29.0461 0.0265566 -0.730108 1.40006
25.0376 20.7894 26.4289 0.70288 0.722069 1.15541
27.2233 21.5721 28.1372 -0.680214 -0.232686 0.656972
27.1437 18.8906 26.9457 1.37795 -0.277646 0.428595
29.3295 19.6733 28.6541 -0.933123 -0.114595 1.20556
29.0583 20.8443 26.0369 -1.28762 0.230708 0.368272
31.244 21.6269 27.7452 0.80766 0.691764 1.40978
31.1645 18.9455 26.5537 -0.56524 -1.99242 -0.683192
14.2892 23.4741 25.5743 0.404506 1.28013 -3.18279
11.9399 22.8547 27.1252 0.300265 0.730664 -0.517691
13.7213 25.0475 27.9217 -0.8623 -0.744972 0.210352
13.4502 26.2184 25.3045 0.943087 -2.8471 0.505274
19.2591 23.5418 25.0898 -1.1517 -0.371393 -1.46035
16.9098 22.9225 26.6406 -0.50198 0.729807 -1.48734
18.6912 25.1153 27.4372 0.492279 0.308854 -0.785677
16.3418 24.4959 28.988 0.140284 2.22403 -0.900359
16.0707 25.6668 26.3708 1.18 0.765908 0.216333
19.5303 22.3709 27.707 -0.388578 0.0342702 0.856911
21.4449 24.3245 26.7981 0.130707 0.409772 -0.702545
24.4697 22.3628 28.7763 -0.986067 0.95869 1.73963
24.1985 23.5338 26.1591 -0.597656 0.567483 2.01147
26.9522 22.7431 25.52 -1.09834 0.722944 -0.906141
23.6306 25.1072 28.5064 -0.779116 -0.549806 2.20214
26.3842 24.3165 27.8674 0.0250398 -2.1445 -0.380402
26.1131 25.4874 25.2502 0.814249 -1.53118 -0.866645
29.1379 23.5257 27.2283 1.25312 0.324851 -0.888375
31.3236 24.3084 28.9367 -1.19102 0.226098 1.40506
31.0525 25.4794 26.3195 -0.453921 -2.06367 -2.31538
30.9729 22.7979 25.128 2.20229 -0.258097 -0.00251803
15.2316 28.4112 26.101 0.94992 -2.38855 -3.09898
18.4201 26.2862 24.82 0.395561 0.856858 0.636515
17.8521 27.8596 27.1673 2.40076 1.73755 1.20939
15.5028 27.2403 28.7182 0.0525553 0.991135 -1.66831
20.6058 27.0689 26.5283 -0.46413 -0.969172 -0.119866
20.0379 28.6423 28.8757 2.22775 -2.29848 -1.45743
19.7667 29.8133 26.2585 -1.22727 0.25542 1.14754
22.7915 27.8516 28.2366 -0.657507 -0.789769 -0.099663
22.5204 29.0225 25.6194 -0.704785 -0.779336 0.37533
23.3594 26.2782 25.8892 -0.351319 0.645727 0.0562664
25.5452 27.0608 27.5976 1.2912 -0.589805 -0.587333
25.274 28.2318 24.9804 -1.7572 0.672151 -0.16691
28.2988 26.2701 26.9585 -1.06446 3.13263 -2.49071
17.0131 30.604 26.8975 -0.253566 0.159003 1.91615
18.1623 13.4974 30.217 1.01802 0.465471 -1.02224
15.5418 14.049 29.1507 -0.121461 -0.298251 -0.620837
20.7828 12.9459 31.2834 -1.37324 -0.473397 -1.89039
22.6178 12.218 29.183 0.748282 0.540339 0.945734
23.5857 13.8124 31.3807 -0.572766 0.355714 2.09448
25.4207 13.0845 29.2803 -0.837865 -0.57625 0.319022
11.2686 16.7466 29.2157 -1.35163 2.66269 0.871672
13.8891 16.195 30.282 1.65305 -0.869749 0.683938
19.1302 15.0918 32.4147 0.746815 -0.139266 -0.100797
18.859 16.2628 29.7975 0.705958 0.0817391 0.600487
16.5096 15.6434 31.3484 0.165034 1.31126 0.539025
18.2911 17.8362 32.1449 0.932327 -0.0538944 0.202752
21.7507 14.5402 33.481 1.00673 0.53144 1.01425
21.4795 15.7112 30.8638 0.837669 0.281157 -0.0167804
20.9116 17.2846 33.2112 -0.848186 2.16383 -2.37188
23.6653 16.4939 32.5721 1.06995 -0.346251 0.356627
23.3941 17.6648 29.9549 -1.23963 0.41179 0.527766
25.5003 15.766 30.4718 0.999063 0.429777 0.928059
27.4149 17.7197 29.5629 -0.779149 -2.20146 -0.254356
13.0501 18.9394 30.0122 0.59853 -2.12489 1.44382
14.8315 21.1322 30.8087 -1.4905 -0.413296 0.813672
12.211 21.6837 29.7424 -1.53497 -2.23033 -1.44438
18.02 19.0071 29.5277 0.220915 1.30951 0.710814
15.6706 18.3878 31.0785 0.482285 -1.00115 1.10074
17.452 20.5806 31.8751 0.151496 0.6033 -0.947256
17.1809 21.7515 29.2579 -0.440526 -2.22317 -0.876088
20.6405 18.4556 30.594 -0.665449 0.0817959 -0.168801
20.0725 20.029 32.9414 0.592988 0.291204 -1.28076
19.8014 21.1999 30.3242 -0.360206 -0.595346 -1.41413
22.8262 19.2382 32.3023 0.604804 -0.428304 1.75926
22.5551 20.4092 29.6851 0.87025 0.163379 0.966368
21.9871 21.9826 32.0325 1.79987 1.13133 1.65786
25.5799 18.4475 31.6633 0.952947 1.02343 -0.103696
24.7408 21.1919 31.3935 0.637699 -0.804349 -0.64177
27.4945 20.4011 30.7544 -0.450367 -0.559266 1.82678
13.9924 23.8765 30.5389 -3.24928 -1.15335 0.170181
19.2335 22.7734 32.6716 -0.19667 -0.439501 1.17212
18.9623 23.9443 30.0544 -0.0781552 -0.823265 1.43801
16.613 23.3249 31.6052 0.497703 -0.375875 1.33296
18.3944 25.5177 32.4017 0.351819 -0.000262322 1.25014
15.7739 26.0693 31.3354 0.435845 -0.145837 1.44205
21.716 23.1536 29.4153 1.44384 -0.483226 -2.02858
21.1481 24.727 31.7627 -1.00796 -1.05879 -0.777772
20.8769 25.8979 29.1455 0.820162 1.29803 1.26521
23.9017 23.9363 31.1236 -1.70811 0.298032 -1.52933
26.6554 23.1455 30.4846 -1.04183 -1.91768 -0.320804
25.8163 25.8899 30.2148 0.903436 -0.263822 -0.0869489
29.409 22.3548 29.8455 0.848784 0.891466 -0.251818
28.57 25.0992 29.5757 0.453519 -1.28745 -1.16998
18.1233 26.6887 29.7845 -0.730433 -0.167685 1.48006
17.5553 28.2621 32.1319 -0.458449 -0.332106 0.419957
17.2842 29.433 29.5147 -0.188106 0.956954 -0.8081
20.309 27.4714 31.4929 2.44837 0.356418 -0.148536
23.0627 26.6806 30.8538 1.84448 1.8923 -0.732737
ITEM: TIMESTEP
1000
ITEM: NUMBER OF ATOMS
561
ITEM: BOX BOUNDS ss ss ss
7.8075988087289714e+00 3.0911987010580098e+01
7.4428546893375671e+00 3.3513531447958570e+01
7.6161347559744437e+00 3.3190208041981172e+01
ITEM: ATOMS x y z vx vy vz
16.6186 14.1512 11.7736 -0.133669 0.853251 0.73205
18.1878 13.3682 9.49408 -0.36004 1.4369 0.0891942
15.327 12.8034 9.59328 0.533864 2.00499 0.737202
21.1186 14.4974 9.78348 -0.333338 -0.260652 0.48246
14.6596 17.483 10.0745 0.0897408 -0.803436 -0.148376
13.967 14.87 10.4935 -0.737767 -0.203484 -0.697768
17.2344 16.8658 11.1373 -0.336356 -0.738749 2.86414
17.0538 18.0502 8.8103 -1.35436 -0.331626 1.77629
18.9841 15.9042 9.01423 0.936613 0.0598377 -0.85489
16.4103 15.3558 9.02045 -0.415725 1.08873 0.73832
19.9109 17.6204 11.0743 1.75805 -0.771054 -0.0862195
21.8631 17.0403 9.07697 1.27043 0.795127 -0.835337
24.7025 17.9972 9.31758 1.06568 -0.106216 0.855851
26.5502 16.0847 9.95052 0.188283 -0.0121453 0.611734
23.9984 15.2397 9.88339 0.730437 -0.533285 0.264909
29.4408 16.3296 10.4957 -1.41742 1.25337 0.869016
15.3668 20.2081 9.55349 -0.795009 -0.33557 0.0975501
13.6595 22.1943 10.6243 1.37821 -0.0344849 1.35045