ITEM: TIMESTEP
0
ITEM: NUMBER OF ATOMS
656
ITEM: BOX BOUNDS ss ss ss
5.5845263421546152e+00 3.4404241141548248e+01
6.1980273363195577e+00 3.4672069958473806e+01
5.8749073736901236e+00 3.5872803879036056e+01
ITEM: ATOMS x y z vx vy vz
21.2567 9.51406 8.8889 0.0848518 -2.64326 1.35754
18.9839 11.0289 9.80209 0.829959 -1.26531 -0.777987
18.5296 13.69 8.79879 -1.07545 -1.3372 0.1869
20.8025 12.1752 7.88559 -0.207265 3.46149 -0.525813
23.0046 11.6655 9.67039 0.90294 -0.827579 -0.926932
22.5504 14.3266 8.66708 0.189249 0.562325 -0.132363
16.2568 15.2047 9.71198 1.6404 -0.727023 2.352
15.8026 17.8659 8.70867 -1.56091 0.402643 2.00995
20.2775 15.8414 9.58028 -0.357449 2.53653 -0.270975
18.0754 16.3511 7.79548 -0.00975736 0.773435 -0.00260839
20.3483 14.8363 6.88229 -0.483647 -1.41622 0.0145619
19.894 17.4974 5.87899 0.173777 0.0481644 0.581678
24.2982 16.478 9.44857 0.854298 0.873223 -0.259259
22.0961 16.9877 7.66378 0.386662 -0.833397 -0.462944
13.5297 19.3806 9.62186 0.981714 0.868297 -0.796396
13.0755 22.0418 8.61856 0.470907 1.05802 -0.885008
17.5504 20.0173 9.49016 1.17938 -0.50398 1.32807
15.3483 20.527 7.70537 -0.0105712 -1.84469 -0.910814
17.6212 19.0122 6.79218 -0.478871 2.75417 0.728122
19.8233 18.5025 8.57697 1.38157 -0.958833 -2.52308
21.5711 20.6539 9.35846 -1.70003 0.64448 2.87242
19.369 21.1636 7.57367 -1.73938 1.08603 1.45374
21.6419 19.6488 6.66048 1.83105 -0.489308 -0.860815
23.844 19.1391 8.44527 -0.259402 0.353243 -2.12754
25.5918 21.2906 9.22676 -0.283267 -0.630757 0.442829
23.3898 21.8002 7.44197 0.86906 0.398282 -1.03898
14.8233 24.1932 9.40005 0.724678 0.430264 0.175668
17.0962 22.6784 8.48686 -0.995562 0.308695 -0.0333326
18.844 24.8298 9.26835 2.05479 1.0205 1.39316
21.1169 23.315 8.35516 1.82294 -0.499201 -1.11661
23.319 22.8054 10.14 0.217669 0.570561 0.960349
22.8648 25.4665 9.13665 -1.26446 -0.0995957 -0.386864
25.1376 23.9517 8.22346 0.232949 0.491353 -0.832343
27.3397 23.442 10.0083 0.0151372 -0.373806 -0.55425
26.8855 26.1031 9.00495 0.135866 0.604515 -2.6721
20.5919 26.9813 10.0498 0.691908 -1.83245 0.206519
24.6126 27.6179 9.91814 -0.893594 0.571606 1.17387
15.3466 8.73624 13.6351 -0.898408 -1.30516 1.66898
17.6195 7.22144 12.7219 1.5587 -1.62418 1.03515
17.1652 9.88255 11.7186 0.700629 -0.171459 1.04202
19.3673 9.37288 13.5034 -0.216912 -0.697313 2.69624
21.6402 7.85809 12.5902 -0.795825 -1.28282 -1.05003
19.4381 8.36775 10.8054 -2.26877 -2.06729 1.2737
23.8422 7.34842 14.375 -0.209859 -0.404594 0.10702
23.388 10.0095 13.3717 1.73537 -0.957128 0.745102
25.6609 8.49473 12.4585 -1.0251 0.352178 -0.486513
23.4588 9.0044 10.6737 2.73852 -0.85114 1.40719
12.6195 12.9121 13.545 0.688488 -0.869119 -0.560596
17.0944 10.8877 14.4166 -0.539781 1.5207 -0.604104
14.8924 11.3973 12.6318 -0.637358 -0.270741 0.723428
16.6402 13.5488 13.4133 -1.07388 0.699051 -0.849213
14.4381 14.0584 11.6285 1.86544 -0.19079 -0.404709
16.711 12.5436 10.7153 -1.0775 -1.08858 -0.380011
21.1152 11.5243 14.2849 1.11719 0.395592 -0.976052
18.9131 12.034 12.5001 0.112947 -0.962527 0.742524
20.6609 14.1854 13.2816 -1.30776 -1.29902 -0.456356
21.1859 10.5192 11.5869 0.42073 0.0647133 0.140211
20.7317 13.1803 10.5836 -1.17224 -1.85899 -1.20112
25.1359 12.161 14.1532 -2.8031 0.663665 -1.61455
22.9338 12.6706 12.3684 -0.610965 -2.0474 -1.54181
25.2067 11.1558 11.4552 -1.2878 0.434495 -0.14512
24.7524 13.8169 10.4519 0.860998 0.189502 -0.0913865
27.4087 10.6462 13.24 0.555619 -1.06665 1.13892
29.1566 12.7976 14.0215 1.28493 -0.999524 -0.718357
26.9545 13.3073 12.2367 -2.62893 -0.542251 0.421457
9.89243 17.088 13.4549 1.17216 0.476903 2.39224
12.1653 15.5732 12.5417 -1.74199 -0.550141 0.251392
11.7111 18.2343 11.5384 0.708951 -0.803556 -0.920159
14.3674 15.0636 14.3264 -0.949482 0.905276 1.79758
13.9131 17.7247 13.3232 -1.25486 0.612046 -1.20581
16.186 16.2099 12.41 -0.125577 0.723683 1.21433
17.9339 18.3613 13.1915 1.44773 -0.627986 -0.909217
13.9839 16.7195 10.6252 1.17414 -0.713878 -0.0854187
18.3881 15.7002 14.1947 0.136991 -0.893417 -0.265193
18.4589 14.6951 11.4968 -0.136106 2.00747 1.27417
20.2067 16.8465 12.2783 0.995469 -1.93126 -1.27196
18.0046 17.3562 10.4935 0.199321 0.0936042 -1.04739
22.0254 17.9928 10.3618 -1.03319 -1.94774 -0.312958
22.4088 16.3369 14.063 -1.69369 -1.09297 0.763014
24.6817 14.8221 13.1499 -1.29604 1.06009 -1.16775
22.4796 15.3317 11.3651 0.929317 -0.0103019 1.94005
24.2274 17.4832 12.1466 1.38652 0.642784 0.024523
26.4295 16.9735 13.9313 1.34077 0.129751 -0.080706
28.7024 15.4587 13.0182 0.0769391 2.73326 -0.337679
26.5003 15.9684 11.2334 -1.45595 -0.498747 0.841042
28.2481 18.1198 12.0149 -0.4463 -2.25552 0.987365
30.4502 17.6101 13.7996 0.0775437 0.932662 0.710528
7.61957 18.6028 14.368 2.18294 1.19293 0.277909
9.43821 19.7491 12.4516 -1.62994 0.387371 0.613915
11.6403 19.2395 14.2363 -0.956203 0.428982 0.510667
11.1861 21.9006 13.233 -0.617635 -1.20332 -0.784873
13.4589 20.3858 12.3198 -1.18994 0.936833 1.91604
11.2568 20.8954 10.5351 1.12967 0.0176669 -1.77901
15.661 19.8761 14.1046 -0.932814 -1.41914 1.04894
15.7318 18.871 11.4067 0.521576 -1.61408 0.603537
17.4796 21.0224 12.1881 -1.00632 -1.13498 -0.738243
15.2776 21.5321 10.4034 -0.570785 0.891691 0.831134
19.6817 20.5127 13.9729 1.96342 -1.53615 -1.68059
21.9546 18.998 13.0598 -0.41266 -0.178191 -1.83176
19.7525 19.5076 11.275 -1.70059 0.238701 -1.50224
21.5003 21.6591 12.0564 -0.794674 -0.588711 2.20131
19.2983 22.1687 10.2717 -0.89996 -0.351012 0.831813
23.7024 21.1494 13.8412 0.893013 0.767378 0.174556
25.9753 19.6346 12.9281 0.631087 -2.20511 1.45094
23.7732 20.1443 11.1433 0.0101295 -2.15629 -0.387306
25.5211 22.2957 11.9247 0.776752 -1.52762 -0.886818
26.0461 18.6295 10.2301 1.23738 0.326057 -0.908563
27.7231 21.786 13.7095 0.443883 -0.0499593 0.271081
29.996 20.2712 12.7963 0.392786 1.22375 -3.17145
27.7939 20.7809 11.0116 -0.35837 -0.184647 -0.950854
31.7439 22.4227 13.5778 -1.18736 1.03197 1.60779
12.9339 24.052 14.0145 0.499826 -0.487081 1.38194
13.0047 23.0469 11.3165 1.79651 -1.24759 0.566945
15.2068 22.5372 13.1013 0.345295 -0.101707 1.29768
16.9546 24.6886 13.8828 -0.753042 -0.251067 1.51183
14.7526 25.1983 12.098 -0.928021 -0.145711 1.18399
17.0254 23.6835 11.1848 -0.720923 0.701876 0.653263
16.5712 26.3446 10.1815 0.497751 1.58011 -0.146861
19.2275 23.1738 12.9696 0.795607 1.23113 1.28268
20.9753 25.3253 13.7511 -0.504068 -1.01071 -0.112538
18.7733 25.835 11.9663 -0.0170221 -0.462104 0.41188
21.0461 24.3202 11.0531 1.09125 -0.932222 -1.32851
23.2482 23.8105 12.8379 -0.388208 0.620149 0.0479343
24.9961 25.9619 13.6194 -2.2217 0.223569 -0.632268
22.794 26.4716 11.8346 0.711234 0.291789 -0.137761
25.0668 24.9568 10.9214 0.989171 -1.76277 -0.462612
27.2689 24.4471 12.7062 1.63205 -0.15633 -0.715339
29.5418 22.9323 11.793 0.92106 0.465563 -1.16479
29.0876 25.5934 10.7897 -0.320594 -0.106363 -0.460193
33.4917 24.5741 14.3593 0.686275 1.12489 -0.0458648
31.2896 25.0838 12.5745 0.21415 2.33612 -1.98004
16.5004 27.3497 12.8795 -1.30113 0.215874 0.334652
18.2483 29.5012 13.661 -0.36101 -0.225638 -0.265215
20.5211 27.9864 12.7478 -0.0813581 -1.45547 -1.02932
18.319 28.4961 10.963 0.288451 -0.835407 -0.0662515
22.269 30.1378 13.5293 1.0294 1.21053 -0.209897
24.5418 28.623 12.6161 -0.389991 -1.1739 -0.536004
22.3398 29.1327 10.8313 1.07781 0.452899 0.346829
26.7439 28.1134 14.4009 -0.0976483 0.752385 -1.59301
29.0168 26.5986 13.4877 -0.403667 0.46918 -0.613543
26.8147 27.1082 11.7029 0.832334 -0.905058 2.71174
19.9961 31.6526 14.4425 0.4108 -1.54405 -1.28339
20.0669 30.6475 11.7445 -0.962853 0.210521 -1.81605
13.0737 10.251 14.5483 -0.0794837 -0.992029 -1.87899
15.2758 9.74136 16.3331 0.121819 -0.245318 -0.262713
17.5487 8.22657 15.4199 0.489682 0.580789 1.6443
17.4779 9.23169 18.1178 -0.743909 0.356418 2.04513
19.8215 6.71177 14.5067 -0.80418 -0.15225 1.84647
21.5694 8.86321 15.2882 0.296673 -0.562661 -0.0944352
19.7508 7.7169 17.2047 -0.406888 -0.398536 0.539186
21.4986 9.86833 17.9861 -0.157329 0.903526 -0.699562
22.0236 6.20211 16.2915 1.09062 0.755858 -1.40918
25.5901 9.49985 15.1565 0.664342 -0.847507 1.04458
23.7715 8.35354 17.073 -0.533077 -2.9876 -0.358798
8.52802 13.2806 16.3746 1.13732 -0.127617 0.0576243
10.7301 12.7709 18.1594 -0.414858 -1.21268 0.0679878
13.003 11.2562 17.2462 0.779359 -0.916496 1.82448
10.8009 11.7658 15.4615 -1.06352 -0.586982 0.468797
12.5487 13.9173 16.2429 -0.382635 -0.170696 2.96365
14.7508 13.4076 18.0277 1.71412 -0.642533 0.105146
17.0237 11.8928 17.1145 -1.95128 -0.28661 -1.86932
14.8216 12.4025 15.3298 -1.33007 -0.803749 -0.604374
18.7715 14.0442 17.896 -0.499933 0.457762 -1.86523
19.2965 10.378 16.2014 -0.122052 -0.554788 -0.55904
21.0444 12.5294 16.9828 -1.59722 0.110257 -0.95231
18.8423 13.0391 15.1981 -0.764285 -0.433355 -0.528126
23.3172 11.0146 16.0697 0.276448 0.900974 1.34305
25.0651 13.1661 16.8511 0.297423 -0.144351 0.897155
22.863 13.6757 15.0663 0.0880699 1.71975 2.06596
25.5193 10.505 17.8544 0.290817 1.46373 0.504352
27.338 11.6513 15.938 -1.52088 0.959106 1.45161
29.0858 13.8027 16.7194 -0.528696 1.48997 -0.524741
26.8837 14.3124 14.9346 1.08967 -0.401998 0.776384
27.2672 12.6564 18.6359 1.88225 1.88912 -0.696115
6.25516 14.7954 17.2878 3.54039 -0.709086 0.53651
8.00302 16.9468 18.0693 0.399667 0.691568 0.532344
5.80094 17.4565 16.2845 1.19308 2.35387 -0.524288
8.0738 15.9417 15.3713 -0.512732 -0.867074 -0.387604
10.2759 15.4321 17.1561 -0.397592 0.171675 0.0271629
12.0237 17.5835 17.9376 1.37343 -1.21398 -2.05724
9.82165 18.0932 16.1528 -0.386142 -2.57853 1.31346
10.3467 14.4269 14.4581 0.342962 -0.568127 -1.08521
12.0945 16.5784 15.2396 1.83929 1.04862 1.72629
14.2966 16.0687 17.0244 -0.321518 2.01856 0.206076
16.0444 18.2201 17.8059 -0.125684 -0.875479 0.228338
16.5694 14.5539 16.1112 0.0121738 0.746242 1.43367
16.1152 17.215 15.1079 -0.582265 0.532909 2.05352
20.5194 16.1957 18.6775 -1.38033 -0.470457 -0.59583
18.3173 16.7053 16.8927 0.0249046 -0.276299 2.08576
20.5902 15.1905 15.9795 -1.45337 -1.28657 0.245977
20.1359 17.8516 14.9762 0.727971 -0.557448 1.01249
22.7922 14.6809 17.7643 -1.76655 2.00043 0.405181
24.5401 16.8323 18.5458 0.613963 2.37205 -2.84448
22.338 17.342 16.761 0.0935782 -1.72482 -0.556042
24.6109 15.8272 15.8478 0.783887 -0.224741 0.379711
26.813 15.3175 17.6326 1.01553 -0.08964 0.211234
28.5608 17.4689 18.4141 0.286742 1.28651 0.702573
26.3587 17.9786 16.6293 0.784608 -1.15954 0.373595
28.6316 16.4638 15.7161 0.646793 2.02561 -1.83061
30.8337 15.9542 17.5009 0.66432 0.27568 -1.28866
32.5815 18.1056 18.2824 -0.305406 -0.590309 -1.43653
30.9044 14.949 14.8029 -0.416103 1.71298 -0.0743326
32.6523 17.1005 15.5844 -0.237708 -0.533331 0.32759
7.54879 19.6079 17.066 -1.43105 -0.112584 -3.08177
9.29665 21.7594 17.8475 1.31238 0.0413548 1.85217
9.36743 20.7543 15.1495 -1.36625 1.71825 -0.0802658
13.7716 19.7349 18.7191 -0.950947 0.0393985 1.38745
11.5695 20.2446 16.9343 -0.157649 -0.52798 1.23749
13.3174 22.396 17.7158 -0.0593912 -0.892931 1.48749
13.3881 21.3909 15.0178 0.076618 0.935842 -0.711169
17.7923 20.3716 18.5874 -1.00578 -0.818351 1.47896
13.8424 18.7298 16.0211 1.46465 -0.542852 -1.9623
15.5902 20.8812 16.8026 0.136234 0.364524 -0.655826
17.8631 19.3664 15.8894 -0.187681 -1.27692 -2.03667
17.4089 22.0275 14.8861 -0.692261 -0.0296876 0.355057
20.0652 18.8568 17.6742 0.842568 0.514116 0.931566
21.813 21.0082 18.4557 -1.1414 -0.0772763 0.616466
19.6109 21.5179 16.6709 -0.698043 2.23535 -0.512003
21.8838 20.0031 15.7577 -2.36273 1.31715 0.587645
24.0859 19.4934 17.5425 -0.481481 0.548058 0.940853
25.8337 21.6448 18.324 -0.746822 0.454601 0.0467223
23.6317 22.1545 16.5392 -0.667967 1.35164 0.492486
24.1567 18.4883 14.8445 -0.295784 0.555568 0.362997
25.9045 20.6397 15.626 0.655574 0.892227 -0.615844
28.1066 20.1301 17.4108 0.727041 2.10795 -0.564132
29.8544 22.2815 18.1923 -0.914019 0.657847 -1.35484
28.1774 19.1249 14.7128 1.11685 1.54741 0.954021
29.9252 21.2764 15.4943 -0.508354 2.59723 0.59234
30.3794 18.6153 16.4976 0.546123 0.2683 0.21993
32.1273 20.7667 17.2791 -2.50425 0.610185 0.741095
34.4002 19.2519 16.3659 -1.58505 0.15034 -1.03337
32.1981 19.7616 14.5811 0.438812 0.494425 -2.55558
33.9459 21.913 15.3626 0.134682 0.247672 1.00375
11.0445 23.9108 18.629 0.194568 0.510486 -0.892584
11.1153 22.9057 15.931 -1.81369 0.329312 0.513472
12.8631 25.0571 16.7125 0.119796 0.760564 -0.83276
15.0652 24.5475 18.4973 0.489216 0.252737 -0.743422
17.3381 23.0327 17.5841 1.39821 0.115649 -1.17946
15.136 23.5423 15.7993 -1.77103 1.70127 0.515768
16.8839 25.6938 16.5808 0.73182 -0.441165 -0.907689
14.6818 26.2034 14.796 0.123804 2.12127 -0.858576
19.0859 25.1841 18.3656 -1.48629 0.261054 -1.19378
21.3588 23.6693 17.4524 -0.373291 0.269761 -0.535853
19.1567 24.179 15.6676 0.0929354 0.135246 0.725864
20.9046 26.3304 16.4491 1.69034 1.60999 0.0878207
21.4296 22.6642 14.7544 0.635556 -0.0353699 1.80085
23.1066 25.8207 18.2339 0.195036 0.52613 -0.0561279
25.3795 24.3059 17.3207 0.179231 1.64546 -0.522764
23.1774 24.8156 15.5359 -0.0664836 -0.363388 -0.645505
25.4503 23.3008 14.6227 -1.30704 2.56512 0.86272
27.1274 26.4574 18.1022 -0.735581 -2.16382 -0.336829
27.6524 22.7912 16.4075 1.49561 2.12097 1.10667
29.4002 24.9426 17.189 1.6355 -0.867833 0.671308
27.1981 25.4523 15.4042 0.80246 0.336825 -1.85031
29.471 23.9375 14.491 -0.469059 -2.21782 -0.902836
33.8752 22.9181 18.0606 0.0867203 0.254845 -1.62255
31.6731 23.4278 16.2758 -0.608729 0.527492 1.58836
33.4209 25.5792 17.0573 0.467353 0.645473 -1.27982
31.2189 26.0889 15.2725 1.80009 0.0755846 0.0417959
14.611 27.2086 17.494 0.968038 1.58666 0.353321
16.3589 29.36 18.2755 1.28916 -0.156099 -0.2344
16.4296 28.3549 15.5775 1.14006 0.685696 0.239279
18.6317 27.8452 17.3623 4.40324 -0.966464 0.468882
20.3796 29.9966 18.1438 1.62272 0.386486 2.01549
18.1775 30.5063 16.359 -0.591572 0.661483 0.451703
18.7025 26.8401 14.6643 2.34743 1.66503 1.22715
20.4503 28.9915 15.4458 -3.29739 -1.05238 0.360891
22.6524 28.4818 17.2306 -1.57365 0.379857 -1.18977
24.9253 26.967 16.3174 0.0455877 -0.478715 -0.912109
22.7232 27.4767 14.5326 0.190693 -0.246512 1.45467
24.4711 29.6282 15.3141 1.41464 0.0118578 3.45287
26.6731 29.1185 17.0989 0.186169 1.30575 0.791447
28.946 27.6037 16.1857 -0.354742 2.42218 0.872976
31.1481 27.094 17.9705 -0.997634 -0.563344 -0.386387
19.9253 32.6577 17.1405 0.588124 -0.0141332 0.85741
24.4003 30.6333 18.0121 1.46081 -1.67186 1.37094
22.1982 31.1429 16.2273 1.5467 1.66779 -1.63666
17.4071 10.2368 20.8158 -0.607302 2.33608 -0.937009
19.68 8.72202 19.9026 0.814814 -0.245809 -0.859783
21.9528 7.20723 18.9895 0.852995 -0.186433 -1.17457
19.6092 9.72715 22.6006 0.21197 1.22423 -1.07655
21.8821 8.21236 21.6874 0.744247 0.735839 1.74748
23.7007 9.35866 19.7709 -0.541537 0.395528 -0.517954
8.45724 14.2857 19.0726 1.07649 -0.167159 0.909766
10.6593 13.7761 20.8574 -0.0688929 0.180629 -1.01914
12.9322 12.2613 19.9442 -0.636707 -3.51083 -2.68501
12.8614 13.2664 22.6422 -0.0411335 -0.708426 0.398422
15.205 10.7465 19.031 -1.45121 -2.32013 -1.31634
16.9529 12.8979 19.8125 0.357805 0.648056 -0.407827
15.1343 11.7516 21.729 -0.536557 0.349003 0.791298
16.8821 13.903 22.5105 -1.82751 -2.29513 1.75398
19.2258 11.3831 18.8993 0.873064 0.0160058 0.478495
20.9736 13.5346 19.6808 -1.16098 -0.438607 -1.22509
19.155 12.3883 21.5973 1.16034 1.27906 1.56389
21.4278 10.8735 20.6841 0.244916 2.53859 -1.38343
23.2465 12.0198 18.7676 -0.242406 0.125829 2.00026
24.9943 14.1712 19.5491 -0.382089 -1.91505 0.0182598
23.1757 13.0249 21.4656 -0.0976887 -1.79614 -0.793696
25.4485 11.5101 20.5524 0.187538 0.439341 -0.441511
23.6299 10.3638 22.4689 -0.70757 1.11621 -2.03903
27.1964 13.6615 21.3339 0.821875 -0.613743 -0.651133
6.18438 15.8005 19.9858 1.45183 0.500549 0.612702
7.93224 17.952 20.7673 -1.28488 1.19921 1.0065
6.11361 16.8057 22.6838 -0.135452 2.34794 -1.05438
8.38647 15.2909 21.7706 0.272702 1.6223 -0.0705833
10.2051 16.4372 19.8541 0.928994 -0.708004 1.20291
12.478 14.9224 18.9409 -2.73885 -1.77393 -0.214495
10.1343 17.4423 22.5521 -1.2878 0.935286 0.870608
12.4072 15.9275 21.6389 0.564916 -0.191516 1.69355
14.2258 17.0738 19.7224 -2.13825 -0.355245 -0.275378
16.4987 15.559 18.8092 2.4383 -1.0682 -0.471988
14.155 18.0789 22.4204 0.0285439 1.21349 2.13978
14.68 14.4127 20.7257 -2.65284 -0.208328 -1.66183
16.4279 16.5641 21.5072 1.53479 -0.152566 -1.5333
18.2465 17.7105 19.5907 0.340214 -1.84167 0.238407
18.7008 15.0494 20.594 -0.566511 0.619831 -0.240966
20.4486 17.2008 21.3755 1.38738 0.124015 -0.837071
20.9028 14.5397 22.3788 1.19956 1.2581 0.483271
22.2672 18.3471 19.459 0.978854 -1.42611 -1.69063
22.7215 15.686 20.4623 0.481776 -0.192919 1.50007
24.4693 17.8374 21.2438 0.079973 0.957584 -1.61444
24.9235 15.1763 22.2471 -0.928533 1.42642 0.921778
26.7422 16.3226 20.3306 -0.643113 0.403852 -2.14343
29.015 14.8078 19.4174 -0.630893 -0.76615 -0.0801978
28.9443 15.813 22.1154 -1.97809 0.184014 -0.487755
30.7629 16.9593 20.1989 -0.697851 -0.738273 0.378187
30.6921 17.9644 22.8969 -0.595505 -0.675794 0.379059
5.65938 19.4668 21.6805 1.11839 0.455874 1.07651
7.40724 21.6182 22.462 0.930072 0.223941 0.0341087
9.6801 20.1034 21.5488 -0.0015118 0.603465 0.258627
5.73016 18.4616 18.9825 -1.12396 -0.444577 -1.34587
7.47802 20.6131 19.764 0.691569 -0.651524 2.40129
11.428 22.2548 22.3303 -1.37861 -0.319427 0.554003
11.953 18.5886 20.6356 0.0110611 -0.4703 0.556085
13.7008 20.74 21.4171 2.09009 -0.286354 0.573882
9.75087 19.0983 18.8508 1.51103 0.9724 0.507544
11.4987 21.2497 19.6323 -0.928629 -0.461807 2.00693
15.9737 19.2253 20.5039 -1.8061 0.414697 -0.188002
17.7215 21.3767 21.2854 -1.70132 -1.12221 1.21039
15.5194 21.8864 19.5006 -0.241021 -1.14057 0.856576
19.9944 19.8619 20.3722 1.09672 1.61339 -1.79585
21.7422 22.0133 21.1537 -0.47018 0.352914 2.05349
18.1757 18.7156 22.2887 -1.15578 -0.652008 0.665885
24.0151 20.4985 20.2405 -1.26211 -0.486259 -1.9136
22.1965 19.3522 22.157 -1.60729 1.43049 1.66247
23.9443 21.5037 22.9385 -0.137786 -1.08083 0.593828
26.288 18.9837 19.3273 0.256161 1.27006 0.528279
28.0358 21.1352 20.1088 -0.948182 0.0306288 0.965137
26.2172 19.9889 22.0253 0.954376 -2.39288 -3.0551
27.965 22.1403 22.8068 -0.201937 0.153468 -1.98173
28.49 18.4741 21.1121 0.52198 -0.224082 0.668271
30.2379 20.6255 21.8936 2.46892 0.368061 -0.158293
30.3087 19.6204 19.1956 1.26048 0.609422 1.21505
32.0565 21.7718 19.9771 -0.310849 -0.440977 -1.52889
34.3294 20.257 19.0639 -0.353525 0.0546006 0.811668
32.5107 19.1107 20.9804 1.94656 -1.37523 -1.56024
34.2586 21.2622 21.7619 1.48767 -0.160283 -0.420996
9.22587 22.7645 20.5455 0.0831254 -0.391731 -0.427467
10.9737 24.9159 21.327 -0.324247 -1.03773 0.846919
13.2466 23.4011 20.4138 -0.683843 0.0293362 0.49964
12.7924 26.0623 19.4105 -0.415241 -2.28869 -0.83662
15.4487 22.8915 22.1986 0.897492 0.534122 -0.882065
17.1965 25.0429 22.9801 -0.760744 2.12644 -2.37076
14.9944 25.5526 21.1953 -0.944283 0.211553 0.515884
17.2673 24.0378 20.2821 -0.324405 -0.322485 0.26805
19.4694 23.5281 22.0669 1.15417 -0.353349 0.333223
21.2172 25.6796 22.8484 -1.16723 0.419539 0.48881
19.0152 26.1892 21.0636 1.06627 0.430852 0.881964
19.5402 22.523 19.3689 -0.747724 -0.575297 0.283299
21.288 24.6744 20.1504 -0.994764 -0.289381 0.831366
23.4901 24.1648 21.9352 -0.286977 -0.75837 -0.261957
25.238 26.3162 22.7167 -0.00474137 0.950869 -0.890486
25.763 22.65 21.022 0.228193 0.834052 -1.0846
23.5609 23.1596 19.2372 -2.08287 1.45458 -0.235855
25.3087 25.3111 20.0187 0.832584 -0.0939873 0.164397
27.5108 24.8014 21.8035 -1.18451 0.61085 0.48752
29.7837 23.2866 20.8903 1.76678 -0.409385 -0.397137
27.5816 23.7963 19.1055 1.31006 2.02378 -0.474123
29.3294 25.9477 19.887 -0.0554394 -1.58106 -0.327914
31.5315 25.438 21.6718 0.229543 -1.21325 0.679599
33.8044 23.9233 20.7586 0.847775 1.55344 -0.120331
31.6023 24.4329 18.9738 -0.732875 -0.180567 0.769217
31.9857 22.7769 22.6751 2.22922 -2.26014 -1.4776
12.7216 27.0674 22.1085 -1.19084 -0.230026 2.12176
14.4694 29.2188 22.89 -0.225698 1.426 1.07679
16.7423 27.704 21.9768 -0.824786 -2.07363 -0.297567
14.5402 28.2137 20.192 -0.496327 0.671514 -1.4607
16.2881 30.3651 20.9735 3.00641 -0.68527 0.336126
16.8131 26.6989 19.2788 0.37299 0.816318 0.658872
18.4902 29.8555 22.7583 1.00376 1.02606 -0.154464
20.763 28.3407 21.8451 -0.0994161 2.32338 0.170119
18.5609 28.8503 20.0603 0.835095 1.90486 0.599906
20.8338 27.3355 19.1471 1.11366 0.847866 -0.359316
22.5109 30.4921 22.6266 -1.06071 -1.16293 1.01363
23.0359 26.8259 20.9319 -0.321489 -1.47246 0.324369
24.7837 28.9773 21.7134 -0.0497993 -1.58683 -0.303423
22.5816 29.487 19.9286 -2.16229 0.912547 0.485452
24.8545 27.9722 19.0154 0.981405 -1.14862 -0.16412
29.2587 26.9528 22.585 -1.18167 -0.496621 -1.2609
27.0566 27.4625 20.8002 -0.0462605 -1.16865 -0.779741
28.8044 29.6139 21.5817 0.589256 0.695212 -1.59395
26.6024 30.1236 19.7969 -0.424494 -0.523714 1.72882
28.8752 28.6088 18.8837 1.39418 -0.229209 0.328792
33.2794 27.5895 22.4533 0.0519184 -0.0808033 -0.443583
31.0773 28.0992 20.6685 2.17341 -1.16075 2.16815
33.3502 26.5844 19.7553 -0.149278 -1.25838 1.26867
18.0359 32.5166 21.755 0.42319 0.944473 0.170789
19.7838 34.668 22.5365 -0.457702 -2.40848 -2.51789
20.3088 31.0018 20.8418 -0.869581 -1.77393 0.170109
18.1067 31.5114 19.057 2.5421 -0.373592 0.400436
19.8546 33.6629 19.8385 0.898587 0.279657 -2.11649
22.0566 33.1532 21.6233 0.316867 0.117592 -0.0972489
24.3295 31.6384 20.7101 0.132478 0.276072 0.621074
22.1274 32.1481 18.9253 1.15474 0.492425 0.784888
26.5316 31.1287 22.4949 1.49558 2.20204 0.551276
21.8113 9.21748 24.3854 0.0202552 -1.9494 0.194752
21.7405 10.2226 27.0834 1.81413 -1.87258 0.00239956
12.7906 14.2715 25.3402 -0.914195 1.8415 -1.16864
15.0635 12.7567 24.427 1.75495 -0.521444 0.539429
17.3363 11.2419 23.5138 -0.0478477 -0.471693 -0.266339
14.9927 13.7619 27.125 -0.590687 -0.687919 -0.787468
17.2656 12.2471 26.2118 -1.06943 -2.06633 -0.329333
19.0842 13.3934 24.2953 1.02802 1.24582 1.06457
21.3571 11.8786 23.3821 -0.868894 0.103948 -1.10312
19.5384 10.7323 25.2986 -0.26913 0.569232 -1.16712
21.2863 12.8837 26.0801 -1.76885 1.09833 0.916838
23.1049 14.03 24.1636 1.89713 -1.00178 -1.71505
25.3778 12.5152 23.2504 2.00902 -0.877183 0.193194
23.5591 11.3689 25.1669 -0.128396 2.02651 0.86743
25.307 13.5204 25.9484 -1.64854 -1.20687 -1.87054
6.04283 17.8108 25.3818 -0.305282 0.305305 -0.539695
8.31569 16.296 24.4686 0.516077 -1.27931 -1.08448
8.24491 17.3011 27.1666 -1.46825 0.885638 -0.0539351
10.5885 14.7812 23.5554 0.206674 -1.24046 0.242461
12.3364 16.9326 24.3369 0.48949 1.50891 0.0945239
10.5178 15.7863 26.2534 0.0532386 -0.771157 0.0698332
12.2656 17.9378 27.0349 0.400085 -1.06658 -2.66764
14.6093 15.4178 23.4237 -0.105287 -1.33468 0.607706
16.3571 17.5693 24.2052 -0.479165 -1.92931 -0.674233
14.5385 16.423 26.1217 0.12687 0.0934387 -0.836417
16.8113 14.9082 25.2085 1.1993 -1.34574 -0.0399675
18.63 16.0545 23.292 -0.131672 -0.441935 1.9099
20.3778 18.2059 24.0735 0.25383 -2.59064 -0.104279
18.5592 17.0596 25.99 0.148799 0.815179 2.06193
20.8321 15.5448 25.0768 0.501228 0.454958 -0.761494
19.0134 14.3985 26.9933 -0.350211 0.401831 1.47381
22.6507 16.6911 23.1603 -0.843201 -0.176227 0.457881
22.5799 17.6962 25.8583 0.365947 2.55309 -1.1985
24.8528 16.1815 24.9451 1.12386 0.602044 0.256257
23.0341 15.0351 26.8616 0.131541 0.596583 0.146298
26.6714 17.3278 23.0286 -1.04162 -0.6137 0.129505
26.6006 18.3329 25.7266 0.26598 2.67361 -0.46513
27.1256 14.6667 24.0319 1.74527 0.729289 0.503124
28.8735 16.8181 24.8134 -0.824429 -2.41367 2.90268
27.0548 15.6718 26.7299 0.682183 -0.396034 1.7754
5.58861 20.4719 24.3785 -2.08058 0.266376 2.08843
7.86146 18.9571 23.4653 0.878104 0.277574 0.37216
9.60932 21.1085 24.2468 -0.311819 0.194373 -0.0860236
7.79069 19.9622 26.1633 0.957097 -0.270464 -0.00996345
9.53854 22.1137 26.9448 1.32367 -0.577834 -0.523567
11.8822 19.5937 23.3336 0.998283 -1.19181 -0.40863
13.63 21.7452 24.1151 2.27757 -0.87739 -0.717081
10.0635 18.4474 25.2501 -1.01647 3.1429 -2.41558
11.8114 20.5989 26.0316 -0.135358 0.245807 -2.07813
15.9029 20.2304 23.2019 -0.974806 1.90203 0.546053
17.6507 22.3818 23.9834 1.27196 -0.101924 -0.387738
14.0843 19.0841 25.1184 -1.10238 -0.0334817 -1.57843
15.8321 21.2355 25.8999 -1.11537 1.4262 -0.480201
16.2863 18.5744 26.9032 -0.998142 -0.442119 -1.77307
19.9236 20.867 23.0702 -0.365098 0.650056 0.759397
18.105 19.7207 24.9867 0.162574 0.0667261 0.382431
19.8528 21.8721 25.7682 -1.79507 -0.652198 0.574571
20.3071 19.211 26.7715 1.07197 -0.761028 -0.636885
22.1257 20.3573 24.855 -0.137176 -0.717563 -0.00370693
24.3985 18.8426 23.9418 0.689228 0.913392 0.268813
26.1464 20.994 24.7233 -2.60107 -0.439194 1.28048
24.3278 19.8477 26.6398 -0.219552 0.738175 -1.76943
28.4193 19.4792 23.8101 0.937228 0.582106 1.70708
30.1671 21.6306 24.5916 0.916315 0.317737 1.48102
28.3485 20.4843 26.5081 0.706596 0.128884 1.55871
32.44 20.1158 23.6784 -0.610776 -0.342615 1.47347
34.1878 22.2673 24.4599 -0.11682 -0.973877 0.227163
30.6213 18.9695 25.5949 -3.38644 0.242022 -1.18675
32.3692 21.121 26.3764 -0.499826 0.166493 0.766566
9.1551 23.7696 23.2435 1.85635 -0.713219 -0.265573
7.33646 22.6233 25.16 -0.388354 0.983714 -1.40718
9.08432 24.7748 25.9415 -0.479628 -0.609838 1.93117
10.903 25.9211 24.025 -0.157799 1.66342 -1.48805
13.1758 24.4063 23.1118 0.841762 -0.190079 -0.0860266
11.3572 23.26 25.0283 0.464107 1.04686 -0.66867
13.105 25.4114 25.8098 -0.579267 0.148307 -1.65823
13.5593 22.7503 26.8131 -1.07729 -0.981821 0.46327
15.3779 23.8966 24.8966 0.00535147 -1.02891 0.759818
17.1257 26.048 25.6781 2.55545 -1.55757 -1.83238
17.58 23.3869 26.6814 0.86852 0.759517 1.38341
19.3986 24.5332 24.7649 -0.36677 0.40228 1.02906
21.6715 23.0185 23.8517 0.818689 1.25084 -0.922144
21.6007 24.0236 26.5497 -1.87827 1.09918 0.533824
23.4193 25.1699 24.6332 1.56222 0.593919 -0.400172
25.6922 23.6551 23.72 -3.19307 -1.17694 0.174961
23.8735 22.5088 25.6365 2.32989 -1.48186 -0.43722
25.6214 24.6602 26.418 -0.918097 0.515995 0.278575
27.44 25.8065 24.5015 -0.834227 -0.752496 0.200035
29.7129 24.2917 23.5883 -1.66636 -0.579859 1.03906
27.8943 23.1454 25.5048 -1.03836 -0.229835 -0.261333
29.6421 25.2969 26.2863 0.495034 1.27802 -0.332487
30.0963 22.6358 27.2896 1.20254 -0.0527045 0.0626287
31.4607 26.4432 24.3698 -0.70556 1.31869 1.47828
33.7336 24.9284 23.4566 -1.23364 0.302376 1.10337
31.915 23.7821 25.3731 -1.14878 -0.693566 0.492239
12.6508 28.0725 24.8065 -1.6452 1.37413 0.434633
10.8322 26.9262 26.723 -0.497963 0.087328 1.68238
14.3987 30.2239 25.588 0.463366 0.550854 -1.03227
14.9237 26.5577 23.8933 0.781202 0.047639 0.597863
16.6715 28.7091 24.6748 0.103936 -0.128653 1.15656
14.8529 27.5628 26.5913 -0.60876 -2.06913 -0.817095
18.9444 27.1943 23.7616 -0.598488 0.0691165 -0.19029
20.6922 29.3458 24.5431 1.01081 0.595907 1.09572
18.8736 28.1995 26.4596 0.775525 -0.00972417 0.0642526
20.6215 30.3509 27.241 -0.869753 0.0442683 -0.0768855
21.1465 26.6847 25.5464 -2.36994 -2.88649 0.249372
22.9651 27.831 23.6299 -0.157343 0.297208 1.59594
24.7129 29.9824 24.4114 1.1223 -0.452608 -1.16527
22.8943 28.8361 26.3279 0.56724 -0.766631 0.0633946
25.1672 27.3213 25.4147 0.731121 -1.07157 1.23588
26.9858 28.4676 23.4982 -0.718083 0.0196104 -1.84584
26.915 29.4728 26.1962 -1.0493 0.786369 -0.0805276
29.1879 27.958 25.283 0.945042 -2.82985 0.478974
27.3693 26.8117 27.1995 -1.13701 -0.187185 -0.165573
31.0065 29.1043 23.3665 0.575189 0.279696 1.69276
16.1465 32.3754 26.3694 1.073 1.09903 0.327512
16.2173 31.3702 23.6715 0.653387 -0.442206 1.71707
18.4194 30.8606 25.4563 0.430698 0.0805126 -0.380959
20.1672 33.012 26.2377 -1.02178 1.07396 -0.987749
17.9652 33.5217 24.453 0.898066 0.164903 0.911973
20.238 32.0069 23.5398 0.0607454 -0.703905 1.32911
21.9859 34.1583 24.3212 0.714874 0.760708 1.07035
22.4401 31.4972 25.3246 -1.43045 -0.559948 -2.17936
24.1879 33.6487 26.106 0.0562434 0.398304 1.14752
24.2587 32.6435 23.4081 0.503612 -0.601331 0.727556
24.6422 30.9876 27.1093 -0.988761 -0.917876 0.358621
26.4608 32.1339 25.1929 0.817823 2.07807 -0.36675
28.7337 30.6191 24.2797 1.5529 0.166537 -0.948167
17.1948 13.2522 28.9098 0.800442 -0.683373 -1.70712
19.4676 11.7374 27.9966 -0.0825032 -0.482521 -1.81109
21.2155 13.8888 28.7781 -0.729667 1.11961 0.0806005
19.3969 12.7425 30.6946 -0.829246 -0.515789 -1.5061
21.6697 11.2277 29.7814 -0.217505 1.11476 0.572129
23.4884 12.374 27.8649 1.06249 -1.03856 -1.89258
23.4176 13.3792 30.5629 -0.151569 0.360853 -0.924331
10.447 16.7914 28.9514 -0.999708 -1.59773 2.20247
12.7198 15.2767 28.0382 -0.253833 0.778962 1.87932
12.6491 16.2818 30.7362 -0.70541 0.6118 0.262027
14.4677 17.4281 28.8197 -0.388072 -0.309997 0.696359
16.7406 15.9133 27.9065 -0.0384781 0.0935039 -0.766926
14.9219 14.767 29.823 1.045 -1.9918 -0.258473
16.6698 16.9184 30.6045 0.257261 0.644434 1.40231
18.4884 18.0647 28.688 -2.42647 1.85816 -1.17835
20.7613 16.5499 27.7748 -1.02377 0.0802621 -1.9332
18.9426 15.4036 29.6913 0.889802 0.856012 1.02799
20.6905 17.5551 30.4728 -1.34729 1.81078 0.540862
21.1447 14.894 31.4761 -0.970879 0.871513 0.411985
24.782 17.1866 27.6431 -0.252923 1.35731 -0.885463
22.9634 16.0403 29.5596 -0.262444 -2.19763 0.114167
24.7112 18.1917 30.3411 1.46442 -0.373504 -1.34978
25.2362 14.5255 28.6464 -2.34897 1.15272 -1.88992
25.1654 15.5306 31.3444 0.422553 -1.25516 -0.0108505
28.8027 17.8232 27.5114 0.913297 0.760126 -1.47561
26.9841 16.6769 29.4279 -0.52422 -1.3238 1.80265
9.99277 19.4526 27.9481 -0.41854 -0.0986339 0.619944
11.7406 21.604 28.7296 1.83111 1.15686 -1.12733
12.1948 18.9429 29.7329 -0.906651 0.335765 -0.349099
14.0135 20.0892 27.8164 1.23332 0.568953 -0.192477
15.7613 22.2406 28.5979 -0.522045 2.68308 0.359032
13.9427 21.0943 30.5144 2.28535 -1.21836 1.0498
16.2156 19.5795 29.6012 0.571245 0.103892 1.36371
14.3969 18.4332 31.5177 -0.346452 -0.344981 0.949656
18.0342 20.7258 27.6847 -0.320427 -1.80415 -0.137039
17.9634 21.731 30.3827 0.453886 1.69543 -0.573849
20.2363 20.2162 29.4695 -0.0475399 -0.667459 -1.42892
21.9841 22.3676 30.2509 -0.852447 1.27017 -0.822031
18.4176 19.0699 31.386 0.282393 -0.86161 -0.113876
22.0549 21.3625 27.553 0.879309 0.496665 -0.312346