ITEM: TIMESTEP
0
ITEM: NUMBER OF ATOMS
567
ITEM: BOX BOUNDS ss ss ss
8.0664046780001737e+00 3.3319628878411031e+01
6.6009813907621231e+00 3.3928713455208502e+01
6.0304192734756752e+00 3.5115124659663053e+01
ITEM: ATOMS x y z vx vy vz
20.1721 8.77071 10.0477 -1.47014 0.208342 -1.13088
17.445 12.9466 9.9576 1.12784 1.47904 1.01172
19.7179 11.4318 9.04441 0.0832893 2.67636 -0.292381
19.2637 14.0929 8.04111 1.9834 -1.58723 -1.67153
21.4657 13.5832 9.8259 0.0824985 0.867858 0.767431
14.7179 17.1225 9.86749 1.182 0.412578 0.858082
16.9908 15.6077 8.9543 1.71441 1.55177 0.13077
18.7387 17.7591 9.73579 -1.56208 0.315672 -1.14313
16.5366 18.2688 7.95099 1.39254 0.585568 0.0210922
18.8094 16.754 7.0378 0.0775279 -2.68343 1.31089
21.0115 16.2443 8.8226 0.649627 -0.0831359 1.82979
11.9909 21.2984 9.77738 -0.149673 1.97832 1.21444
14.2637 19.7836 8.86419 0.815412 0.25035 -1.81237
16.0116 21.935 9.64568 -0.347121 2.34101 0.928213
16.0824 20.9299 6.94769 -0.614113 -1.23284 -0.845483
18.2844 20.4202 8.73248 0.63314 -2.27379 1.4604
20.5573 18.9055 7.81929 0.896999 -0.863358 -0.973298
18.3552 19.4151 6.0345 -0.568539 0.597035 0.483725
20.1031 21.5666 6.81599 0.61377 -0.0826636 0.898853
22.7594 18.3958 9.60409 -0.0561959 -0.414055 -0.616842
22.3051 21.0569 8.60078 0.853518 0.155395 -0.126871
13.8095 22.4447 7.86088 0.392237 1.13744 -3.16719
15.5574 24.5961 8.64237 -1.19468 0.943221 1.63634
20.0323 22.5717 9.51397 0.443903 -0.113101 0.284571
17.8302 23.0813 7.72918 0.505749 -0.515959 1.33674
19.5781 25.2328 8.51067 0.127052 2.09947 -0.903354
24.053 23.2083 9.38227 -1.4727 -0.53698 0.816768
21.8509 23.718 7.59748 0.705269 -0.807076 -1.01289
23.5988 25.8694 8.37897 -1.20148 0.937443 1.84099
25.8009 25.3598 10.1638 -0.461019 -2.30151 0.971631
17.3052 26.7476 9.42386 0.683929 1.03467 -0.0148978
21.3259 27.3842 9.29216 1.14537 0.657233 0.206274
16.0806 9.13919 12.8774 -0.744786 -0.631652 0.336429
20.5556 7.11473 13.749 -1.78261 1.96543 0.444915
18.3535 7.6244 11.9642 0.849804 0.468906 0.978889
20.1013 9.77583 12.7457 -1.1423 -0.126282 0.670759
17.8993 10.2855 10.9609 0.860241 1.85029 0.676919
24.5763 7.75137 13.6173 0.277312 -0.579943 -0.0961006
22.3742 8.26104 11.8325 -1.46035 -1.32186 0.271135
24.122 10.4125 12.614 0.0904613 -1.76338 -0.525569
13.8078 10.654 13.7906 1.07648 0.370476 0.945139
13.3535 13.3151 12.7873 -1.59216 0.0523985 -0.954604
15.6264 11.8003 11.8741 0.448043 0.879201 0.254353
17.8285 11.2906 13.6589 -0.994063 -0.346549 0.894401
17.3742 13.9517 12.6556 -0.43724 -2.48693 -2.43542
19.6471 12.4369 11.7424 -0.851626 -1.84278 0.253703
21.8492 11.9273 13.5272 -2.08838 1.409 -0.176417
23.597 14.0787 14.3087 0.835595 -0.146622 0.233237
21.92 10.9221 10.8292 1.13725 0.795362 -0.285532
23.6678 13.0736 11.6107 -2.15124 0.858477 0.570149
25.8699 12.5639 13.3955 -0.48795 0.515436 0.984456
11.0807 14.8299 13.7005 0.539559 0.184097 0.271238
10.6265 17.491 12.6972 0.123537 -0.933318 -0.303913
15.1014 15.4665 13.5688 1.18411 2.37442 -0.60294
12.8993 15.9762 11.784 0.684079 -0.191075 0.979871
14.6472 18.1276 12.5655 0.0930021 -0.986617 0.687393
15.1722 14.4614 10.8708 1.65327 -0.962244 0.755922
19.1221 16.1032 13.4371 -0.530008 -0.851817 -0.465759
16.92 16.6128 11.6523 -0.990214 -0.658506 -0.297326
19.1929 15.098 10.7391 -0.504283 2.53064 0.656851
20.87 18.2546 14.2186 -0.404384 -2.57087 1.24913
21.395 14.5884 12.5239 0.337457 0.0533785 -0.00652275
23.1428 16.7398 13.3054 0.326091 -0.546199 -1.1657
20.9407 17.2495 11.5206 -0.606397 0.452083 1.6643
23.2136 15.7347 10.6074 0.443598 0.426345 -2.50174
27.6178 14.7153 14.177 -0.75559 0.419876 0.0953273
25.4157 15.225 12.3922 0.149937 0.218053 0.714273
27.1635 17.3764 13.1737 0.670287 -0.842558 -0.639277
24.9615 17.8861 11.3889 0.137036 0.176968 1.07773
8.3536 19.0058 13.6104 -0.709322 2.18825 -0.523686
10.1722 20.1521 11.6939 0.121316 0.725836 -0.865349
12.3743 19.6424 13.4787 0.715129 -0.597992 0.986153
14.1222 21.7938 14.2602 -2.38748 1.28119 0.567906
16.395 20.2791 13.347 -1.33393 -1.32604 -0.50752
12.4451 18.6373 10.7807 -0.963354 0.410957 0.454767
14.1929 20.7887 11.5622 0.0715806 0.917754 -0.763181
16.4658 19.2739 10.649 -1.75822 -0.555449 0.174775
18.6679 18.7643 12.4338 -2.30322 -2.07909 1.20054
20.4157 20.9157 13.2153 0.394024 0.0583735 0.0712402
18.2137 21.4254 11.4305 -1.27083 0.608903 -1.27934
20.4865 19.9106 10.5173 1.4813 -1.7448 1.43433
24.8907 18.8912 14.0869 1.8261 1.07426 1.66339
22.6886 19.4009 12.3021 0.471945 0.56868 -1.20559
24.4365 21.5523 13.0836 2.71719 -0.854937 1.34256
22.2344 22.062 11.2988 1.85367 -0.180617 -0.495349
24.5072 20.5472 10.3856 0.0548588 -0.531559 -0.876311
28.9114 19.5279 13.9552 -0.974648 0.936082 1.73495
26.7093 20.0375 12.1704 2.17994 1.23319 0.193162
28.4572 22.189 12.9519 -1.38271 1.75851 -0.158188
11.9201 22.3035 12.4754 0.971043 1.55296 0.332805
13.6679 24.455 13.2569 1.29185 -0.197514 -0.248873
15.9408 22.9402 12.3437 -1.78374 1.684 0.475968
13.7387 23.4498 10.5589 0.984351 -1.97558 -1.33231
15.4866 25.6013 11.3404 -0.429961 -0.218339 -1.88597
18.1429 22.4305 14.1285 -1.72257 -1.12108 0.724036
17.6887 25.0916 13.1252 0.726215 -0.467505 -0.944285
19.9615 23.5768 12.212 -0.94909 -1.43098 0.991116
17.7594 24.0865 10.4272 0.807962 -1.28094 -0.876359
22.1636 23.0671 13.9968 -0.642576 -2.06271 -1.60845
21.7094 25.7282 12.9935 -0.709116 -0.0385836 0.302918
23.9822 24.2134 12.0803 -0.145519 0.735178 1.13723
21.7801 24.7231 10.2955 -0.473539 -2.29012 -0.885295
26.1843 23.7038 13.8651 -1.32421 0.433282 -0.206988
26.2551 22.6987 11.1671 0.194521 1.25719 0.841077
28.0029 24.8501 11.9486 -1.10709 -1.0672 -0.482361
30.205 24.3404 13.7334 -1.83306 0.363069 0.445609
15.4158 26.6064 14.0383 2.54766 -0.417532 0.396162
19.4365 27.243 13.9066 4.40871 -0.996374 0.445006
17.2344 27.7527 12.1218 0.878752 0.728658 0.135206
18.9823 29.9041 12.9033 -1.33018 2.53073 0.833751
19.5073 26.2379 11.2087 -1.20244 -1.87842 -1.29289
19.0531 28.899 10.2054 -1.65347 0.399154 0.493753
23.4572 27.8797 13.7749 0.0773512 0.125125 0.683027
21.2551 28.3893 11.9901 0.904863 -0.0252307 1.867
23.528 26.8745 11.077 1.80193 0.00929858 0.07059
25.7301 26.3649 12.8617 1.43173 -0.622871 -0.985488
16.0098 10.1443 15.5754 -0.479618 0.297427 2.11485
18.2827 8.62952 14.6622 0.973235 -1.48021 -1.65001
18.2119 9.63465 17.3602 1.1449 -0.920503 -1.26645
20.4848 8.11985 16.447 -0.44527 -1.38117 0.0363348
22.3034 9.26616 14.5305 0.604599 2.33653 -2.80775
22.2326 10.2713 17.2285 0.4266 -0.798152 -0.434752
22.7576 6.60506 15.5338 0.568401 1.62156 -0.073641
24.5055 8.7565 16.3153 0.356992 -0.803958 0.0152838
22.6869 7.61018 18.2318 -0.592815 0.610082 -0.223586
26.3241 9.90281 14.3988 0.255621 0.886881 1.35431
11.4641 13.1739 17.4018 1.00862 0.526364 1.16984
9.26204 13.6836 15.617 0.660503 -0.510042 1.77924
11.5349 12.1688 14.7038 1.01487 0.960265 -0.0868012
13.737 11.6591 16.4886 -1.17793 0.356837 0.552859
15.4848 13.8105 17.2701 -0.166008 0.232305 1.6718
13.2828 14.3202 15.4853 0.0672478 -0.777365 1.40986
15.5556 12.8054 14.5721 -0.0945651 2.26766 0.238916
15.9391 11.1494 18.2734 1.02048 0.920252 -0.803981
17.7577 12.2957 16.3569 -0.297189 -0.819419 -0.200429
20.0306 10.781 15.4437 -1.27674 -0.538943 -1.86569
19.5763 13.4421 14.4404 -0.319897 -1.53543 0.393721
19.9598 11.7861 18.1417 0.762194 0.305883 -0.0636122
21.7784 12.9324 16.2252 0.217228 0.78407 -1.02584
24.0513 11.4176 15.312 0.244184 1.22901 0.584514
23.9805 12.4227 18.01 -0.223058 0.390735 -2.09697
25.7991 13.569 16.0935 -0.96565 -0.016428 1.0309
28.072 12.0542 15.1803 0.27527 -0.163783 0.914943
26.2533 10.9079 17.0968 -0.899963 0.243739 -1.73242
28.0012 13.0594 17.8783 0.0336286 -1.77154 -0.912506
29.8198 14.2057 15.9618 0.994418 -0.110672 0.234732
9.19127 14.6887 18.315 0.423737 0.0121654 -0.323712
8.73704 17.3498 17.3116 -0.331984 -0.680015 -1.3976
11.0099 15.835 16.3985 0.904616 0.0973439 0.979446
8.80782 16.3447 14.6137 -0.924439 0.567526 -1.30087
13.212 15.3253 18.1832 -1.44233 -0.635206 -2.10833
12.7578 17.9864 17.1799 3.51837 -0.691143 0.434843
15.0306 16.4716 16.2668 0.722203 0.69044 1.15826
12.8285 16.9813 14.482 -2.52258 0.525358 0.802216
17.2327 15.962 18.0515 1.11659 -0.521846 -1.09076
19.5056 14.4472 17.1384 -0.0153918 0.893844 -0.823052
17.3035 14.9569 15.3536 -1.06052 -1.23229 1.09334
19.0513 17.1083 16.1351 0.507718 -0.670572 0.814331
16.8492 17.618 14.3503 -1.45034 -0.102204 -3.16108
21.2534 16.5986 17.9198 -0.732555 -0.0423664 -1.77361
23.5263 15.0838 17.0067 -1.20167 0.558324 0.559669
21.3242 15.5935 15.2219 -0.0486814 -1.65198 -0.228163
23.072 17.7449 16.0034 1.50055 2.14799 0.637483
25.2741 17.2353 17.7881 -1.20023 -0.554697 -1.18665
27.547 15.7205 16.875 1.75714 -0.459723 -0.327964
25.3449 16.2301 15.0902 -0.047635 -1.22672 -0.706068
29.2948 17.8719 17.6564 0.213283 -1.26811 0.760473
31.5677 16.3571 16.7433 0.261757 1.26837 0.735783
29.3656 16.8668 14.9585 1.30688 1.99261 -0.419247
10.4849 19.5012 18.0931 -0.381663 -0.0346992 0.866274
8.28282 20.0109 16.3083 1.52024 -1.64123 0.937385
10.0307 22.1623 17.0898 -0.262803 -0.712995 2.61217
10.5557 18.4961 15.3952 -0.744077 -0.275524 0.838445
10.1015 21.1572 14.3919 -0.384864 0.214198 -0.539575
14.5056 20.1379 17.9614 0.365575 0.712486 0.438705
12.3035 20.6475 16.1766 -0.159893 -1.35878 1.34763
14.5764 19.1327 15.2635 0.0757999 0.167024 -1.56142
16.3242 21.2842 16.0449 -1.06954 0.332382 -0.549655
16.7785 18.6231 17.0482 1.10463 -0.102042 -0.0456391
18.5263 20.7745 17.8297 -0.436898 0.196481 -0.0681626
18.5971 19.7694 15.1317 1.30102 0.0504723 1.79767
20.345 21.9208 15.9132 0.178009 0.519412 -0.948363
20.7992 19.2597 16.9165 -1.10619 -0.557313 0.366963
22.547 21.4112 17.698 -0.424395 -0.141398 2.87833
24.8199 19.8964 16.7848 -0.12132 -0.958081 -1.98877
22.6178 20.406 15 -0.176512 -0.515142 1.18094
26.5678 22.0478 17.5663 -1.37755 -0.770947 -0.701783
27.0928 18.3816 15.8717 0.588645 0.641689 -1.515
28.8406 20.533 16.6531 -0.945532 -1.26662 1.57128
26.6385 21.0427 14.8683 1.4488 -0.524409 -2.02969
31.0427 20.0233 18.4379 0.033657 -0.133596 -0.358485
33.3155 18.5085 17.5247 1.23741 0.587195 1.25805
31.1135 19.0182 15.7399 -0.0646526 -1.62628 -0.264499
32.8613 21.1696 16.5214 2.17038 -1.20633 2.24809
30.6592 21.6793 14.7366 -0.60758 0.560664 1.9998
11.7785 24.3138 17.8713 1.07444 0.38184 -1.06457
11.8493 23.3086 15.1733 0.183998 0.469652 -0.0501784
14.0514 22.799 16.9581 -0.846188 -1.29483 -1.14681
15.7992 24.9504 17.7396 1.69221 -0.969823 0.662467
13.5972 25.4601 15.9548 0.971642 -1.21258 -0.150496
15.87 23.9453 15.0416 -0.688349 1.31401 0.480465
18.0721 23.4356 16.8264 0.515156 -1.09305 1.08935
19.82 25.5871 17.6079 1.24555 -1.02749 -0.766203
17.6179 26.0967 15.8231 0.160332 1.60705 -0.530194
19.8907 24.5819 14.9099 -0.32131 0.53128 0.330701
24.2949 23.5626 18.4795 -0.364467 2.05352 0.119431
22.0928 24.0723 16.6947 -0.43527 -2.29106 -0.884167
24.3657 22.5575 15.7815 -0.0793178 -0.883119 1.43984
23.9114 25.2186 14.7782 -1.33137 1.05357 -1.22509
28.3156 24.1992 18.3478 -0.0321454 0.782527 1.35122
26.1135 24.7089 16.563 0.469757 0.264657 -0.790621
28.3864 23.1941 15.6498 0.114468 0.384265 -0.710738
27.9322 25.8552 14.6465 -2.6713 -0.548569 0.369556
30.5885 22.6844 17.4346 -0.587084 1.56706 -0.701481
32.3363 24.8359 18.2161 -0.813748 -0.395424 -0.617203
30.1342 25.3455 16.4313 1.37933 0.132759 -1.22811
32.4071 23.8308 15.5181 -0.213052 -1.2571 -2.09624
15.345 27.6115 16.7363 -0.440433 -0.587331 1.75692
17.0929 29.7629 17.5178 -0.69157 -0.245026 0.580247
19.3657 28.2482 16.6046 -0.758988 -2.21696 -0.335586
17.1637 28.7578 14.8198 0.897164 0.236151 -2.12128
21.5678 27.7385 18.3894 -0.462663 1.69245 -0.111948
23.8407 26.2237 17.4762 -0.51803 0.677416 -1.50233
21.6386 26.7334 15.6914 0.631884 0.867298 -0.643425
23.3864 28.8848 16.4729 1.47338 2.09843 1.09299
21.1844 29.3945 14.6881 1.61735 0.359388 2.00491
25.5885 28.3751 18.2577 2.99522 -0.685765 0.308648
27.8614 26.8603 17.3445 0.351738 0.828367 0.624481
25.6593 27.37 15.5597 1.313 0.118275 -0.126304
18.8407 31.9144 18.2993 -1.13097 0.726276 -0.989698
18.9115 30.9093 15.6013 1.13802 0.512151 2.25478
21.1136 30.3996 17.3861 1.37662 -0.277566 0.340339
20.414 9.12498 19.145 -1.18298 -0.67352 0.694358
20.3432 10.1301 21.8429 -0.17331 0.245183 -2.08531
24.4347 9.76162 19.0133 1.36632 0.110796 -0.813676
22.6161 8.61531 20.9297 0.452555 1.52003 0.0867172
11.3933 14.179 20.0997 -1.01738 -1.94017 -0.303287
13.6662 12.6642 19.1866 -0.329666 -0.194817 -0.891763
13.5954 13.6694 21.8845 -0.634686 -2.1074 -0.789498
15.8683 12.1546 20.9713 2.54308 -1.59705 -1.79638
17.6869 13.3009 19.0549 -0.538697 0.94194 0.837122
17.6161 14.306 21.7528 0.755706 -0.0457222 0.114743
18.1411 10.6398 20.0582 1.25412 -0.129008 -0.354836
19.889 12.7912 20.8396 -0.391579 0.375123 1.07482
21.7076 13.9375 18.9232 -0.344171 -1.16657 -0.455167
22.1619 11.2764 19.9265 -0.391008 0.631183 0.79623
23.9097 13.4278 20.7079 0.795405 1.23222 -0.882985
22.0911 12.2815 22.6244 -1.11984 -0.988403 0.472768
24.3639 10.7667 21.7112 -1.14612 -0.0293996 -1.58388
26.1826 11.9131 19.7948 -1.63992 1.41993 1.70241
27.9304 14.0645 20.5762 -0.166825 -1.10172 0.63817
26.1118 12.9182 22.4927 -1.16055 1.43346 -0.473878
10.9391 16.8401 19.0964 -1.03507 1.0072 -0.924522
9.12049 15.6938 21.0129 1.65468 -0.691584 2.31914
10.8683 17.8453 21.7944 0.207304 0.130047 -1.08376
14.9598 17.4768 18.9647 0.0480142 0.324518 1.2379
13.1412 16.3305 20.8812 0.0280789 -2.15122 -0.369847
15.4141 14.8157 19.968 0.952716 0.455818 -1.09839
18.9805 18.1134 18.833 0.809678 2.01564 -0.281484
17.1619 16.9671 20.7495 0.242006 2.33094 -1.90836
19.4348 15.4523 19.8363 -0.690743 0.749694 0.666688
19.364 16.4574 22.5343 -0.896562 0.00666808 -0.0188335
21.1826 17.6037 20.6178 0.0141529 -0.420028 0.432526
23.4555 16.089 19.7046 0.0115226 0.844686 -0.0282237
21.6369 14.9426 21.6211 -2.40295 -2.92661 0.300522
23.3847 17.0941 22.4026 0.542811 -0.801332 0.121955
25.2033 18.2404 20.4861 1.40618 -0.895256 -2.54922
25.7283 14.5742 18.7915 -0.248401 -0.598395 0.490182
27.4762 16.7256 19.5729 0.04962 -0.342357 -0.502244
25.6576 15.5793 21.4894 1.54007 0.571284 -0.351198
27.4054 17.7307 22.2709 0.704745 -1.10165 1.29845
29.7491 15.2108 18.6597 -0.956107 0.387377 -0.0240014
31.4969 17.3622 19.4412 2.10321 1.09982 1.41538
29.6783 16.2159 21.3577 -3.23389 -1.19993 0.225921
8.14126 22.0211 21.7043 1.07313 0.470996 0.975044
8.66626 18.3549 20.0096 1.06013 1.0457 0.363487
10.4141 20.5064 20.7911 1.4066 0.523264 0.501649
8.21204 21.016 19.0063 -0.341641 -0.529014 -1.4941
12.2328 21.6527 18.8746 -1.16603 -0.424573 -1.45775
12.687 18.9916 19.8779 1.03278 -0.149661 0.811578
14.4348 21.143 20.6594 0.883383 -0.69413 1.11376
12.6162 19.9967 22.5759 -1.70047 0.273852 -1.53211
14.8891 18.4819 21.6627 0.79591 -1.5222 -0.863015
16.7077 19.6282 19.7462 -0.466144 -1.19308 -0.0330299
18.4555 21.7796 20.5277 -2.79944 -1.75803 -0.308431
16.6369 20.6333 22.4442 1.65272 -0.148034 -0.682911
18.9098 19.1185 21.531 1.15022 0.0954896 -1.83726
20.6576 21.27 22.3125 1.81794 -1.17585 0.524705
20.7284 20.2648 19.6145 0.729628 -0.890234 1.72946
23.0013 18.7501 18.7013 1.54475 0.103274 -0.864846
24.7491 20.9015 19.4828 0.067348 -0.211119 -0.364793
22.9305 19.7552 21.3993 -0.0517993 -1.41855 -1.00554
24.6783 21.9066 22.1808 1.06134 1.25472 -0.175281
27.022 19.3867 18.5696 0.561211 0.222473 1.78508
28.7698 21.5381 19.3511 0.433958 0.623452 1.54874
26.9512 20.3918 21.2676 -1.68729 0.71172 2.87266
32.7905 22.1748 19.2194 -0.866807 -0.106424 1.75162
29.2241 18.877 20.3544 -0.28865 -0.0757904 -0.399826
30.9719 21.0285 21.1359 0.498035 1.1698 -0.933943
33.2448 19.5137 20.2227 0.734304 -1.76461 0.232748
31.4261 18.3674 22.1392 -0.868428 -0.775838 0.259122
9.88912 24.1726 22.4858 0.882773 0.236489 -0.0628593
12.162 22.6578 21.5726 -1.34081 1.22252 0.904829
9.9599 23.1675 19.7878 0.819524 1.4704 -0.0727064
11.7078 25.3189 20.5693 -0.275349 -0.416209 0.00741972
13.9098 24.8092 22.3541 -0.054482 0.622958 0.162453
16.1827 23.2944 21.4409 -0.0390677 -0.457404 0.472778
13.9806 23.8041 19.6561 0.654273 -0.634009 2.31019
15.7285 25.9555 20.4376 0.0423643 -0.375119 -0.520142
16.2535 22.2893 18.7429 1.47932 0.992487 0.421862
17.9305 25.4459 22.2224 2.04563 -0.274619 0.498678
20.2034 23.9311 21.3092 -2.19819 -0.336303 -0.361479
18.0013 24.4407 19.5244 -0.97003 -0.448381 1.93438
20.2742 22.926 18.6112 1.33874 -1.19567 -2.15161
21.9513 26.0825 22.0907 -1.86631 0.434471 -0.265765
22.4763 22.4163 20.396 1.66617 -0.617126 0.0123276
24.2241 24.5677 21.1775 2.39141 -1.04603 -0.558726
22.022 25.0774 19.3927 -0.994929 0.060184 1.31283
26.497 23.0529 20.2643 -2.0142 -0.254337 -1.96882
28.2448 25.2044 21.0458 -0.559312 0.490779 -1.95668
26.0428 25.714 19.261 -0.169365 -0.852147 0.149811
28.6991 22.5433 22.0491 0.235529 0.635765 0.962132
30.5177 23.6896 20.1326 -0.181253 -0.517771 -0.654054
32.2655 25.841 20.9141 -1.66283 0.147749 -1.04062
32.7198 23.1799 21.9174 0.751271 0.538117 0.13838
13.4556 27.4703 21.3508 0.600426 -0.862414 0.956204
15.2035 29.6218 22.1323 -1.59362 0.948555 1.37266
13.5264 26.4652 18.6528 0.0404207 1.70872 1.99582
15.2742 28.6166 19.4343 0.737206 -0.244173 0.311885
17.4763 28.107 21.2191 -0.367791 -1.0251 0.766618
19.7492 26.5922 20.3059 -0.725809 0.0426463 0.430014
17.5471 27.1018 18.5211 -2.86308 0.654693 -1.69717
19.295 29.2533 19.3026 1.04152 -0.416377 0.709938
21.497 28.7436 21.0874 -0.988533 0.223697 0.454355
23.7699 27.2288 20.1742 -0.283987 -1.12558 0.788194
23.3157 29.8899 19.1709 -0.285059 -0.563279 0.299382
25.972 26.7192 21.959 0.284797 -1.82391 0.162125
25.5177 29.3803 20.9557 -0.369052 -0.306501 0.205709
27.7906 27.8655 20.0425 -1.05385 -0.796612 1.41272
29.9927 27.3558 21.8273 -1.4441 -0.442381 -0.674917
30.0635 26.3507 19.1293 -0.0207688 -0.245275 2.01358
19.2242 30.2584 22.0006 -1.23873 -0.216435 2.05383
17.0221 30.7681 20.2158 0.736532 -1.18393 0.31379
18.77 32.9195 20.9973 0.677371 2.09287 -0.619082
23.2449 30.895 21.8689 -0.870026 -2.07104 -0.35382
21.0428 31.4047 20.0841 0.595743 2.0177 -1.89787
22.5453 9.62044 23.6277 0.89345 0.274931 1.58313
15.7975 13.1597 23.6693 1.85087 1.87773 -0.684327
15.7267 14.1648 26.3673 -0.180831 -0.73751 0.0209496
18.0704 11.6449 22.7561 1.28788 -0.578309 -0.53732
19.8182 13.7963 23.5376 -1.78157 0.699291 -0.1239
17.9996 12.65 25.4541 1.15544 1.2627 0.481706
20.2724 11.1352 24.5409 0.764369 -0.228492 -0.89379
22.0203 13.2867 25.3224 0.191137 2.56359 -1.41117
24.2932 11.7719 24.4092 -1.18006 -0.741595 0.599032
22.4745 10.6256 26.3257 -1.05245 -0.435257 -1.77083
26.041 13.9233 25.1907 0.794873 -0.154655 -1.22144
9.04971 16.6989 23.7109 0.206805 0.108722 0.566834
11.3226 15.1841 22.7977 -0.530217 0.0697309 1.68676
8.97893 17.7041 26.4089 -0.805333 0.376584 1.97397
11.2518 16.1893 25.4957 -1.69978 -0.635304 1.1125
13.0704 17.3356 23.5792 1.03725 -0.809697 0.0502464
15.3433 15.8208 22.666 -0.311445 -1.34418 -0.73238
13.5246 14.6745 24.5825 0.490986 -0.260487 0.712573
15.2725 16.8259 25.364 2.44314 0.331884 -0.108758
17.0911 17.9722 23.4475 -0.647508 -2.48305 -1.64561
17.5454 15.3111 24.4508 -0.672216 -0.788352 -0.0582744
19.2932 17.4626 25.2323 -0.740799 -0.762165 0.40971
19.7474 14.8015 26.2356 -0.895665 -0.17829 0.464271
21.5661 15.9478 24.3191 -0.172406 1.31942 -0.201149
23.3139 18.0992 25.1006 -2.26671 -0.330029 1.17933
23.8389 14.433 23.4059 -0.449134 -0.0702115 -0.910027
23.7682 15.4381 26.1039 -0.154029 -1.78766 -0.811394
25.5868 16.5844 24.1874 0.0104202 -0.996729 1.5206
27.8596 15.0696 23.2742 0.828681 0.762723 1.40411
27.7889 16.0747 25.9722 -0.605797 0.427498 -0.55455
29.6075 17.2211 24.0557 2.20188 -0.171301 -0.0150313
29.5367 18.2262 26.7537 0.124359 0.469675 -0.469806
8.59549 19.36 22.7076 1.17873 -0.666842 -0.150243
10.3433 21.5115 23.4891 0.522552 -1.57189 0.549096
8.52471 20.3652 25.4056 1.12243 0.488071 0.384081
10.7976 18.8504 24.4924 1.86832 -0.432363 -0.87252
14.3641 22.1481 23.3574 -0.792865 -0.558159 2.19207
12.5454 21.0018 25.2739 0.901657 0.456458 -1.04325
14.8183 19.487 24.3607 -0.8583 -2.13388 0.162672
12.9996 18.3407 26.2772 -0.737111 1.26791 1.56125
16.5661 21.6385 25.1422 -0.199007 2.40215 -1.17136
18.839 20.1237 24.229 0.213334 1.6711 -0.172363
17.0204 18.9774 26.1455 2.20123 -2.30703 -1.42451
21.1119 18.6089 23.3158 -0.538197 1.60737 -0.739238
22.8597 20.7603 24.0973 -0.131927 0.23018 -1.12411
21.0411 19.614 26.0138 1.91121 -1.40307 -1.52726
22.7889 21.7654 26.7953 1.44936 -0.185783 -0.376107
25.1326 19.2455 23.1841 -1.01988 -0.954876 0.426226
26.8804 21.3969 23.9656 -0.704175 -3.46818 -2.79562
25.0618 20.2506 25.8821 0.275321 0.653396 0.872773
27.3346 18.7358 24.9689 -1.19063 0.30189 1.38729
29.0825 20.8873 25.7504 -0.474905 -1.97193 -2.3398
29.1533 19.8822 23.0524 -1.08313 0.760816 -0.0143841
30.9011 22.0336 23.8339 -1.52395 -2.26777 -1.42226
33.174 20.5188 22.9207 0.915491 -2.86203 0.547051
31.3554 19.3725 24.8372 -0.944159 0.862123 -1.12766
33.1032 21.5239 25.6187 0.703063 -0.536319 -0.974565
8.07048 23.0263 24.4023 0.346779 -0.0618175 1.2536
9.81834 25.1777 25.1838 -0.756689 -0.213471 1.47653
12.0912 23.6629 24.2706 -1.01193 -1.09295 -0.789204
10.2726 22.5166 26.1871 -0.461465 2.84408 0.678271
13.8391 25.8144 25.0521 0.79472 1.27942 1.24663
16.1119 24.2996 24.1389 -0.386415 0.653025 0.0394098
14.2933 23.1532 26.0554 0.261987 0.54806 -0.827868
18.3848 22.7848 23.2257 -0.391317 0.477816 -0.572728
20.1326 24.9362 24.0072 -0.223986 3.548 -0.612831
18.314 23.7899 25.9237 0.816597 0.32296 0.268071
20.0618 25.9413 26.7052 -0.378768 0.237691 -0.183629
20.5869 22.2751 25.0105 -1.35387 0.97996 0.780068
22.4055 23.4214 23.094 -0.917253 -0.0720149 1.15189
24.1533 25.5728 23.8755 -1.29303 0.289013 0.307705
22.3347 24.4265 25.792 0.938586 -1.15615 -0.495476
24.6076 22.9117 24.8788 0.502639 -0.145016 1.60584
26.4262 24.058 22.9623 -1.56361 0.501391 1.94385
26.3554 25.0632 25.6603 -0.0369538 1.26298 2.06162
28.6283 23.5484 24.7471 -2.72855 -0.156231 -1.76091
26.8096 22.4021 26.6636 0.442212 -1.22162 -1.19611
30.4469 24.6947 22.8306 1.00826 -1.70729 -0.457625
30.3761 25.6998 25.5286 1.47191 -0.102065 -1.6239
32.649 24.185 24.6154 0.289816 0.70872 -0.502619
30.8304 23.0387 26.5319 0.129253 -1.17698 0.135377
11.637 26.324 23.2673 1.8108 -0.705642 -0.355518
11.5662 27.3291 25.9653 2.35293 1.70735 1.19892
13.3848 28.4755 24.0488 -0.211591 1.67729 -1.57411
15.6577 26.9607 23.1356 -1.43766 -0.304856 0.466875
13.3141 29.4806 26.7468 -3.31248 -1.02108 0.33776
15.5869 27.9658 25.8336 -0.510771 -0.97183 -0.145289
17.4055 29.1121 23.9171 0.788863 -0.176854 -0.167289
19.6784 27.5973 23.0039 0.847582 0.546861 -0.954177
17.8598 26.451 24.9204 -2.22754 0.25331 -0.635063
19.6076 28.6024 25.7019 -0.0976624 0.782138 -1.59103
21.4263 29.7487 23.7854 -0.817688 2.1428 -2.43989
23.6991 28.2339 22.8722 -1.76257 -1.10945 1.14542
21.8805 27.0876 24.7887 0.172479 0.637185 -0.210002
23.6283 29.2391 25.5702 0.838391 0.947355 -0.329287
24.0826 26.578 26.5735 2.22083 -0.842449 -0.796934
27.7198 28.8706 22.7405 1.04247 1.64111 -1.87101
25.9012 27.7243 24.657 -0.35111 -0.155785 -0.286159
27.6491 29.8757 25.4385 0.421926 -1.48047 -1.29975
28.1741 26.2095 23.7438 1.18459 -0.410098 1.26769
28.1033 27.2146 26.4418 -1.04511 1.95207 0.470524
29.9219 28.3609 24.5253 -0.903208 -0.258396 0.777787
32.1948 26.8461 23.6121 0.849489 -0.848441 2.73556
15.1327 30.6269 24.8303 -1.70544 1.38523 0.363151
16.8805 32.7783 25.6118 0.40889 0.55737 -1.1007
19.1534 31.2635 24.6986 0.7267 0.0598862 0.526967
16.9513 31.7732 22.9138 -0.599463 1.47944 -0.602364
18.6992 33.9246 23.6953 0.596212 0.259234 -1.36084
17.3348 30.1172 26.6151 0.184955 -0.206817 1.43529
20.9013 33.415 25.4801 0.045734 -0.11879 1.0956
23.1741 31.9002 24.5669 -0.656278 0.076703 -0.243967
20.972 32.4098 22.7821 -0.271701 1.44344 1.01336
21.3555 30.7539 26.4834 -1.10853 -1.24686 0.0667994
25.447 30.3854 23.6537 1.10123 -0.339757 0.273315
25.3762 31.3905 26.3517 1.22138 0.396543 -0.972757
17.9288 13.6551 28.1521 -0.506425 -1.44929 -0.607084
20.2017 12.1404 27.2389 -0.256149 -1.21248 -0.497366
20.1309 13.1455 29.9369 0.967983 1.27708 1.04772
21.9495 14.2918 28.0204 -2.09663 -1.17817 -0.375198
24.2224 12.777 27.1072 -0.373829 -1.8037 -0.121201
22.4037 11.6307 29.0237 -0.585233 2.36796 0.770451
24.1516 13.7821 29.8052 -0.253553 -0.0573491 3.14308
11.181 17.1944 28.1937 -0.106683 -0.684134 0.32416
13.4539 15.6796 27.2805 1.72367 -0.762548 -1.31596
15.2017 17.831 28.062 -0.652246 1.23282 1.88584
13.3831 16.6847 29.9785 -2.03771 0.172158 -0.470724
15.656 15.1699 29.0653 -0.484182 -0.0746167 0.57777
17.4746 16.3163 27.1488 2.29322 -1.50619 -0.405995
17.4038 17.3214 29.8468 1.77171 1.18335 -1.1674
19.6767 15.8066 28.9336 -0.0172093 -0.733381 0.0059546
17.858 14.6603 30.8501 0.827688 0.497159 -0.28614
21.4953 16.9529 27.0171 0.640574 0.913248 0.282602
21.4245 17.958 29.7151 0.329419 -1.0316 -2.73278
23.6974 16.4432 28.8019 -2.73618 0.189847 -0.302458
21.8787 15.2969 30.7184 0.438007 0.481744 -0.776515
25.516 17.5895 26.8854 -0.989096 1.44407 0.917952
25.9702 14.9284 27.8887 1.93248 -0.291859 -1.55795
27.7181 17.0799 28.6702 0.508754 0.00899875 -0.36143
25.8995 15.9336 30.5867 0.13745 1.28006 -1.13234
10.7268 19.8555 27.1904 0.815739 0.033229 0.410042
12.4746 22.0069 27.9719 -1.22662 -0.424715 -1.29129
14.7475 20.4921 27.0587 -0.474974 -0.366677 0.451104
12.9289 19.3458 28.9752 -0.172453 -1.31431 0.542196
14.6767 21.4973 29.7567 -0.548998 -1.91274 -0.736058
15.1309 18.8362 30.76 -0.651822 -0.692358 0.407078
18.7682 21.1288 26.927 -1.27479 0.262404 1.17327
16.9496 19.9825 28.8435 -0.611598 0.391148 0.706577
18.6974 22.1339 29.625 -1.90834 -2.26376 1.68057
19.2224 18.4677 27.9303 -0.967201 0.496669 0.320274
19.1517 19.4728 30.6283 -0.71954 1.54263 0.742317
20.9703 20.6191 28.7118 -1.18825 -0.210687 -0.117342
23.2432 19.1043 27.7986 -2.6623 -0.445722 1.30575
23.1724 20.1095 30.4966 1.16408 0.607712 -0.241164
24.991 21.2558 28.5801 -1.09569 -0.237437 -0.233263
27.2639 19.741 27.6669 -1.10397 -0.604776 0.131027
29.0117 21.8924 28.4484 0.880213 0.593308 1.72201
25.4452 18.5947 29.5834 -0.995739 1.90242 -1.24852
27.1931 20.7461 30.3649 0.0474675 0.146627 -0.907128
31.2846 20.3776 27.5352 0.759455 -0.588775 -0.672099
29.4659 19.2313 29.4517 1.501 -0.310843 0.521581
12.0204 24.668 26.9686 -1.72765 1.16848 1.41439
16.0411 25.3047 26.8369 0.163176 0.659821 -2.66584
14.2225 24.1584 28.7534 0.420326 -0.179977 1.45117
16.4246 23.6487 30.5382 0.0935241 0.0882953 0.332238
16.4954 22.6436 27.8402 -0.225964 0.938025 -0.783813
18.2432 24.795 28.6217 -0.312728 0.155899 1.93323
20.5161 23.2802 27.7085 1.01982 0.8059 -1.51568
20.4453 24.2853 30.4065 -0.208132 -0.40605 1.84506
22.2639 25.4317 28.49 -0.610797 -2.95206 -0.453684
24.5368 23.9169 27.5768 -0.384737 0.37133 -0.661324
22.7182 22.7706 29.4933 -0.690391 2.39924 -1.0394
24.466 24.922 30.2748 1.08187 1.33684 1.47804
26.2846 26.0683 28.3583 0.880535 -0.208181 -0.12175
28.5575 24.5535 27.4451 -1.09694 3.21383 -2.52369
26.7389 23.4072 29.3616 0.441528 1.27376 -0.296616
13.7683 26.8195 27.7501 1.84538 -0.42392 -1.15665
15.5161 28.9709 28.5316 -1.25391 -0.0247425 -0.41638
15.9704 26.3098 29.5349 0.0157596 0.972651 -1.66588
17.789 27.4561 27.6184 -2.16024 0.323276 1.96649
19.5368 29.6076 28.3999 -0.463665 1.04127 -1.53296
17.7182 28.4612 30.3163 0.891737 -2.39098 -3.10339
19.9911 26.9465 29.4032 -0.454283 -1.89371 -0.0474683
21.8097 28.0928 27.4867 0.398398 1.09129 -0.760215
21.7389 29.0979 30.1846 -0.717592 0.431296 -2.20847
24.0118 27.5831 29.2715 0.2145 1.51261 0.420441
25.8304 28.7294 27.355 -0.0605155 -0.99627 0.693027
15.0619 31.632 27.5283 1.54668 1.70656 -1.65854
19.0826 32.2687 27.3966 1.41167 0.0506457 3.44832
17.264 31.1223 29.3131 -0.883188 0.646954 1.1577
23.1033 32.9053 27.2649 -0.389482 2.63826 -0.384591
21.2847 31.759 29.1814 -0.556647 -0.559488 1.82478
23.5576 30.2442 28.2682 -0.649919 0.187897 -1.7451
20.0601 14.1506 32.6349 0.657188 0.126604 1.6202
22.333 12.6358 31.7217 -0.774609 1.1559 -2.05738
15.5852 16.1751 31.7633 1.68689 -0.48315 0.4801
19.6059 16.8117 31.6316 0.471882 0.694443 -0.152832
17.7873 15.6654 33.5481 1.83625 -0.977031 -1.73325
19.5351 17.8168 34.3296 1.05896 0.630458 0.2528
23.6266 17.4483 31.4999 0.300869 2.58522 -1.20697
21.808 16.302 33.4164 1.15342 -0.057387 0.127077
24.0808 14.7872 32.5032 1.94982 -0.846059 0.190478
27.6473 18.085 31.3682 -0.948486 0.15419 -1.15096
25.8287 16.9387 33.2847 1.68377 0.764088 0.509503
16.8788 20.9876 31.5415 -0.668543 -0.359833 1.51326
17.333 18.3265 32.5448 1.12795 -1.31204 -0.0932238
19.0809 20.4779 33.3263 0.0724776 0.854444 2.02386
20.8995 21.6242 31.4098 -0.80033 -0.744685 0.516091
21.3537 18.9631 32.4131 -0.643516 -1.07994 -1.39332
23.1016 21.1146 33.1946 -0.135153 -0.410368 -0.352025
21.283 19.9683 35.111 0.196762 2.70728 -0.462997
23.5558 18.4535 34.1979 0.663831 0.801531 1.68953
25.3745 19.5998 32.2814 -0.288019 0.762352 -1.77179
18.1724 25.8001 31.3197 -1.87217 -0.634859 0.533073
18.6267 23.139 32.323 -0.174306 -0.995026 0.270749
20.3745 25.2905 33.1044 -1.56637 0.957507 -0.17453
22.6474 23.7757 32.1913 -1.94106 -1.51859 -1.26301
20.8287 22.6294 34.1078 0.997387 -0.728906 -0.676087
24.9202 22.2609 31.2781 -0.598641 2.72724 0.320261
19.9203 27.9516 32.1011 -1.95705 1.12069 0.500229
22.1932 26.4368 31.188 0.177283 -2.56384 -0.167919
19.4661 30.6127 31.0978 -0.269903 0.162229 -2.01834
ITEM: TIMESTEP
1000
ITEM: NUMBER OF ATOMS
567
ITEM: BOX BOUNDS ss ss ss
8.6477628287004098e+00 3.2991191798929350e+01
7.2078950582173418e+00 3.3425702270679238e+01
6.6042022890080503e+00 3.4438350648283112e+01
ITEM: ATOMS x y z vx vy vz
20.0729 9.26639 10.4048 -0.255473 0.461732 -0.36395
17.187 12.9637 9.8824 0.938303 -0.660088 0.625488
19.5805 11.7075 9.21211 -0.759517 1.15292 -1.66403
19.1691 14.367 8.11841 -0.116947 0.843915 0.207715
21.3828 13.5594 9.62251 0.864294 1.68604 0.848299
14.6117 17.2215 9.77719 1.31287 0.895973 -1.26847
16.8664 15.7307 8.87927 0.944815 0.796112 0.25811
18.7331 17.7988 9.63489 0.289896 2.06903 2.48455
16.3915 18.3105 8.00893 1.29842 0.22726 0.043233
18.6065 16.9903 7.05051 0.664578 -0.450352 -1.93508
20.9616 16.3597 8.63327 -0.439473 1.10269 0.592623
12.417 21.2667 9.82905 -1.87496 1.54902 -0.958631