ITEM: TIMESTEP
0
ITEM: NUMBER OF ATOMS
561
ITEM: BOX BOUNDS ss ss ss
7.6901286196415510e+00 3.1470573935664390e+01
7.0649345060280888e+00 3.3795930517142587e+01
8.5836922071762203e+00 3.3176051945228245e+01
ITEM: ATOMS x y z vx vy vz
15.1637 13.5994 10.8241 -1.01327 1.85298 -1.25142
17.8893 14.1954 10.8168 0.314815 -1.09192 -2.73345
15.6151 17.9227 8.58777 0.847504 0.301903 0.285586
14.3935 18.1399 12.4066 -0.639301 -2.46867 -1.66463
14.8951 15.2664 8.67968 0.0526529 0.0845439 -0.903295
13.6221 15.4034 12.2914 1.49443 -0.35458 0.51305
13.4008 17.1188 10.0671 1.69125 -0.511027 0.451706
18.7328 16.9119 10.9071 0.184748 0.623117 -2.62916
15.9413 16.2658 10.8893 -0.191138 2.39379 -1.16061
17.5658 15.94 8.62798 1.17283 0.535452 -0.235157
21.5226 17.5945 11.0121 1.87556 -0.480035 -1.10558
23.5155 15.5867 11.0318 -2.04627 0.0903388 -0.466318
23.1762 17.3477 8.84349 -0.636843 -0.786324 0.417865
20.7027 14.8887 10.9023 1.76051 1.11243 -1.16546
20.3706 16.6514 8.71416 -0.707693 1.45967 0.750778
24.306 18.2947 11.164 0.0333617 -1.82564 -0.936527
26.323 16.288 11.2054 0.871713 0.187487 1.55147
25.9846 18.0293 9.01619 -1.17885 -0.841214 0.573565
28.9997 17.032 11.462 0.751061 -0.334063 -0.912029
15.1915 20.8958 12.4442 1.99934 -1.49655 -1.71819
14.1047 19.8325 10.0859 0.24486 1.67327 -0.184613
12.6164 21.7461 11.6794 -0.864693 0.0317763 -0.060726
11.9143 19.0445 11.6365 -0.622913 -1.11063 -1.41616
17.5129 21.7341 10.9586 1.56154 -1.59137 0.930102
19.5225 19.6703 10.9475 -1.75122 1.72397 0.494352
19.1931 21.364 8.69145 0.782116 -0.440091 -0.919614
16.7135 19.0033 10.8816 -0.674226 0.00347359 0.33065
16.4206 20.6708 8.66804 0.135103 0.154771 0.717441
18.3874 18.6205 8.60591 -2.1157 0.274237 2.01016
22.3207 20.3646 11.0765 0.151892 0.763632 -0.85661
22.0164 22.0646 8.82174 1.02482 1.5784 0.348217
21.2016 19.3167 8.7125 -1.20077 -0.093267 -0.358803
25.1101 21.0868 11.269 -2.62222 -0.589543 0.412525
27.0661 19.0261 11.4024 0.0630608 -0.42358 -0.5004
26.7802 20.6933 9.103 -0.252278 -0.16969 -0.391316
24.0129 20.0165 8.86543 -0.933141 0.320899 -0.0414193
28.976 20.9834 10.7859 -0.870263 -0.293798 0.456388
28.6453 18.6784 9.31412 0.200198 2.44656 -1.42294
14.9107 22.5757 10.1713 0.688392 -0.00493591 1.79021
13.4321 24.4936 11.7882 0.955316 0.812236 0.152211
18.3168 24.4627 11.0503 -1.75395 1.99529 0.35727
18.0304 26.1378 8.84989 0.656341 2.35399 -2.88919
17.2236 23.4033 8.75441 -0.198982 -0.675444 2.61174
16.0037 23.6366 12.5343 -0.107749 -1.30284 1.33437
15.7173 25.3175 10.2786 -0.771171 -1.25147 -1.15378
21.1372 25.1626 11.1805 -1.36072 -0.500791 -0.644908
23.1258 23.1269 11.2176 0.0286317 0.733892 1.37444
22.793 24.7854 9.01148 0.0626867 -0.306171 2.04344
20.3257 22.4136 11.0407 -0.534806 1.53768 -0.692665
20.0103 24.1028 8.79511 -0.738505 -0.437417 -0.601858
25.092 25.1022 10.6412 1.39656 0.0761377 -0.0852003
24.7822 22.7458 9.05395 0.11451 2.68355 -0.334679
27.3676 25.4066 12.36 1.18405 -0.966673 -1.31932
27.0888 23.0543 10.6851 1.072 -1.81628 -0.422029
29.2498 23.346 12.4364 2.33548 -1.61911 -0.410641
14.3069 27.1866 11.944 0.333422 -0.129391 0.836466
19.1347 27.1859 11.1875 0.0374415 0.614559 0.170669
18.8389 28.7801 9.02604 -1.32381 -0.325647 0.481952
16.8397 26.3786 12.6656 2.12985 -0.271761 0.506155
16.5806 28.0183 10.4353 0.954252 0.537108 -0.940094
18.4528 29.8675 11.5429 -1.64437 -1.13868 1.16242
21.0598 29.1299 10.6421 1.15956 1.58238 -1.84298
20.7987 26.8248 8.97768 1.02809 -1.47369 -1.72899
23.3183 29.4229 12.3599 -0.253505 -0.361607 0.242211
23.0934 27.148 10.6191 -0.95398 -0.855126 1.44592
25.3582 27.4532 12.3386 0.726288 0.836797 -0.610854
18.5018 10.8134 15.3715 -0.567312 -1.48465 -0.620547
15.7721 10.2685 15.3193 -2.15997 -1.20312 -0.391213
15.4649 11.9297 13.0661 -2.77678 0.152639 -0.31185
13.927 13.7044 14.5616 0.478923 -0.0222003 -0.376593
19.3617 13.4822 15.4381 0.87687 0.444563 -1.01926
16.5343 12.8815 15.3819 0.999244 -0.793483 0.0480392
16.2302 14.5571 13.1269 -0.87363 -2.1303 0.167063
18.1904 12.4972 13.0882 -0.0549819 -0.781139 -0.000886561
22.1662 14.1519 15.548 -0.478142 2.81313 0.71674
21.3316 11.4761 15.4851 -1.59415 0.8688 -0.11732
21.0179 13.1717 13.1862 -0.518966 -0.133243 0.573485
26.9633 12.9116 15.7602 -1.13647 -0.718848 0.166083
26.6517 14.596 13.4774 0.871015 0.466907 1.76381
24.1532 12.1758 15.6147 0.0833421 0.375048 -0.448928
23.8394 13.8716 13.3159 0.741696 -0.696048 -0.644743
29.6252 13.7032 15.9563 -1.11925 -0.369579 -0.184676
14.6613 16.4195 14.6795 -0.32648 -1.31688 -0.757834
13.1732 18.309 16.2671 2.52874 -1.54665 -1.85157
12.4155 15.6073 16.1597 0.801993 0.492392 -0.322052
12.1211 17.3177 13.8682 0.469403 0.677072 -0.182212
18.1586 18.3405 15.6075 -0.0619278 -1.62015 -0.271018
17.3514 15.6118 15.508 -1.28244 0.676069 -1.2648
17.0508 17.3104 13.2451 -0.937549 -1.37658 1.01248
19.0507 15.1769 13.1624 0.260226 0.523707 -0.797343
22.9523 16.9413 15.709 -1.38327 1.75335 -0.130462
20.1601 16.2488 15.5805 -0.977378 0.475814 0.460243
19.8424 17.9656 13.3063 0.0809531 0.970259 -0.751423
21.8501 15.8528 13.2679 -1.72133 1.12487 1.45944
25.7282 17.6894 15.8937 2.72051 -0.870789 1.37263
27.4139 17.3313 13.6422 -0.258018 -0.66754 0.485734
24.957 14.8698 15.6954 0.310345 -0.833255 -0.021479
24.6388 16.5631 13.4197 -0.923672 0.20216 -1.7629
27.7311 15.658 15.8971 -0.255577 0.334087 -2.10831
29.7144 17.6197 15.2889 1.09723 1.19418 1.53741
29.3177 15.3655 13.704 0.440977 1.12938 -0.241428
11.475 21.9258 15.5985 1.26323 -0.0684196 -0.432754
10.6482 19.2285 15.4792 -0.274265 0.742265 -1.79552
10.445 20.9503 13.2434 -0.573331 2.36907 0.697496
15.5324 19.1854 14.7959 1.45981 -0.570935 -0.958533
14.0732 21.0786 16.3919 1.01439 -1.86741 -1.32841
12.9144 20.0306 13.9871 0.764449 -0.00797387 0.0663753
18.9551 21.0729 15.6739 -0.147263 -0.54036 -0.639427
17.8358 20.0377 13.2825 2.19664 -1.21266 2.24838
16.3397 21.9328 14.8628 -0.715316 -0.207008 0.818688
21.7554 21.7677 15.803 -1.97733 -0.287568 -1.95201
23.4312 21.426 13.5406 -1.34022 -0.807148 -0.685345
20.9542 19.0121 15.7036 0.594486 0.637377 -1.51927
20.639 20.7161 13.377 -0.916584 -1.28375 1.57389
22.6292 18.6569 13.4348 -1.81043 0.345351 0.479843
23.7367 19.7242 15.8645 -0.107109 -0.98167 -1.97901
25.725 21.7142 15.2659 -0.605666 -2.08007 -1.58055
25.3975 19.3811 13.6299 -1.29835 0.405299 -0.170639
27.4226 21.3727 13.0077 0.276042 0.539506 0.991419
27.7919 19.6766 15.2846 -1.67015 0.627529 2.89583
29.6796 21.6737 14.6778 -0.16176 -0.838802 0.010084
29.3881 19.3146 13.0185 1.15829 1.15901 0.467496
9.76794 25.5073 14.982 1.4448 0.728946 -0.0272925
11.1586 23.6539 13.3077 -0.35929 0.423306 1.0035
7.69421 24.6069 16.5544 1.53484 -0.0722535 -1.63591
8.99196 22.8377 14.8888 0.239148 2.69149 -0.497549
14.9057 23.8388 16.487 0.289562 -0.520524 -0.187908
14.5735 25.5469 14.1731 0.29117 0.934069 1.26911
12.3162 24.7072 15.6904 0.123818 0.25753 -1.5962
13.7261 22.7967 14.0467 -0.376648 -0.122339 -1.87578
19.4487 25.494 13.4815 -1.27219 1.22669 0.906626
17.169 24.675 14.9736 0.0216285 -0.442145 0.473807
18.6381 22.7693 13.367 -1.60584 0.112737 -1.01955
19.7623 23.8039 15.773 1.45246 0.53984 0.496873
21.708 25.8013 15.183 2.46291 -1.08038 -0.543652
21.4434 23.4654 13.4964 -0.499047 0.4451 -1.93335
23.4299 25.4794 12.877 -0.0922597 -0.898429 0.176325
23.727 23.7657 15.2036 -0.31076 2.02031 0.139442
25.6953 25.7667 14.5989 -0.250041 0.512979 0.356928
25.4313 23.4367 12.9166 -1.27106 1.02382 -1.19065
27.9486 26.0134 16.3583 -0.496451 0.894246 0.805165
27.7055 23.7006 14.6694 -0.836071 -0.369258 0.834167
29.9451 24.016 16.3687 1.75918 -0.86092 -1.32361
29.5145 25.6823 14.1231 -0.594211 1.12317 1.88489
11.5876 27.4408 16.0418 0.923595 0.271094 -0.161155
12.0415 26.3509 13.4567 -0.999028 0.410295 -0.577561
13.8611 28.2801 14.5222 1.37907 0.117951 1.76055
19.0663 26.5488 16.0959 -2.12577 -0.340432 -0.357909
18.7472 28.2627 13.7941 -1.77054 0.417961 -0.255739
16.4366 27.4583 15.2937 -1.49883 0.968507 1.40042
16.1473 29.1134 13.0194 -0.481716 1.48684 -0.568183
18.3696 29.2962 16.4188 -1.13215 -0.216283 2.08452
21.4032 27.5112 12.8762 0.379322 -1.87096 0.183782
21.0263 28.5972 15.5055 -0.88839 0.202268 0.484444
23.6553 27.8006 14.5922 -0.190915 -1.16862 0.818128
25.9023 28.0785 16.3173 -0.606524 1.30783 0.498201
25.5709 29.7084 14.0812 0.264815 1.58869 -0.505952
27.6195 27.7387 14.0672 -0.62515 0.689594 0.641097
29.7702 27.9938 15.8473 -0.0984649 -1.42121 0.544509
18.0735 30.9069 14.1723 -0.142561 1.43131 1.05068
15.7705 30.1661 15.6518 -0.31979 -2.5146 1.20276
20.7059 30.2447 13.2298 -0.747095 -2.10517 -0.317218
20.318 31.2946 15.8617 0.2345 0.242301 0.658371
22.9767 30.5422 14.9429 1.07848 -1.20164 -0.137846
25.2378 30.828 16.6718 0.2824 0.567147 -0.184735
27.8334 29.9903 15.8157 1.90986 -1.24996 0.526243
14.5566 10.3556 19.1384 -0.44977 -1.81019 -0.149452
17.1767 9.5932 19.9386 -0.594143 -0.586975 1.91313
19.1153 7.56892 19.9794 -0.876267 -0.797535 0.557431
18.8233 9.14667 17.6632 -1.99477 -1.58426 -1.21502
16.4123 7.06901 19.7972 -0.676145 2.68468 0.358942
16.0846 8.62111 17.5762 -0.341971 -1.22503 -0.520034
22.7748 10.8324 20.1795 0.674172 -1.80956 0.260413
19.9819 10.1661 20.0539 0.136066 0.121904 0.577795
21.9301 8.22806 20.1346 -0.741669 -0.423343 1.55722
21.6442 9.801 17.8002 -0.224976 -1.07142 0.321452
24.7359 8.92348 20.2632 0.708452 -0.223885 -1.21415
24.4571 10.4983 17.9293 -0.669994 0.34549 -0.540263
30.1637 10.4767 20.4282 0.572369 0.806574 0.317579
27.5349 9.6556 20.3655 -0.231822 -1.87644 -0.789974
15.2851 13.0522 19.2469 -0.664871 0.17182 -1.68019
14.2386 12.021 16.8451 1.87979 -0.310611 -1.57981
13.0636 12.2319 20.7674 0.0254378 0.840504 2.03151
12.7296 13.9124 18.4591 0.973558 -0.755443 -0.662285
17.9831 12.2773 20.0706 1.12485 0.504617 0.859749
17.6618 13.9358 17.7809 -1.79286 -0.475968 0.18294
16.8473 11.2232 17.6485 -0.591254 0.0984887 1.67815
20.7819 12.8942 20.1824 0.872902 0.274729 -2.04934
20.4728 14.5603 17.8698 1.13679 0.538183 2.33388
22.4754 12.4751 17.8469 1.08292 0.469361 0.415944
19.6742 11.8089 17.7293 1.82066 -0.431874 -0.855083
26.3304 14.3462 20.4539 -0.649417 0.461503 1.68121
23.5688 13.585 20.3104 0.0905615 0.196715 1.09249
25.5554 11.5475 20.3097 0.705004 0.465727 0.19194
25.2625 13.1943 17.986 0.49877 1.60512 -0.116995
27.2576 11.2374 18.0502 -1.04459 1.34289 0.946498
28.3024 12.3505 20.4493 -0.523458 -1.41275 0.0118939
28.0315 13.9957 18.1624 0.371311 -0.842437 -0.452506
30.3236 14.2634 19.8628 -1.21922 -0.328461 -0.0713317
29.9215 12.0507 18.2116 -2.70883 -0.565372 1.34787
11.2526 15.8292 20.0753 0.405451 0.486802 -0.813161
10.9383 17.524 17.7759 0.291466 2.57804 -1.23716
14.9642 14.7275 16.9583 -0.672862 -2.06766 -0.821502
13.7992 14.9327 20.847 2.20648 -0.835507 -0.761473
13.4729 16.6135 18.5535 -0.0521022 -1.00175 0.735193
18.7846 14.9631 20.1875 -0.799161 0.451253 0.0758033
18.4683 16.6453 17.8932 1.28665 2.01171 -0.432303
16.133 15.7895 19.3703 1.83547 -0.103473 -0.481398
15.82 17.4776 17.0808 -0.140872 0.799948 1.15792
22.3809 18.3649 20.4257 1.53558 0.0951921 -0.860873
19.5904 17.673 20.2974 0.54882 0.225016 1.78706
21.5832 15.6185 20.3044 0.795093 -0.126015 0.216191
21.2714 17.3058 17.9966 -0.0651124 -1.2188 -0.716703
23.265 15.2527 17.9981 2.15674 1.24046 0.214407
24.3629 16.3459 20.4438 -0.0806736 -1.65068 -0.231222
24.0561 18.031 18.1503 1.49185 2.13724 0.641087
26.3832 18.3309 19.8417 -2.31276 -2.07172 1.21586
26.0388 16.0127 18.1661 0.452004 0.565475 -1.1824
28.4163 16.3073 19.8504 -0.0172303 0.785471 -0.0185062
28.1163 17.9889 17.5636 1.40065 -0.967273 -2.53325
30.3337 18.2769 19.2688 -0.199813 -0.533815 1.90142
30.0264 15.9351 17.5714 -0.698309 2.2692 -0.986895
10.3745 22.1547 19.5319 -1.16615 -1.75304 -1.28652
9.49714 19.4524 19.4079 1.83274 -0.967613 -1.7813
9.20588 21.1324 17.1217 1.07838 0.627446 0.211608
15.238 22.13 18.8021 -0.837088 -0.0944569 1.74538
12.9658 21.3026 20.3056 0.541148 0.299517 0.223775
14.3582 19.3744 18.6799 -0.142984 2.09969 1.21211
12.035 18.5287 20.1629 -0.0280816 1.28062 2.07443
11.7354 20.2157 17.88 -1.0133 1.95723 0.489687
17.8144 21.2676 19.592 1.0471 -0.109412 0.799728
19.2753 19.3719 17.9939 0.444761 0.613532 1.55717
16.9698 18.5238 19.4838 0.706012 2.11822 -0.548409
16.6657 20.226 17.1859 -0.919018 0.648639 -1.32735
20.395 20.395 20.395 0.44901 0.539066 -1.02688
20.078 22.1031 18.0791 1.08271 1.07486 0.352206
22.0658 20.064 18.1224 0.0811997 -0.231755 -0.354262
24.3619 20.3569 19.8239 -1.09911 -0.565822 0.37406
24.0348 22.054 17.5255 -0.394044 -0.162269 2.89222
26.0701 20.0197 17.5528 0.407931 0.0535399 0.0929332
28.4118 20.318 19.2409 -1.54278 0.41502 1.98754
28.083 22.0074 16.954 1.22888 -0.50896 1.31779
30.2858 22.3227 18.6666 -1.90955 0.983543 0.566288
30.0192 19.9732 16.9705 0.208829 -2.70439 -0.105312
10.1155 23.8231 17.2605 0.964339 0.0875575 1.8805
7.91868 22.9985 18.748 -2.68846 -0.113561 -1.7799
9.63362 24.9059 19.8457 0.741676 -1.05146 1.24648
12.6801 22.9806 18.0253 -2.49839 0.628162 0.761445
14.5052 24.8897 19.1436 1.21574 2.46716 -0.653346
12.1756 24.0972 20.6823 0.101386 -2.54268 1.26356
11.9098 25.7629 18.3688 0.943962 -0.735265 -1.01422
17.4888 22.9753 17.2777 0.920981 -0.666419 1.10839
19.3829 24.8457 18.398 -2.75033 -1.74984 -0.311333
17.0958 24.0182 19.924 -0.227165 -0.371549 0.0222031
16.7705 25.7344 17.6077 0.672089 -0.830287 0.977532
19.7019 23.1313 20.7082 -0.440077 -1.17231 -0.0423382
22.3294 22.3875 19.7999 0.754355 -0.899451 1.73187
22.0198 24.0994 17.4866 1.71435 -0.638887 0.0209817
21.6501 25.148 20.1338 -0.916726 -0.444766 1.9518
24.2635 24.3688 19.218 1.38531 -1.21349 -2.13501
23.9592 26.0852 16.9046 -0.925298 0.0299109 1.33635
26.3339 22.3446 19.2313 -1.30945 -1.31955 -0.494303
25.9881 24.0346 16.9412 -1.67502 -1.12681 0.743852
28.3196 24.3296 18.644 1.03987 0.884624 -0.842543
30.5139 24.6653 20.3753 0.746656 -0.665765 -0.953069
9.40918 26.5205 17.5476 -1.02383 0.798102 -0.0595819
11.2922 28.4278 18.6421 -0.111013 -1.05824 0.560102
14.16 26.6263 16.8118 -1.3955 -0.022153 -3.20549
13.777 27.6423 19.483 -1.57187 0.50724 0.509407
13.4764 29.3374 17.1605 -0.534164 -1.10351 -0.879734
18.6902 27.5763 18.7256 -0.284469 -1.01257 0.790712
16.3901 26.7511 20.2585 -0.399193 -2.40554 -2.49524
16.0526 28.4954 17.9313 -0.468379 -0.782636 -0.519007
15.6792 29.4855 20.5986 0.784564 -0.70169 -1.02731
21.3361 26.8673 17.8183 -0.649088 0.0337704 0.453676
20.9671 27.8866 20.4695 1.17545 0.844579 -0.354475
20.6517 29.6366 18.1435 -2.08983 0.89513 0.507673
23.2867 28.891 17.2329 0.2679 0.493316 -0.0441483
22.9184 29.9105 19.9047 -1.00436 -1.30031 0.109486
23.5913 27.1439 19.5626 -0.324654 0.250487 -0.54
26.1855 26.3312 18.648 -2.3295 1.28782 0.579208
25.5355 29.1436 18.9974 -0.137279 3.49103 -0.594192
28.4701 26.6434 20.3657 0.287816 2.28211 -1.92025
28.1159 28.2895 18.0909 1.21891 0.0342102 -1.8426
27.8113 29.4155 20.6842 -0.390089 -0.144829 -0.946373
30.3057 28.5527 19.7803 -1.10013 -0.115865 -1.6325
30.1841 26.3373 18.0886 -0.0554386 -0.779307 0.320087
15.3923 31.1985 18.2927 -1.09911 1.03033 1.83347
13.1898 30.3018 19.7648 -1.14004 -0.39632 -1.32216
17.9952 30.316 19.0498 0.405525 0.111545 -0.0686319
17.6967 31.9364 16.8022 0.416667 -0.500591 -1.22122
17.3192 32.9654 19.4491 0.627094 -1.54344 0.519377
20.2873 30.6289 20.8111 1.7249 -0.663595 2.27077
19.9402 32.3271 18.5024 0.300551 0.145842 -1.12616
22.5932 31.5997 17.5812 -0.262033 2.57281 -0.335469
22.1698 32.5301 20.1789 -0.278735 0.310338 -0.666797
24.8118 31.7824 19.266 0.36929 0.579513 0.855378
27.4541 30.9981 18.3805 0.0919076 -1.08368 1.49126
29.9425 30.1278 17.5811 -1.09249 1.33529 -0.515653
14.9511 8.749 21.4193 -1.15098 -0.429673 -1.80584
13.4751 10.6238 23.0587 1.05851 -1.31446 -0.0923338
18.603 8.89665 24.6342 4.34142 -0.930863 0.513484
18.286 10.5173 22.3893 1.5722 0.412731 2.08029
17.475 7.88214 22.204 -0.524349 1.02652 -1.45154
15.9861 9.68185 23.8522 -0.439905 0.24614 -0.131403
21.3947 9.48659 24.7955 1.22114 -0.133824 -0.189693
23.0864 9.14338 22.5049 2.02006 1.06784 1.43667
20.2681 8.46848 22.3713 -0.936377 0.613027 1.25392
24.2183 10.1863 24.925 -0.0104287 0.912605 0.769209
25.8941 9.86272 22.6294 0.428585 1.10988 -0.886993
28.6412 10.6492 22.7163 0.799868 -0.944845 2.82044
11.5914 14.143 22.3787 0.912377 1.29459 1.00484
14.1678 13.271 23.1562 0.901113 -1.1371 -0.466434
12.0068 12.5301 24.6659 -0.188443 -0.415444 -0.345282
19.4063 11.5227 24.8051 0.000248758 -1.70717 -0.558068
19.0955 13.2425 22.4969 -0.554866 0.559384 0.9586
16.7722 12.3711 24.0054 -1.62735 0.417918 -1.14217
16.4724 14.115 21.6727 1.44002 -1.65552 1.44203
15.6432 11.3954 21.5544 0.360662 1.08755 -0.701678
20.2173 14.2556 24.9109 -1.26087 0.585979 0.548541
22.2253 12.1691 24.9301 -1.22989 -0.0806804 0.640951
21.9028 13.8992 22.6192 -2.15264 1.44231 -0.199944
21.1025 11.1441 22.5077 2.49998 -0.366505 0.462087
24.6913 14.6294 22.7538 -0.375276 -1.52168 0.38433
26.6833 12.5983 22.7747 -0.570893 2.55262 0.667368
23.9009 11.8376 22.6361 0.373552 0.458577 -2.49377
28.9714 12.8997 24.4482 0.687072 0.272136 -0.0670497
28.6734 14.6246 22.1526 -0.396061 -1.21312 -0.452188
30.5276 12.6089 22.1344 -1.02095 0.392206 0.359448
10.1426 16.0859 23.9694 0.0983471 1.29462 -1.16967
9.80952 17.7695 21.6917 -0.964692 0.156283 -1.18179
13.6145 17.9486 24.8514 1.04345 -0.344841 0.75305
15.0138 16.0085 23.2689 0.169326 1.34399 0.854648
14.6714 17.6865 20.9695 -1.1094 -0.993004 -0.46248
12.7264 15.1822 24.7467 -0.169064 0.272219 -1.12469
12.3601 16.8489 22.4476 0.488554 -0.115164 1.61207
18.438 17.8614 24.2124 0.391462 0.0775456 -0.34869
17.604 15.1171 24.1058 0.719332 -0.194088 0.369726
17.295 16.8332 21.7873 0.742028 -1.14657 0.378094
22.7042 16.6529 22.7371 -0.765341 -0.0379899 -1.7762
19.9037 15.9587 22.6085 -1.23618 -0.539708 -1.19152
24.9919 16.9481 24.445 -1.09997 -1.21582 1.08757
27.0129 14.9089 24.4753 1.59758 -0.929617 0.758255
26.6656 16.6415 22.1409 -1.02272 -0.638208 -0.288807
28.96 16.937 23.8352 -0.0770424 -1.4796 -0.975459
30.8121 14.9201 23.8545 -0.649407 0.289537 0.749315
30.6231 16.5842 21.574 -1.92341 -2.37906 1.73034
10.9935 18.8218 24.054 -0.356462 2.49181 0.921687
10.6728 20.4883 21.7946 0.821638 -1.14296 -0.876553
8.52075 19.6803 23.2534 -1.02515 -0.887353 0.394247
8.21228 21.3407 20.9998 -0.686602 -3.41341 -2.8214
10.2377 21.5397 24.4132 0.786253 1.30782 -0.94838
15.5431 20.4416 21.0935 0.0403875 -0.10908 -0.371546
13.2769 19.627 22.5787 0.620602 2.07727 -1.8486
15.1074 21.5243 23.7404 -0.253551 -0.514253 0.339524
18.1297 19.5689 21.8956 -1.04423 1.06012 -0.943091
15.8649 18.753 23.3824 0.196937 -1.23131 0.741052
17.7261 20.6254 24.5252 -0.339835 -0.459357 -1.49251
17.4017 22.3278 22.2302 0.844693 1.52789 -0.0644726
20.712 18.6869 22.7109 -1.6889 1.37957 0.430692
20.0174 21.4325 23.0117 0.0509378 0.357989 1.22226
22.9693 18.9846 24.4205 1.09488 -0.506021 -1.10167
22.6448 20.6884 22.1032 0.811204 2.01931 -0.285833
22.2806 21.7544 24.7345 0.372678 0.74126 0.442928
24.8909 20.9905 23.7972 1.10496 -0.0947448 -0.0418106
24.6645 18.66 22.1259 0.491813 -0.666498 0.814956
26.9294 18.9619 23.8161 0.662564 -0.159218 0.980165
26.6473 20.6557 21.5202 0.0945657 -0.967592 0.69424
28.9451 20.9603 23.2097 -0.326475 -0.243746 -0.222326
28.7096 18.6289 21.5322 1.0594 1.18105 -0.138422
31.1221 21.286 24.9326 2.19951 -0.275649 -0.00650376
30.8894 18.9264 23.2648 0.0949034 -0.0237867 0.385217
30.6005 20.6264 20.9648 -1.84784 -0.759726 0.592635
9.92491 23.2227 22.1295 1.55406 0.63432 -0.409983
14.7937 23.2123 21.4508 -1.58395 0.157558 -1.01167
12.4765 22.4175 22.9705 1.8333 0.120244 0.0846098
14.3457 24.301 24.1039 -1.15907 1.07688 1.63885
14.0435 25.9816 21.8068 0.742841 1.15575 -0.00602809
11.8015 25.1311 23.2679 1.37658 0.180373 -0.905494
19.323 24.1735 23.3285 0.691281 -0.596429 2.32152
19.011 25.8557 21.0336 0.102362 -0.350019 -0.502635
16.9963 23.389 24.8571 3.03379 -0.647508 0.339618
16.6824 25.0771 22.5677 0.463158 0.973715 0.188265
21.9702 23.4607 22.4404 1.50981 1.00877 0.432569
24.5844 22.6836 21.5095 -0.413637 0.191284 -0.0578062
24.2346 23.7872 24.1601 -0.181697 -1.27317 -2.07526
23.9207 25.4759 21.8711 -0.672157 2.23722 -0.530648
26.8312 22.9876 23.2019 0.135944 -0.902201 -0.305817
26.5197 24.6643 20.9297 0.750584 -0.579289 0.990978
26.2004 25.8207 23.6021 1.69379 -0.180702 -0.677381
29.0899 23.3078 24.8856 -0.329687 -0.219105 -0.916695
28.7897 24.9809 22.6283 0.97577 0.419117 -1.11675
28.6453 22.6478 20.9272 0.469736 -1.58117 -1.22949
30.9356 25.2376 24.2841 0.170769 -1.29878 0.165519
30.8267 22.9806 22.6577 -0.923834 0.745332 -1.11272
11.5085 26.8168 20.958 -1.60692 1.47698 1.6175
13.7101 27.0154 24.3967 -0.764393 0.430957 1.92996
13.411 28.6955 22.0834 0.879989 0.0749042 0.372416
18.6321 26.8974 23.6563 0.881809 1.93367 0.601984
18.3256 28.5558 21.3645 -0.807387 -1.77243 0.185336
15.9554 27.8295 22.9179 0.670109 0.0356488 0.877977
17.9391 29.6244 24.0058 1.64109 1.70906 -1.62179
21.2917 26.2203 22.7799 -1.45528 0.269948 -1.20649
20.6169 28.9859 23.1326 1.50523 0.0226491 3.49706
23.2582 28.2674 22.2314 -0.0162389 0.741346 -1.55513
22.846 29.2814 24.8172 1.97207 -1.43951 -1.54611
23.5784 26.5905 24.5287 -2.16943 0.22491 -0.605587
25.8789 27.4963 21.3138 -0.327507 0.432801 -0.560644
25.5028 28.5291 23.899 -0.123953 1.27029 -0.231903
28.1435 27.741 22.9688 -1.08387 -1.0508 0.430085
30.6266 26.8999 22.032 0.476006 1.4461 0.03171
15.3379 30.539 23.2201 -1.63471 -0.596081 1.05412
15.1032 32.1441 20.9162 -0.649379 1.29429 1.50988
17.6398 31.2541 21.7113 1.26017 -0.625918 -0.186499
17.2769 32.2402 24.2832 -0.61116 0.408072 -2.19597
16.9939 33.7919 22.0557 0.578617 -0.236403 0.640669
19.5259 33.2417 21.12 0.332368 1.46478 0.427322
19.8695 31.6635 23.4287 -0.5154 -2.98814 -0.45366
22.5243 30.9566 22.5034 1.53322 -0.234557 -0.388271
25.1731 30.2068 21.5881 -2.19544 -0.391804 1.15527
17.1132 10.6998 26.2764 1.62663 1.66642 0.12539
22.5289 10.5218 27.2082 0.739691 0.527113 0.94246
19.7256 9.91184 27.0483 -1.5732 -1.25327 0.23202
10.5451 14.4695 26.2419 -0.31525 -0.0311568 3.09982
15.3078 14.2724 25.6082 0.00608161 -0.432229 -0.869409
14.5027 11.5756 25.4737 -1.41486 1.0117 0.802822
13.042 13.5044 27.0746 -0.598508 1.66216 -0.746314
19.0521 14.4584 28.8296 0.699516 0.0732975 0.604487
18.2368 11.7381 28.6928 1.01037 0.456962 -1.01994
17.904 13.3936 26.4248 -0.000967296 1.77172 2.04741
15.6356 12.6183 27.8936 -0.127833 -0.302335 -0.616488
23.3489 13.2408 27.3434 -0.376439 -0.790221 -0.215719
20.5282 12.5418 27.214 0.134902 0.824297 -1.04363
25.6136 13.566 29.0312 0.991051 0.412186 0.926302
25.2955 11.292 27.3038 -0.846066 -0.592718 0.313816
25.0197 12.9137 25.0627 -1.07287 -0.320206 0.878658
27.2954 13.223 26.7435 1.43556 2.08417 1.1805
26.9655 10.9689 25.0179 1.03888 1.51347 1.01552
11.6319 15.4689 28.5994 -1.35527 2.66364 0.882224
11.3543 17.1524 26.3108 0.783338 0.412946 -1.8257
9.21619 16.4123 27.6733 -2.45343 -2.83527 0.255358
8.84306 18.0222 25.5011 0.514957 -0.721475 0.0833515
10.9641 18.1524 28.9004 -1.23843 -0.574143 0.616394
13.8915 16.2228 27.1988 -2.88517 0.73927 -1.66089
18.7492 16.1618 26.5178 0.0417249 -0.118024 1.17971
16.4688 15.3367 28.0202 -1.02878 0.0458271 0.998509
16.167 17.0445 25.7019 1.71768 -0.410173 -0.354026
15.7435 18.102 28.373 1.2306 -0.953464 -0.739106
21.3413 15.296 27.3085 1.78145 -0.686567 -0.301078
21.0276 16.9861 25.017 -0.218088 1.68418 -1.5133
20.6473 18.0351 27.6396 0.965201 0.584947 1.14121
23.2886 17.2867 26.7261 -0.211095 0.260717 1.65476
23.0228 14.9509 25.0397 -0.071315 0.910827 -0.831987
23.6162 15.5893 29.0389 -1.24637 0.397716 0.52921
25.5515 17.5874 28.4369 0.020904 -0.745256 1.40098
25.3309 15.234 26.7655 -0.157251 2.29697 0.226646
27.2779 17.2388 26.1575 1.37264 -0.293279 0.425956
27.5629 15.5739 28.4408 -0.786157 -2.22025 -0.256716
29.5044 17.5839 27.8299 -0.938993 -0.134397 1.20269
29.2553 15.2314 26.1507 -0.0343694 -0.468254 0.456262
31.0779 17.2564 25.541 -0.570637 -2.01174 -0.690108
10.5716 19.8593 26.6933 -0.423332 0.719023 0.724556
15.4472 19.8196 26.0204 -0.454369 1.75405 -0.0782747
13.1628 19.0193 27.5168 0.428823 0.0222956 0.285774
12.8013 20.7304 25.2498 -0.465533 -2.16709 -0.877899
15.0337 20.8827 28.6516 -0.459018 -2.19418 0.987359
12.4542 21.7314 27.8571 0.299781 0.734656 -0.503746
18.0365 18.9188 26.8505 1.21511 0.609141 1.24659
17.3327 21.6807 27.135 -0.503119 0.728143 -1.47801
20.3327 19.7315 25.3323 -1.46287 -0.5893 -2.13089
19.9529 20.7811 27.9396 -0.391182 0.0279986 0.864412
22.6024 20.0504 27.0601 3.50258 -0.650026 0.432604
25.2212 19.2885 26.1175 0.699209 0.71029 1.1558
24.8709 20.364 28.7919 -0.990055 0.945348 1.74352
24.5339 22.0719 26.4378 -0.599538 0.557389 2.01482
27.4788 19.5899 27.8224 -0.684795 -0.248815 0.657264
27.1207 21.2962 25.4717 -1.10087 0.710278 -0.906518
29.3562 21.6138 27.1371 1.25005 0.307909 -0.888927
29.2012 19.2652 25.5029 -1.29167 0.214016 0.364962
31.4665 21.9261 28.6943 -1.19459 0.205496 1.40413
31.3252 19.6192 27.1953 0.803249 0.671698 1.40596
14.6713 22.6053 26.3866 0.404913 1.28351 -3.17177
12.1167 23.4363 25.5673 -0.605977 0.692227 -0.321832
14.3573 23.6097 28.9821 -0.8625 -0.743718 0.225266
14.0256 25.3205 26.6959 0.944901 -2.84253 0.519652
19.2618 23.5226 28.1895 0.491436 0.304124 -0.775219
18.9439 25.2214 25.929 0.396502 0.855529 0.646552
16.5819 24.4622 27.4848 1.18069 0.766467 0.228502
16.2616 26.1543 25.2086 -0.535362 0.727979 0.456216
19.6388 22.4782 25.6133 -1.15239 -0.374507 -1.45341
21.91 22.8152 27.3451 0.1294 0.402356 -0.695714
21.6056 24.5318 25.0691 1.4177 0.1383 -1.20668
21.2436 25.6179 27.699 -0.463567 -0.975015 -0.110084
24.1757 23.1484 29.0712 -0.781141 -0.561574 2.20896
23.8864 24.8897 26.81 -0.351234 0.637182 0.0624664
26.7896 22.3963 28.1424 0.0224957 -2.15901 -0.377295
26.5052 24.1274 25.8797 0.813762 -1.54253 -0.864042
26.1196 25.1184 28.4848 1.29006 -0.602619 -0.581104
28.7504 24.3648 27.5284 -1.06619 3.11711 -2.48812
28.4567 26.0565 25.2513 -0.160273 0.195419 -2.13486
31.2316 23.5713 26.5292 -0.456298 -2.08133 -2.3166
18.5598 26.2905 28.5268 2.40169 1.73472 1.22286
18.247 27.9662 26.2731 -3.24152 -1.00646 0.368153
15.962 27.1902 27.7977 0.952067 -2.38693 -3.08371
15.6484 28.8737 25.5145 -0.186675 0.154142 -1.99198
17.8923 28.9316 28.7939 -0.251785 0.157515 1.933
20.932 27.3126 25.4234 0.255358 -0.222366 1.47721
20.4897 28.3131 28.0055 -1.22548 0.251757 1.16037
23.1616 27.5858 27.1159 -0.703457 -0.786022 0.384607
25.8183 26.8332 26.1975 -1.7565 0.662577 -0.161145
17.5827 30.5928 26.5411 -0.370545 -1.90477 -0.0413432
20.1761 29.9969 25.7226 1.09247 0.782854 -1.52239
14.227 14.5785 29.4238 1.64809 -0.873297 0.692468
19.4018 12.8178 31.0468 0.73911 -0.151436 -0.0964202
16.811 13.6963 30.2385 0.158634 1.30352 0.545485
21.9512 12.0099 31.764 0.998434 0.514991 1.01632
21.6553 13.6041 29.6025 0.830164 0.268182 -0.0148961
21.2751 14.6664 32.1538 -0.85579 2.14925 -2.36666
20.8505 10.9367 29.4611 -1.38166 -0.486575 -1.89032
23.8815 13.9278 31.2523 1.0619 -0.363486 0.358312
23.6191 11.6227 29.5881 -0.581378 0.339446 2.09304
13.4729 17.2913 29.8085 0.594698 -2.12615 1.45533
18.6688 15.534 31.4333 0.925827 -0.0638679 0.21013
18.3389 17.2153 29.1839 0.216021 1.30309 0.717748
16.0665 16.4049 30.6273 0.477036 -1.00671 1.11021
17.977 18.2902 31.7563 0.146606 0.595085 -0.936941
20.9606 16.3418 29.9574 -0.671587 0.0706482 -0.163895
20.5796 17.4154 32.4656 0.587063 0.278267 -1.2725
23.2279 16.6637 31.6424 0.598063 -0.443906 1.76414
22.9289 18.3527 29.3945 0.865207 0.151078 0.970808
25.8233 15.9295 30.6519 0.945952 1.00518 -0.102586
27.7578 17.9313 30.0445 -0.456344 -0.578612 1.82739
15.3664 19.1669 30.9544 -1.49416 -0.417038 0.826073
12.8574 20.0076 30.0641 -1.53736 -2.23059 -1.42971
14.7559 21.881 31.1862 -3.25144 -1.15621 0.185858
17.6368 19.9706 29.492 -0.443774 -2.22798 -0.866258
19.573 21.83 30.5567 -0.0810367 -0.831088 1.449
17.2795 21.0479 32.0582 0.494534 -0.382418 1.34634
20.2668 19.0849 30.2647 -0.364741 -0.60482 -1.40626
19.885 20.1622 32.7675 -0.200998 -0.450775 1.18349
22.5248 19.4172 31.965 1.7948 1.11761 1.6657
22.2364 21.1105 29.7031 1.44051 -0.493857 -2.02129
21.8277 22.1751 32.2668 -1.01144 -1.07089 -0.767066
25.1831 18.6639 31.0456 0.631999 -0.82112 -0.637508
24.484 21.4263 31.3727 -1.71223 0.283101 -1.52215
27.1243 20.6741 30.435 -1.04645 -1.93559 -0.317109
29.6991 19.946 29.4284 0.844053 0.871075 -0.25188
16.9338 22.7409 29.7456 0.138979 2.22103 -0.88761
19.1868 22.9248 33.0643 0.349268 -0.0098126 1.26447
18.8817 24.5815 30.7597 -0.731429 -0.174074 1.49406
16.6607 23.7742 32.2674 0.434391 -0.151465 1.45868
16.2778 25.4911 30.0664 0.0528526 0.989554 -1.6525
18.5202 25.5945 33.172 -0.459463 -0.340695 0.43753
21.5422 23.8831 29.9571 0.818742 1.28904 1.27558
21.0838 24.8705 32.4702 2.44655 0.34615 -0.134787
23.4711 25.8688 29.4006 -0.658156 -0.799709 -0.0898978
23.7366 24.1068 31.5983 1.84186 1.8793 -0.722481
26.3782 23.3582 30.6848 0.900208 -0.27974 -0.0802027
29.0105 22.6243 29.7288 0.449918 -1.30629 -1.16688
18.2044 27.2619 31.0344 -0.187854 0.95211 -0.79097
20.8096 26.6147 30.2742 2.22787 -2.30562 -1.44423
ITEM: TIMESTEP
1000
ITEM: NUMBER OF ATOMS
561
ITEM: BOX BOUNDS ss ss ss
7.6901286196415510e+00 3.1470573935664390e+01
7.0649345060280888e+00 3.3795930517142587e+01
8.5836922071762203e+00 3.3176051945228245e+01
ITEM: ATOMS x y z vx vy vz
15.3458 13.6895 10.9725 1.2314 -0.769909 -0.0243925
17.9987 14.2049 10.8102 -1.04368 0.346344 0.451472
15.6748 18.1099 8.54221 -0.940048 0.204748 0.22279
14.4949 18.2934 12.4093 0.418097 0.977153 0.0476822
14.681 15.4455 8.85241 0.610728 0.633357 1.05786
13.6243 15.4771 12.1254 -0.411518 -0.49908 0.531878
13.3613 17.3561 9.99449 -0.0790094 -0.0272364 -0.621714
18.6525 16.8297 10.8834 0.0425289 -0.594646 0.899185
15.9606 16.2814 10.9023 -0.653611 0.133161 -0.340681
17.5434 16.0045 8.58978 -0.458193 0.381183 0.403517
21.5639 17.6253 11.1083 -1.49348 0.800196 0.807617
23.6258 15.5953 11.0571 -1.17087 -0.53109 0.514911
23.2232 17.3074 8.84157 0.0764103 -0.845601 0.301489
20.8565 14.8509 10.8986 0.907942 -0.65913 -0.237477
20.3525 16.7412 8.76448 -0.202484 -0.864366 0.283812
24.3492 18.2219 11.2895 -0.327208 -0.180263 1.16713
26.3434 16.2578 11.0861 -0.10427 -1.64208 0.437449