ITEM: TIMESTEP
0
ITEM: NUMBER OF ATOMS
585
ITEM: BOX BOUNDS ss ss ss
6.7271909288284322e+00 3.3027148670243349e+01
6.4219576685138113e+00 3.4318145281280081e+01
8.6135055224102999e+00 3.2176495066797052e+01
ITEM: ATOMS x y z vx vy vz
17.7975 9.93889 11.2322 -0.67789 1.06053 -2.09008
14.0387 13.9836 11.8467 -0.363149 -0.123234 -0.977755
13.342 11.2183 12.2662 -3.35105 0.139726 -1.19747
18.4942 12.7042 10.8126 1.00092 -0.288976 -0.0887205
15.6913 11.8377 10.7153 0.385919 0.580864 0.849952
21.297 13.5707 10.91 -0.574979 -0.818723 -0.0646446
23.4032 11.6719 11.4268 0.233784 1.193 -1.11103
20.6003 10.8054 11.3295 0.305717 2.59516 -0.440328
26.206 12.5385 11.5241 0.398024 2.49917 -1.15671
29.0089 13.405 11.6215 -0.541512 -1.14691 -1.31371
14.7354 16.749 11.4271 1.21072 -0.92284 -1.3609
17.3559 16.1974 12.4934 -0.428011 2.55841 0.608129
17.0848 17.3683 9.87623 -0.505996 0.471189 1.61836
19.1909 15.4695 10.3931 -1.16855 0.236859 0.334719
16.3881 14.603 10.2958 0.116609 -0.449636 0.395069
19.8876 18.2349 9.97355 -2.19523 -2.04504 1.18496
21.9937 16.3361 10.4904 -0.242767 -0.188325 -0.911338
24.0999 14.4373 11.0073 -1.16338 0.216816 1.21466
27.5994 18.0691 10.685 0.0229256 0.745142 -1.48002
24.7966 17.2026 10.5877 1.74968 -0.16168 -0.639229
26.9027 15.3038 11.1046 -0.333874 -1.94285 0.0505926
29.7056 16.1703 11.2019 -1.60363 -0.640708 1.16717
15.4321 19.5143 11.0076 0.523501 0.445279 -2.56036
13.7794 21.6602 12.1389 1.3771 -0.16837 -0.283794
18.7493 21.728 11.6543 -1.12538 0.547946 0.50632
18.0526 18.9627 12.0739 -1.07787 -0.102166 0.589833
17.7815 20.1336 9.45668 -1.99675 1.41131 -0.247816
16.1288 22.2796 10.588 0.157485 -1.7498 -0.623524
23.6583 20.6957 12.2685 0.579546 -0.650123 0.81379
23.3872 21.8667 9.65132 -1.00474 -0.553495 0.374495
20.8554 19.8292 12.1712 -0.251759 -1.50902 0.354256
20.5843 21.0002 9.554 0.0422277 -1.64136 -0.25892
22.6904 19.1014 10.0709 -1.22805 -1.28897 -0.488218
25.4933 19.9679 10.1682 -2.27635 1.31453 0.611969
27.679 20.7506 11.8765 1.72283 -0.668387 2.33854
29.7852 18.8518 12.3934 -1.13219 -0.444333 -1.20207
14.4761 24.4256 11.7193 -0.899503 -0.0327431 0.925839
19.446 24.4933 11.2348 -1.24689 1.21135 0.892834
19.1749 25.6643 8.61758 0.0585233 0.59775 0.159603
16.8255 25.0449 10.1685 0.0590105 -0.479094 0.44303
18.4782 22.899 9.03713 -1.10018 -0.577248 -1.2272
21.5522 22.5945 11.7517 -0.656549 -0.0448112 -1.78981
21.281 23.7655 9.13445 1.63623 0.0840795 -0.877897
23.4667 24.5482 10.8428 1.42602 -1.19441 -2.1209
25.5729 22.6494 11.3596 0.275198 0.509638 -0.00162896
18.607 27.2377 10.965 -2.70545 -1.76981 -0.336209
16.2576 26.6183 12.5158 1.0446 -0.130041 0.143478
21.3606 26.447 10.3259 0.813502 -0.902119 1.70922
23.5463 27.2297 12.0343 -0.636318 0.0345303 0.465359
13.6131 10.0474 14.8834 -0.812043 -2.4973 2.87648
19.0365 10.3623 16.0471 1.52015 -0.234219 -0.355044
16.2336 9.49578 15.9497 -0.107694 1.2769 -0.232959
18.3398 7.59699 16.4666 1.21525 -0.141327 0.117818
18.0686 8.76794 13.8494 0.751199 0.698248 1.68103
20.8715 9.63446 13.9467 1.14102 0.542118 0.26642
14.3098 12.8127 14.4639 -1.05517 -1.02187 0.393566
11.9604 12.1933 16.0147 -0.923203 0.284646 -0.462169
11.6893 13.3643 13.3975 2.29037 -1.28709 0.950841
19.7332 13.1276 15.6275 1.88359 -1.19024 0.538038
19.462 14.2986 13.0103 -0.817902 -0.106636 1.16939
16.9303 12.2611 15.5302 -0.481746 0.939819 0.785302
16.6592 13.4321 12.913 -0.609482 0.732052 0.621934
18.7653 11.5333 13.4299 -0.283513 0.304648 -0.632779
15.9625 10.6667 13.3325 -2.17062 -0.382766 1.14895
22.536 13.9942 15.7248 0.924868 0.905279 -0.248833
21.8393 11.2288 16.1444 0.30177 1.4466 0.490842
21.5682 12.3998 13.5272 1.91517 1.85388 -0.694867
23.6743 10.501 14.044 -0.179554 -0.123323 3.1424
27.445 12.9619 16.339 -0.1539 0.911025 -0.695967
27.1739 14.1328 13.7218 -0.21659 0.115523 2.01764
24.6422 12.0954 16.2417 2.49352 0.318483 -0.075602
24.371 13.2663 13.6245 2.27625 -2.32706 -1.38012
26.4772 11.3675 14.1414 0.510906 0.419559 -0.734273
30.2479 13.8284 16.4363 0.97172 -2.41727 -2.95488
29.28 12.234 14.2387 0.546073 0.637234 -0.0841854
10.7333 18.2755 14.1093 -0.870096 0.779758 -1.20597
10.0366 15.5102 14.5288 -0.269857 0.727233 1.72455
8.38395 17.6561 15.6602 1.63961 -1.6356 -1.13447
15.0065 15.578 14.0443 -0.802365 -0.323775 0.784425
13.3538 17.7239 15.1756 -1.61613 0.668264 2.80851
12.6571 14.9586 15.5952 0.202903 -1.25259 0.0974167
12.386 16.1296 12.978 0.508014 1.4781 -0.0360244
18.3237 17.7917 14.6911 0.883233 0.507078 0.890396
17.627 15.0264 15.1106 1.17442 1.52685 0.955261
15.9744 17.1724 16.242 0.116988 2.71955 -0.371924
15.7032 18.3433 13.6248 0.139957 0.901406 0.690481
23.2327 16.7595 15.3053 0.735103 -0.125693 0.980871
22.9616 17.9304 12.6881 0.169933 -0.934562 0.695903
20.4299 15.8929 15.208 1.69936 -0.899807 0.729065
20.1587 17.0639 12.5908 -0.910759 -0.613393 -0.313907
22.2649 15.1651 13.1076 1.33022 0.34025 -0.883516
26.0356 17.626 15.4026 0.178015 -0.859488 -0.269573
28.1417 15.7272 15.9195 -0.312292 0.648938 0.13159
27.8706 16.8981 13.3023 -2.12296 0.234457 -0.533984
25.3389 14.8607 15.8221 0.083428 -2.12514 -0.340195
25.0677 16.0316 13.2049 0.872224 -1.51463 -0.825124
30.0563 17.6808 15.0106 0.878977 0.0281656 0.486626
29.9767 14.9993 13.8191 -0.161939 0.110435 -1.86733
32.1624 15.782 15.5275 1.18681 -1.3528 -0.00281607
31.8913 16.953 12.9102 0.158934 0.789583 2.11301
9.08065 20.4215 15.2406 0.162177 0.0123947 0.256492
14.0505 20.4893 14.7561 1.0337 1.59196 0.289321
13.0827 18.8949 12.5584 0.323458 0.576365 0.911375
11.7012 19.8699 16.307 -0.189751 0.373898 -2.20622
11.43 21.0408 13.6897 -0.191244 -0.627856 0.377972
19.0204 20.5571 14.2715 0.264608 0.789091 -1.07987
16.6711 19.9377 15.8224 -0.744894 -0.422657 -0.624532
16.3999 21.1086 13.2052 -1.41145 -1.29366 0.163836
21.8233 21.4236 14.3689 0.034249 0.904215 -0.849147
24.009 22.2063 16.0772 1.14524 -0.0723165 -0.0354785
23.9294 19.5248 14.8857 -1.00675 -1.19358 1.08534
21.1266 18.6583 14.7884 -0.947232 -0.308236 0.846669
25.844 21.4784 13.9769 -0.315353 0.271332 -0.495693
25.7644 18.7969 12.7854 0.791212 -0.541601 1.02225
28.0298 22.2611 15.6852 1.22486 -0.640964 -0.102508
27.9502 19.5796 14.4937 1.503 0.0190811 3.56035
30.1359 20.3623 16.2021 -0.129416 -1.10317 0.671532
29.8648 21.5333 13.5849 -3.16157 -1.21725 0.267229
32.0505 22.316 15.2932 0.105398 0.0884079 -0.82067
31.9709 19.6345 14.1017 0.570297 -0.0438439 -0.290976
9.77736 23.1868 14.8211 -1.71508 1.70592 0.393747
7.42798 22.5675 16.372 0.578971 1.60936 -0.26381
14.7473 23.2546 14.3365 0.282174 1.22438 0.47463
12.3979 22.6352 15.8874 1.56323 -1.60345 0.860578
12.1267 23.8062 13.2702 -0.189578 -0.69481 2.53572
13.9082 25.999 14.0667 -0.688512 -0.245182 0.755792
11.5588 25.3796 15.6176 -1.21816 0.639911 -1.35605
19.7172 23.3224 13.852 1.46678 0.530857 0.484673
17.3678 22.703 15.4029 1.07945 -0.140031 0.767705
17.0966 23.874 12.7857 0.954349 -0.698739 1.07523
19.1492 24.8958 16.1994 0.0841343 0.3376 1.19161
18.8781 26.0668 13.5822 -0.404396 -1.1907 -0.0682553
16.5287 25.4474 15.1331 0.304305 -0.166739 0.814769
21.9029 24.1051 15.5603 1.15154 -0.502631 -1.11364
21.6317 25.276 12.9431 0.869503 2.00941 -0.300863
23.8175 26.0587 14.6515 -0.903408 -0.438491 1.95781
23.7379 23.3772 13.46 -0.366925 0.208902 -0.0514738
25.9236 24.1599 15.1683 -2.10949 0.899888 0.555372
25.6525 25.3309 12.5511 0.207077 0.245573 0.705418
27.8382 26.1135 14.2595 0.40911 -0.0506628 1.30492
27.7586 23.4321 13.068 0.594817 -1.55894 0.600734
29.9443 24.2148 14.7763 0.3546 0.662445 -0.421078
13.3403 27.5724 16.4141 1.50984 -1.70006 1.34688
18.3101 27.6402 15.9296 -1.52488 0.938681 1.38002
18.039 28.8111 13.3124 -0.510581 1.45141 -0.58137
15.6896 28.1918 14.8632 0.571046 0.226515 0.177997
21.0638 26.8494 15.2905 -0.300791 -1.02474 0.791131
20.7927 28.0204 12.6733 -1.14481 -0.235236 2.08011
20.2247 29.5938 15.0207 -0.458617 0.675134 -1.49543
22.9784 28.8031 14.3816 -0.0240672 -0.868098 1.4392
26.0032 26.8414 16.3598 0.353543 -0.504556 -1.16015
25.7321 28.0123 13.7426 1.87186 1.09379 1.66511
25.1641 29.5858 16.09 0.429141 1.2236 -3.13468
27.9178 28.795 15.4509 0.178204 2.16804 -0.840574
30.0239 26.8962 15.9678 0.817573 1.2303 -0.865663
17.4711 30.3845 15.6597 -0.223927 -0.572677 0.296572
14.1554 7.70546 20.1178 1.97597 -0.925202 0.138758
13.8842 8.87641 17.5006 1.73465 0.66287 0.46307
19.3076 9.19136 18.6643 1.95657 -1.43086 -1.50846
16.5048 8.32483 18.5669 -1.73477 0.675252 -0.162437
18.6109 6.42604 19.0838 0.697065 0.058215 1.59906
22.1104 10.0579 18.7616 -0.544283 -2.98562 -0.386551
24.2166 8.15909 19.2784 -0.236488 0.691845 -1.71143
23.9454 9.33004 16.6612 -0.533786 2.30938 0.77195
21.4137 7.29255 19.1811 -0.895969 0.0801448 -1.12153
21.1426 8.46351 16.5639 1.89173 -1.04331 -1.71885
27.0194 9.0256 19.3758 -0.0827636 -0.470862 -0.268159
26.7483 10.1966 16.7586 1.0152 1.22822 1.07688
29.8223 9.89212 19.4731 1.04707 -0.782493 -0.562372
10.5789 13.1683 19.7632 -0.422537 -0.111298 -0.559337
10.3078 14.3392 17.146 -1.06612 -0.973159 -0.941954
14.8521 10.4708 19.6983 -1.0391 3.13782 -2.51349
14.5809 11.6417 17.0811 -0.135842 0.223453 -2.16166
12.9283 13.7877 18.2124 -0.422816 -2.02843 -2.3752
12.2316 11.0224 18.6319 -1.0386 -1.63036 2.0743
18.1693 12.6845 20.345 -1.28259 1.07565 -1.1949
17.8982 13.8555 17.7278 1.37593 0.127544 -0.0936663
17.2015 11.0902 18.1474 1.048 0.93443 -0.856281
15.5488 13.2361 19.2787 -1.50788 0.465689 1.93335
22.8072 12.8232 18.342 0.237619 0.612457 -0.136427
20.0043 11.9567 18.2447 1.19454 0.0926986 -1.82179
25.61 13.6897 18.4393 -0.981992 -1.89864 -0.280324
27.7161 11.7909 18.9562 -0.425762 -0.372713 0.528013
24.9133 10.9244 18.8589 0.524703 -0.255513 0.736297
30.519 12.6574 19.0535 0.0751702 0.950349 -1.52904
29.5511 11.0631 16.8559 0.876828 0.456887 -0.223455
11.0045 17.1046 16.7265 2.24075 -0.233688 -0.103834
8.65508 16.4852 18.2774 0.417992 1.62009 -0.682181
14.5928 18.1474 19.9905 -1.79206 0.370917 0.420515
15.2777 14.407 16.6615 1.25409 -0.458706 1.26611
13.625 16.553 17.7928 1.44234 -0.916649 -2.60011
11.2756 15.9336 19.3437 0.848783 0.713159 1.3037
19.5627 18.2152 19.5059 0.970351 -1.43451 -1.71466
18.866 15.4498 19.9255 0.00831503 0.775144 1.36345
18.5949 16.6208 17.3083 0.0434078 -0.265141 2.02984
16.2455 16.0014 18.8592 -2.61057 -0.537141 0.372564
24.2006 18.3538 17.5029 -0.0680629 2.30986 0.227575
21.6689 16.3164 20.0228 -1.00298 -0.801076 1.46518
21.3977 17.4873 17.4056 -0.722618 -0.576081 0.28428
23.5039 15.5885 17.9225 1.44214 -0.25536 0.428623
20.701 14.722 17.8252 1.53713 2.10625 1.14986
24.4717 17.1829 20.1201 1.07497 0.435799 0.924784
26.3067 16.455 18.0198 -1.05491 0.750582 -0.867906
28.4924 17.2377 19.7281 -0.459959 -0.967237 -0.0330809
28.4128 14.5562 18.5367 -0.741022 -0.541622 2.26997
30.5986 15.3389 20.245 0.942228 -2.87091 0.633454
30.3274 16.5099 17.6278 -0.759958 0.386491 2.03842
32.5132 17.2926 19.3361 -0.356592 -1.81752 -0.0645132
32.4336 14.6111 18.1447 1.71996 -0.510708 0.561977
10.3196 20.8449 20.0555 -0.945187 0.469949 0.359731
10.0485 22.0159 17.4383 0.109742 0.958684 -0.847342
7.69912 21.3965 18.9892 0.783475 0.477799 0.0441794
9.35179 19.2505 17.8578 -0.501767 -1.96515 -0.814366
7.00241 18.6311 19.4087 -0.0959238 0.0360693 -0.930811
6.73127 19.8021 16.7915 -2.46095 1.78228 -1.32767
15.2895 20.9127 19.5709 -1.78476 1.99057 0.322646
15.0184 22.0837 16.9537 0.617521 2.34409 -2.91175
12.669 21.4643 18.5046 2.19533 -1.22242 2.1739
14.3217 19.3183 17.3733 0.163304 0.784062 -0.910922
11.9723 18.6989 18.9242 0.433787 -0.794447 -0.556492
17.6389 21.5321 18.0201 -1.00464 1.02885 -0.968529
19.2916 19.3861 16.8887 -1.24769 -0.512891 -1.92312
16.9422 18.7667 18.4396 -0.542812 1.54891 -0.71495
20.2594 20.9805 19.0864 0.465954 0.537569 -1.03333
19.9883 22.1514 16.4692 1.09781 1.06761 0.340567
22.3656 19.0817 19.6033 -0.475804 0.342406 2.06518
22.0944 20.2526 16.9861 -0.270281 -0.786599 -0.235234
24.2802 21.0353 18.6944 0.740446 0.733504 1.1576
26.3863 19.1365 19.2113 -0.174519 -1.23896 -2.02505
26.1152 20.3075 16.5941 -0.662389 2.25443 -0.486307
28.3009 21.0902 18.3024 1.6032 1.68889 -1.53215
28.2213 18.4087 17.1109 0.256994 -0.221226 1.5482
30.4866 21.8728 20.0107 -1.06087 0.746791 0.052489
30.407 19.1914 18.8193 -1.62092 1.42552 1.72545
32.3216 21.145 17.9104 -0.957772 1.85404 -1.16726
32.242 18.4635 16.7189 1.96509 -0.327388 -1.48959
9.48056 23.5893 19.7857 -0.947673 0.358499 -0.153826
9.20943 24.7602 17.1685 2.12428 1.05213 1.28677
6.86005 24.1409 18.7193 -0.629555 1.17499 1.74428
8.6415 26.3337 19.5159 0.207753 -2.63668 -0.246821
14.4505 23.6571 19.3011 0.726309 2.07876 -0.606141
14.1793 24.828 16.6839 -0.891976 0.611022 -1.38219
11.8299 24.2087 18.2348 -1.72753 -0.503987 0.0863332
19.4204 23.7248 18.8166 -1.42455 -0.602415 -2.1489
17.071 23.1055 20.3675 0.258825 -0.548946 -0.205491
16.7998 24.2764 17.7503 0.26097 0.896325 1.24609
16.2319 25.8499 20.0976 1.06972 -0.407617 0.705395
22.174 22.9341 18.1775 -0.15015 0.264997 1.63242
21.335 25.6785 17.9077 0.0841144 -0.360904 -0.497396
24.0886 24.8878 17.2687 1.51328 1.01336 0.444344
24.3597 23.7168 19.8859 0.379826 0.750594 0.454679
26.2743 25.6704 18.977 0.341111 0.109061 -0.0116281
26.1947 22.989 17.7855 1.14329 0.853223 -0.303644
28.3805 23.7716 19.4939 0.727945 -0.716339 -0.941279
28.1093 24.9426 16.8767 -1.14811 1.00562 1.90867
30.2951 25.7253 18.585 -0.388284 0.647671 0.800999
30.2155 23.0438 17.3935 -1.47633 -2.287 -1.34382
32.4012 23.8265 19.1019 -0.567407 2.67098 0.409831
32.1301 24.9974 16.4847 -0.232608 -1.22807 -0.466218
10.9909 26.953 17.965 1.88116 -0.464956 -1.21143
10.4229 28.5264 20.3124 -1.17751 -0.269761 -0.220862
13.6114 26.4014 19.0313 -1.54623 0.369142 -1.22765
15.3928 28.5942 19.8278 0.643308 -0.0230401 1.73359
15.1217 29.7652 17.2106 -0.0361909 -0.368976 -0.6977
12.7723 29.1458 18.7615 0.916174 0.434541 -1.12288
18.5813 26.4692 18.5468 0.63743 -0.849482 0.958638
15.9608 27.0208 17.4804 0.649325 2.00139 -1.88649
17.7422 29.2136 18.2769 -0.424643 1.69107 -0.119708
20.767 27.2519 20.2551 0.187376 0.550145 -0.956366
20.4959 28.4229 17.6379 -0.399916 -2.26633 -0.885958
23.5207 26.4612 19.616 -0.395467 -2.51728 1.2363
23.2495 27.6321 16.9988 -0.144666 -0.48524 1.1748
19.928 29.9963 19.9853 0.816264 -1.20891 -0.886085
22.6816 29.2055 19.3462 -0.452576 -2.21994 -0.868263
25.4353 28.4148 18.7072 -0.432101 -2.23681 1.00863
28.1889 27.6241 18.0681 0.531768 -0.42166 1.38493
30.3747 28.4068 19.7765 -1.00959 -0.954642 0.469925
30.1035 29.5777 17.1593 -0.671277 -3.47502 -2.73376
32.4808 26.508 20.2933 -0.511021 -1.45267 -0.567962
32.2097 27.6789 17.6761 0.000173027 -0.755587 0.0492935
14.5538 31.3386 19.558 -0.520749 -0.6151 1.80169
16.9031 31.958 18.0071 -0.401401 -0.160883 -1.91231
19.6568 31.1672 17.3681 -1.16307 -1.82044 -1.29466
16.3352 33.5314 20.3545 0.817524 0.295031 0.214428
19.0889 32.7406 19.7155 -0.31955 -1.33728 -0.802786
22.4105 30.3765 16.729 1.83838 0.0548928 0.090592
21.8425 31.9499 19.0764 2.23644 -0.876878 -0.784322
24.5962 31.1592 18.4374 -0.52569 1.5928 -0.747237
27.3499 30.3685 17.7983 1.24697 -0.108487 -0.384634
26.7819 31.9419 20.1457 -0.165578 -1.03614 0.300108
29.5356 31.1511 19.5066 -0.711396 1.50392 0.773123
15.1232 9.29982 22.3155 0.470699 -1.26529 -1.19718
12.5027 9.8514 21.2491 -0.529578 0.0768376 0.77227
17.7437 8.74825 23.3818 -0.314773 -0.182109 -0.238266
17.4726 9.9192 20.7646 0.47921 -1.5182 -1.24173
19.5787 8.0204 21.2815 -0.709553 -0.776067 0.415023
16.7759 7.15388 21.1841 1.29977 -0.581484 -0.580799
20.5466 9.61477 23.4791 0.950238 0.484156 -1.09849
22.3816 8.88693 21.3788 1.05664 0.774902 -1.45113
25.1844 9.75345 21.4761 -0.662465 0.390264 -2.08917
10.85 11.9973 22.3805 -1.96142 0.669114 0.103231
9.19736 14.1433 23.5118 -0.468486 -0.348833 0.558792
14.1673 14.2111 23.0272 -0.349165 -1.15454 -0.526554
13.4705 11.4458 23.4468 0.0132294 -1.02433 1.45826
13.1994 12.6167 20.8296 -1.15969 0.253343 1.33189
19.1371 14.2789 22.5427 -1.35596 -0.756462 -0.688536
18.4404 11.5136 22.9622 -0.620058 -2.01307 -1.58332
16.7878 13.6595 24.0936 2.71081 -0.809956 1.32914
15.8199 12.0651 21.8959 1.08377 1.2325 -0.184516
24.0461 13.2466 23.1569 0.182761 1.65484 -0.451637
21.2433 12.3801 23.0596 -0.298545 0.577237 0.377456
20.9721 13.551 20.4424 0.67494 0.895812 -0.586682
23.3494 10.4813 23.5764 -0.371641 0.486107 -0.510727
23.0783 11.6522 20.9592 -0.181161 3.5289 -0.544238
20.2754 10.7857 20.8619 0.265869 2.33624 -1.89908
26.849 14.1131 23.2542 -0.414405 -0.52581 1.85583
26.1523 11.3478 23.6738 -1.06898 -1.25227 0.190492
25.8811 12.5188 21.0565 -0.328789 2.6025 -0.25281
27.9873 10.62 21.5734 -0.710704 1.27215 1.62768
28.9551 12.2143 23.7711 0.207995 0.176521 -1.00683
28.684 13.3853 21.1539 -1.66908 0.303583 -1.44711
30.8697 14.168 22.8622 -0.858963 -0.776077 0.340126
30.7901 11.4865 21.6707 0.454507 -0.181868 1.57023
32.7047 13.4401 20.7619 1.52316 -0.351552 0.623305
9.89407 16.9086 23.0922 -0.108576 -0.708567 0.229104
9.62293 18.0796 20.475 -0.150348 -1.35267 0.452794
8.92622 15.3142 20.8946 0.512956 0.0469537 1.24043
7.27354 17.4602 22.0259 -0.67036 -0.727159 -0.965806
14.864 16.9764 22.6077 -1.3671 1.7775 -0.187533
13.8961 15.382 20.41 0.0289928 0.833186 -0.0947175
12.5146 16.357 24.1586 0.858964 -0.888968 2.70436
12.2434 17.528 21.5414 -0.45867 -1.35913 -0.0935646
11.5467 14.7627 21.9609 -1.15697 1.39768 -0.573905
19.8339 17.0442 22.1232 -1.41061 -0.461095 -0.634593
17.4845 16.4248 23.674 0.581126 0.659344 -1.53841
17.2133 17.5958 21.0568 -0.923715 -1.25824 1.54311
16.5166 14.8305 21.4764 -1.29214 0.457359 -0.208329
22.6367 17.9107 22.2205 1.06834 1.62057 -1.79766
21.94 15.1454 22.64 -0.145464 -0.84019 0.200415
23.775 14.4176 20.5397 -0.709458 -2.17148 -0.25129
24.7428 16.0119 22.7373 -0.337726 -0.299351 0.296564
26.6574 17.9656 21.8285 -0.59137 0.588411 2.04965
26.5778 15.2841 20.637 -0.640871 -0.200969 0.689884
28.7636 16.0668 22.3453 0.817027 1.29205 1.34733
30.9493 16.8495 24.0537 -0.62513 0.651065 -0.206429
30.6782 18.0204 21.4365 1.35063 0.137374 -0.787927
32.7843 16.1216 21.9533 -1.0565 -0.437825 -1.71459
10.5908 19.674 22.6727 1.16028 0.535858 2.22637
8.24139 19.0546 24.2236 -0.300179 -0.101437 -0.504961
7.97025 20.2256 21.6064 0.507402 1.1234 -1.03069
7.40233 21.799 23.9538 -1.94164 1.04457 0.430439
13.2113 19.1224 23.739 1.28746 1.99732 -0.496633
12.9401 20.2933 21.1218 -0.0553292 -1.62462 -0.336002
12.3722 21.8668 23.4692 1.62374 0.388826 1.97655
18.1812 19.1902 23.2545 0.0760567 -0.137467 1.14633
17.91 20.3611 20.6373 0.425102 0.053647 -0.376349
15.5607 19.7417 22.1882 -1.63784 0.118862 -1.04896
17.3421 21.9345 22.9847 -0.864119 -0.120639 1.72047
20.8017 18.6386 24.3208 -0.199787 1.68585 -1.51792
20.5306 19.8095 21.7036 -1.66445 1.37864 0.418745
19.9626 21.3829 24.051 -0.637529 0.0624912 -0.189243
22.7163 20.5922 23.4119 1.1163 -0.349399 0.341101
22.4452 21.7632 20.7947 -1.18215 0.405297 0.511108
24.8224 18.6934 23.9288 0.984532 1.03479 -0.0958297
24.5513 19.8644 21.3116 0.0641149 -0.712744 1.40184
26.737 20.6471 23.0199 1.38303 0.157187 -1.1525
26.4659 21.818 20.4027 -1.47838 0.284556 -1.15236
28.572 19.9192 20.9196 -3.26205 -1.01262 0.450451
28.8432 18.7483 23.5368 2.35899 1.72212 1.30203
30.7578 20.7019 22.6279 0.696747 -1.09268 1.35411
32.8639 18.8031 23.1448 -2.10218 -1.18292 -0.310013
32.5928 19.974 20.5276 -2.71564 0.163911 -0.231091
9.7517 22.4183 22.4029 0.0147068 -1.77635 -1.04555
7.13119 22.9699 21.3366 1.71396 -0.796898 -1.45232
8.91264 25.1627 22.1331 -0.200017 -0.470514 1.75239
14.7216 22.4861 21.9183 0.761497 -1.16991 0.316893
12.1011 23.0377 20.852 1.17824 0.47674 0.760709
14.1537 24.0595 24.2657 0.0752134 0.16059 0.658596
13.8825 25.2305 21.6485 1.69458 1.61697 0.035171
11.5331 24.6111 23.1994 -0.464814 2.8236 0.603922
11.262 25.7821 20.5822 -1.70264 1.13788 1.34381
19.6915 22.5539 21.4338 0.993736 0.571151 1.1109
19.1236 24.1273 23.7812 0.808216 1.50729 -0.0794238
18.8524 25.2983 21.164 -0.258919 -0.38868 0.00685726
16.5031 24.6789 22.7148 -2.84444 0.675778 -1.69941
21.8772 23.3366 23.1421 -1.1674 -0.377738 -1.44449
21.6061 24.5075 20.5249 0.670041 -0.602632 2.3162
21.0382 26.081 22.8723 1.28254 0.0991299 1.77324
23.7918 25.2902 22.2332 -0.544391 -0.788251 -0.478803
24.6309 22.5458 22.5031 3.4974 -0.631712 0.444385
26.8166 23.3285 24.2114 0.814479 1.93188 0.656436
26.5455 24.4995 21.5942 -0.867406 -1.76399 0.241205
25.9775 26.0729 23.9416 0.830141 0.2436 -0.0987649
28.7312 25.2822 23.3025 -1.6422 0.488572 0.588174
28.6516 22.6007 22.1111 0.613021 0.021659 0.957066
30.8373 23.3834 23.8194 1.4664 -0.118753 -1.52004
30.5662 24.5543 21.2022 -1.20113 -0.636069 0.693052
32.7519 25.337 22.9105 -1.934 -1.54807 -1.1601
32.6723 22.6555 21.7191 1.16515 0.575381 -0.155999
10.6941 27.3555 22.9296 -0.981021 0.451243 0.208717
13.3146 26.8039 23.9959 0.176333 0.120509 0.468457
13.0435 27.9749 21.3787 1.85556 -0.434829 -0.959217
14.8249 30.1676 22.1752 -0.451863 0.996053 -1.55028
12.4755 29.5483 23.7261 1.10921 1.23681 0.345128
18.2845 26.8717 23.5114 0.502106 -1.05186 1.06433
18.0134 28.0426 20.8941 1.2536 -1.00276 -0.778031
15.664 27.4233 22.445 1.94848 -1.50545 -1.76144
17.4454 29.6161 23.2415 -0.169647 2.06023 1.16394
20.1991 28.8253 22.6025 -0.358376 2.41608 0.905479
22.9527 28.0346 21.9634 0.437772 -0.0346218 0.290902
22.3848 29.608 24.3108 -1.37278 0.971344 0.774054
25.7064 27.2439 21.3244 -1.46386 -0.462476 0.847889
28.4601 26.4531 20.6853 -0.60778 -1.11972 -0.795806
25.1385 28.8173 23.6718 0.715993 -0.0218362 0.090746
24.8673 29.9882 21.0546 -0.906509 0.0141438 -0.0358983
27.8921 28.0265 23.0327 -0.040862 1.2426 2.11333
27.621 29.1975 20.4155 -1.0216 1.91296 0.534464
30.6458 27.2358 22.3937 0.523661 -0.785436 0.160314
29.8067 29.9802 22.1238 1.74704 1.16217 -1.13609
12.2044 30.7192 21.1089 -0.910682 -0.215161 0.334203
13.9858 32.912 21.9054 0.432445 1.20279 -0.368728
17.1743 30.787 20.6243 0.984011 -1.89552 -1.3671
16.6064 32.3604 22.9717 -0.218145 2.38288 -1.22622
19.36 31.5697 22.3327 -0.665374 -2.08149 -0.866143
18.521 34.3141 22.0628 -1.01117 1.39815 0.840866
22.1137 30.779 21.6936 0.9351 -1.17322 -0.490406
21.5457 32.3524 24.041 0.832925 0.269686 1.48856
21.2746 33.5233 21.4238 -1.20929 -0.759364 0.514486
24.0283 32.7326 20.7847 0.750814 -0.638037 -0.681021
24.2994 31.5616 23.4019 0.0942696 0.432784 -0.485909
27.0531 30.7709 22.7629 -0.681776 -0.387032 1.53165
18.7116 10.3426 25.5795 0.389015 0.11652 0.0838204
14.4384 13.0401 25.6444 0.72942 0.328782 -0.14287
11.8179 13.5917 24.5781 -1.16636 -0.0436434 -1.68632
19.6794 11.937 27.7771 1.46417 2.1843 0.632968
19.4083 13.1079 25.1599 -0.12805 -0.926696 -1.97729
17.0589 12.4886 26.7108 0.449973 0.624705 -1.21619
16.0911 10.8942 24.5131 -0.0490823 -1.41484 -1.0182
22.4823 12.8035 27.8744 -0.447082 -0.0995851 2.90612
22.2111 13.9745 25.2572 -0.363614 2.07113 0.1637
21.5144 11.2091 25.6768 -1.71846 -1.05289 0.762914
25.2851 13.67 27.9717 -1.00884 0.0984405 1.38677
27.1201 12.9422 25.8714 0.968778 -1.13256 -0.0510945
24.3173 12.0757 25.7741 -0.686592 1.37909 0.548901
8.51253 17.8836 26.8408 0.0131028 -0.350814 -0.613454
10.1652 15.7376 25.7094 0.689632 -0.591551 -1.0392
7.54468 16.2892 24.6431 -0.951085 -0.577405 -0.859001
13.4824 17.9514 26.3562 -0.791269 0.446531 0.00962394
15.4062 14.6345 27.8421 0.0996015 0.234152 1.031
15.1351 15.8054 25.2249 2.15883 1.27032 0.156093
11.133 17.3321 27.9071 2.51728 -0.358006 0.361623
12.7857 15.1861 26.7758 0.993396 -1.72847 -0.483653
18.4523 18.0192 25.8717 0.730789 0.0567797 0.573312
16.1029 17.3998 27.4226 0.403811 0.625274 1.51808
17.7556 15.2539 26.2912 -0.0765973 -1.18605 -0.738859
21.0728 17.4676 26.938 1.7915 -0.672191 -0.310204
23.179 15.5688 27.4549 2.36486 -1.02436 -0.503046
22.9078 16.7398 24.8377 0.289657 -1.81563 0.22163
20.3761 14.7023 27.3576 -2.02615 -0.241295 -1.93669
20.105 15.8733 24.7404 -0.552798 0.484891 -1.91814
25.0936 17.5225 26.546 -0.865926 -2.04613 -0.253356
25.014 14.841 25.3545 -0.276729 -1.09923 0.870484
27.1997 15.6237 27.0629 0.634335 -0.777269 -0.592722
26.9286 16.7946 24.4457 -0.980861 0.978684 1.77932
29.1143 17.5773 26.154 -0.763071 -0.1755 1.57219
29.0347 14.8958 24.9625 -1.00682 -1.05547 -0.687547
10.8619 18.503 25.2899 0.89654 0.277081 -2.14022
10.294 20.0764 27.6373 0.289379 -0.779844 -0.134023
10.0228 21.2474 25.0201 -0.939248 0.247823 -1.86892
7.67347 20.628 26.571 -1.88083 -0.688371 0.456717
15.2639 20.1442 27.1527 0.0204017 1.74466 1.97992
14.9927 21.3152 24.5355 0.738411 -0.217348 0.308549
12.6434 20.6958 26.0864 4.38119 -0.945787 0.415865
15.8318 18.5708 24.8054 -0.185405 -0.528018 -0.670251
17.8844 19.5926 28.2191 0.164528 -1.24566 0.720034
17.6133 20.7636 25.6019 0.00931324 -0.131492 -0.388409
17.0453 22.337 27.9492 -0.882393 -1.23422 -1.16394
20.2338 20.212 26.6682 -0.82211 2.1373 -2.38362
22.9874 19.4213 26.0291 -1.76084 -1.10007 1.20359
22.1484 22.1656 25.7593 -0.409644 0.0269373 0.86464
25.1732 20.2039 27.7375 0.602409 -0.41883 1.771
24.902 21.3749 25.1203 0.869392 0.170128 0.980561
27.0877 22.1576 26.8286 0.330123 0.86161 0.700929
27.0082 19.4761 25.6371 0.0990052 0.423998 -0.643456
29.1939 20.2588 27.3455 1.12009 0.757312 0.310172
28.9228 21.4297 24.7283 -0.588746 0.715106 0.537001
31.1085 22.2124 26.4366 -2.74255 -0.156502 -1.663
31.0289 19.5309 25.2451 1.50527 0.590387 -0.295993
32.9435 21.4846 24.3363 0.309763 -1.04175 -2.645
9.45491 22.8208 27.3675 -0.649532 0.356225 0.605157
9.18378 23.9918 24.7503 -1.9178 -2.30525 1.58206
10.9652 26.1845 25.5468 2.24379 -1.52811 -0.521358
14.4248 22.8886 26.8829 -0.732152 0.0136965 0.273424
11.8043 23.4402 25.8166 1.08957 0.492379 0.304356
13.5857 25.633 26.6131 -0.892682 0.613294 1.14213
11.2364 25.0136 28.164 -0.245025 -0.746009 -0.102412
19.3947 22.9564 26.3984 -0.372484 -0.468635 -1.50209
16.7742 23.5079 25.332 1.67053 -0.926611 0.645204
18.5556 25.7007 26.1286 -1.10058 0.384607 -0.575162
16.2062 25.0814 27.6794 -0.18473 0.78982 1.10383
15.9351 26.2523 25.0622 1.41055 -0.57951 -1.00472
21.5804 23.739 28.1067 1.11855 2.44707 -0.631538
21.3093 24.91 25.4895 -1.48256 -0.0367711 -3.17393
24.0629 24.1193 24.8505 -0.475719 -2.4012 -2.44775
23.495 25.6927 27.1978 1.33544 0.693946 0.0154891
24.3341 22.9483 27.4677 0.382589 0.968912 0.225799
26.2487 24.902 26.5588 0.849706 -0.755229 -0.948561
29.0023 24.1112 25.9197 0.662949 1.13799 0.0749268
31.1881 24.8939 27.6281 -0.454847 0.419181 1.09682
30.9169 26.0649 25.0109 -2.43515 -2.88676 0.331786
33.0231 24.1661 25.5277 -0.821167 -0.760756 0.606078
15.3672 27.8257 27.4096 0.125184 0.648434 -2.69193
15.096 28.9967 24.7924 -2.16603 0.296893 1.92999
12.7467 28.3773 26.3433 1.04763 1.27576 1.41102
17.7166 28.4451 25.8587 -1.13318 -1.01704 -0.504294
17.1486 30.0185 28.2061 0.966103 -0.784848 -0.0219428
20.7414 26.4834 27.8369 -1.35517 2.59499 0.866309
20.4702 27.6544 25.2197 0.776172 0.349243 -1.83158
23.2239 26.8636 24.5806 0.602564 -2.17123 1.45601
19.9023 29.2278 27.5671 0.362496 1.06972 -0.746673
22.656 28.4371 26.928 0.16497 1.67619 -0.181361
25.4096 27.6463 26.289 2.47311 -1.5513 -1.81987
28.1633 26.8556 25.6499 0.473011 -0.144059 1.65276
27.5953 28.429 27.9973 -2.09348 0.175464 -0.458008
27.3242 29.6 25.3801 -0.688874 -0.702128 0.423049
30.349 27.6383 27.3582 -1.59622 0.92702 -0.0918872
30.0779 28.8092 24.741 -0.524409 -0.0750055 0.596282
14.5281 30.5701 27.1398 -2.70762 -0.477998 1.21491
14.257 31.7411 24.5226 -1.12294 -0.286691 -0.312051
16.8775 31.1895 25.5889 -0.898798 -2.12044 0.0965208
19.6312 30.3987 24.9499 -0.658253 0.153389 -1.72153
19.0632 31.9722 27.2973 0.117259 2.54604 -1.49268
18.7921 33.1431 24.68 -0.202895 -1.80561 -0.888638
21.8169 31.1814 26.6582 0.831467 0.551988 1.70011
24.5705 30.3907 26.0191 -0.656989 0.406981 -0.576792
18.0268 14.0829 28.9084 0.779663 -0.0936603 0.190585
20.6473 13.5313 29.9748 0.024068 -0.182015 -0.344936
13.7536 16.7805 28.9734 -0.54836 0.557963 0.889073
18.9946 15.6773 31.1061 -1.47322 -0.274197 0.500546
18.7235 16.8482 28.4889 0.768969 -0.16288 -0.124866
16.3741 16.2289 30.0398 0.506844 0.241974 1.74712
21.6151 15.1257 32.1724 1.00899 0.532608 1.00263
21.344 16.2967 29.5552 0.843083 0.282734 -0.0250552
20.776 17.8701 31.9026 1.98328 -0.238893 0.531363
23.5297 17.0793 31.2635 -2.24239 -0.297298 -0.310723
23.2586 18.2503 28.6463 -1.88796 0.454453 -0.208911
23.4501 14.3979 30.0721 1.61849 -0.580796 0.0594852
25.3647 16.3515 29.1632 -1.00776 0.256483 0.545434
27.2793 18.3051 28.2543 1.40472 -0.465152 -1.96406
12.9145 19.5248 28.7036 0.688329 -0.402621 -0.974821
14.6959 21.7176 29.5001 -0.995011 -1.35741 0.952673
12.0754 22.2692 28.4338 0.681398 -1.7744 0.149622
18.1555 18.4217 30.8363 1.67902 -0.423994 -0.370891
19.6658 21.7854 29.0156 1.17609 0.599501 1.22671
15.535 18.9733 29.7699 1.0269 0.438828 -1.07579
17.3165 21.166 30.5665 -0.222352 -1.28172 1.31499
20.5049 19.041 29.2854 0.813347 0.563379 -0.909762
19.937 20.6145 31.6328 0.180227 1.29442 0.699899
22.6906 19.8237 30.9937 0.563217 0.28396 -1.26408
22.4195 20.9947 28.3765 -0.383903 -0.599812 -1.39745
25.4443 19.033 30.3547 -0.298823 1.46691 1.11643
24.6052 21.7774 30.0849 2.9428 -0.642425 0.376636
27.3589 20.9866 29.4458 0.423956 0.316168 -0.715474
13.8569 24.462 29.2303 -1.28582 -0.0397403 -0.43267
19.0979 23.3588 31.363 -2.59586 0.609321 0.7589
18.8268 24.5298 28.7458 0.0168321 0.23607 -1.58969
16.4774 23.9104 30.2966 1.78343 -0.106425 -0.529257
18.2588 26.1032 31.0931 -0.0229649 -0.450916 -0.909704
21.8516 22.5681 30.7239 -1.67138 0.149709 -0.98837
21.0125 25.3125 30.4541 0.821972 0.815687 0.163858
23.7662 24.5217 29.815 0.855989 0.0590228 1.91608
26.5198 23.731 29.176 0.00945757 -2.55246 1.32088
28.4344 25.6846 28.2671 -0.183005 0.245992 -1.07371
29.2735 22.9403 28.5369 -1.23258 1.0631 1.71371
13.0178 27.2064 28.9605 -0.741937 2.35052 -1.10371
14.7993 29.3992 29.757 0.559495 0.892249 0.189045
17.9877 27.2742 28.4759 0.139947 1.31511 0.807886
15.6383 26.6548 30.0268 0.199878 0.5533 -0.867096
17.4198 28.8476 30.8233 -0.619423 0.107602 1.60217
20.1734 28.0568 30.1843 -0.435602 0.235441 -0.17863
22.9271 27.2661 29.5452 -0.716499 -2.44664 -1.6557
22.088 30.0105 29.2754 -1.16925 -0.62552 0.108467
25.6807 26.4754 28.9062 -0.0987188 -1.00477 0.757221
24.8417 29.2197 28.6364 0.71483 -0.156836 -1.2477