ITEM: TIMESTEP
0
ITEM: NUMBER OF ATOMS
586
ITEM: BOX BOUNDS ss ss ss
7.5412757484836765e+00 3.3248724251516300e+01
6.9082726932462402e+00 3.3881727306753760e+01
6.7450398174704391e+00 3.4044960182529557e+01
ITEM: ATOMS x y z vx vy vz
21.3948 11.8803 9.75903 4.38294 -0.972801 0.497852
23.1427 14.0317 10.5405 1.60756 0.374707 2.04824
20.9406 14.5414 8.75573 0.814644 0.194169 -0.111938
16.3949 17.571 10.5821 0.778342 0.303214 -1.77988
18.6678 16.0562 9.66892 0.595908 -2.21887 1.47518
20.4156 18.2076 10.4504 0.413089 -0.0693936 0.299884
22.6885 16.6928 9.53722 -1.4973 -0.498935 0.824444
20.4864 17.2025 7.75242 1.39054 -0.0117494 3.50905
13.6678 21.7469 10.492 -0.610008 0.649562 0.508789
15.9407 20.2321 9.57881 -0.78254 -0.243609 1.52338
18.2135 18.7173 8.66561 0.480601 -1.58711 0.570106
19.9614 20.8687 9.4471 -1.04252 -1.1132 -0.767066
17.7593 21.3784 7.66231 1.59391 -0.181203 -0.668162
20.0322 19.8636 6.74912 0.80138 0.877522 -0.277243
24.4363 18.8443 10.3187 -0.483616 -2.26026 0.974948
22.2342 19.3539 8.53391 1.59233 -0.686245 2.27705
23.9821 21.5054 9.3154 0.155992 0.129093 -1.11714
21.78 22.015 7.53061 1.18868 0.325461 -0.922137
13.2136 24.408 9.48869 -0.424004 0.60534 0.0892803
15.4864 22.8932 8.5755 -0.408254 2.55064 -0.294568
17.6885 22.3835 10.3603 2.32137 1.66689 1.243
17.2343 25.0446 9.35699 -1.07947 -1.93739 -0.332316
19.5072 23.5298 8.4438 -0.436892 0.439075 -0.562173
21.7092 23.0202 10.2286 0.763216 1.24717 1.2575
21.255 25.6813 9.22529 -0.264453 3.4947 -0.605918
23.5279 24.1665 8.3121 -0.402278 -0.190148 -0.960194
25.73 23.6568 10.0969 -1.73904 0.269097 -1.56763
14.9614 26.5594 10.2702 -2.25264 0.203822 -0.586503
18.9822 27.196 10.1385 -0.0321196 -2.15094 -0.40242
23.0029 27.8327 10.0068 0.136278 0.591312 -0.208358
25.2757 26.3179 9.09359 0.881115 0.454822 -1.16985
17.7576 9.58766 13.592 0.815366 0.504414 0.946107
19.5762 10.734 11.6755 0.647286 -0.831991 -0.626107
21.7783 10.2243 13.4603 -1.4867 -1.28169 0.2197
15.4847 11.1025 14.5052 -0.767251 -0.593452 0.323471
15.0305 13.7636 13.5019 -0.184171 -0.508482 1.22235
19.5054 11.7391 14.3735 -1.1637 -0.0918607 0.63532
17.3033 12.2488 12.5887 1.80497 1.07643 1.68556
19.0512 14.4002 13.3702 1.43477 -0.519636 -1.99774
19.122 13.3951 10.6722 2.52956 -0.388866 0.45487
23.5261 12.3757 14.2418 0.0641436 -1.72487 -0.577865
21.3241 12.8854 12.457 -0.985881 0.936841 1.73561
23.5969 11.3706 11.5438 -0.436134 -0.562547 1.79689
25.799 10.8609 13.3286 1.50995 -1.58444 0.928044
27.5469 13.0124 14.1101 -0.260818 -0.662887 2.59288
25.3448 13.5221 12.3253 -0.680625 -0.224772 0.620756
12.7576 15.2784 14.4151 0.175163 0.520919 -0.881668
12.3034 17.9395 13.4118 0.377074 0.0730267 0.12382
14.5763 16.4247 12.4986 0.448594 0.58281 -1.16578
16.7783 15.915 14.2834 -0.0816104 -0.87838 1.4765
16.8491 14.9099 11.5854 0.1088 0.19389 1.09169
18.597 17.0613 12.3669 2.14992 1.24296 0.206579
20.7991 16.5516 14.1517 0.111071 0.382427 -0.687421
23.0719 15.0368 13.2385 -0.614439 0.559529 1.9957
20.8698 15.5465 11.4537 0.89085 0.259143 -2.05711
22.6177 17.6979 12.2352 1.13655 0.530855 2.29908
24.8198 17.1883 14.02 -0.215637 -1.25483 -2.08908
27.0926 15.6735 13.1068 -1.11269 0.739688 -0.94721
28.8405 17.8249 13.8883 0.102162 -0.857373 -0.359136
24.8905 16.1832 11.322 1.14404 0.475564 0.822212
26.6384 18.3346 12.1035 -1.77965 -0.492179 0.137626
10.0305 19.4542 14.325 -1.72562 -1.10344 0.79168
9.57632 22.1153 13.3217 0.0702208 0.123917 0.775797
14.0513 20.0909 14.1933 -0.649994 -2.04353 -1.55349
11.8492 20.6006 12.4085 1.41351 -0.619978 -0.90405
14.122 19.0858 11.4953 -1.1221 -1.06132 -0.420234
15.8699 21.2372 12.2768 -0.176643 2.02878 1.2377
16.3241 18.5761 13.2801 2.69131 -0.838849 1.36921
18.072 20.7275 14.0616 -1.32952 0.441363 -0.178428
20.3448 19.2127 13.1484 -1.39391 1.76307 -0.14727
18.1428 19.7224 11.3636 -0.374196 2.38291 0.946843
19.8906 21.8738 12.1451 0.782366 -1.22899 -0.854888
22.0927 21.3642 13.9299 -1.83689 0.369488 0.450519
24.3655 19.8494 13.0167 -0.986873 0.477895 0.422271
22.1635 20.359 11.2319 -0.495259 -2.24168 -0.869472
26.1134 22.0008 13.7982 0.0499825 0.979557 -0.794991
28.3863 20.486 12.885 -1.28833 0.664621 -1.31494
26.1842 20.9957 11.1002 0.359559 1.21296 -3.17844
11.3242 24.2668 14.1032 1.6715 1.59319 0.14216
11.395 23.2617 11.4052 -1.6652 0.425636 0.580519
13.597 22.752 13.19 1.93339 -1.53293 -1.67098
15.3449 24.9034 13.9715 0.610238 -0.0376365 1.81368
13.1428 25.4131 12.1867 -0.64886 -1.16965 -0.813644
15.4157 23.8983 11.2735 0.57368 -0.0309123 0.918602
17.6178 23.3886 13.0583 0.958938 -1.91387 -1.30348
19.3656 25.5401 13.8398 -0.444455 -0.166351 -1.8589
17.1635 26.0497 12.055 0.670566 -0.755936 -0.989906
19.4364 24.5349 11.1418 -3.31749 -1.0548 0.381211
21.6385 24.0253 12.9266 -1.21493 -1.82755 -1.27368
23.9113 22.5105 12.0134 1.77757 0.0460098 0.0791106
23.4571 25.1716 11.0101 -0.531755 -0.999076 -0.133096
25.6592 24.6619 12.7949 0.0350255 -2.59753 1.24323
27.932 23.1471 11.8817 -1.2158 1.01619 1.60364
27.4778 25.8082 10.8784 -0.829055 -0.56313 2.13908
30.1341 22.6375 13.6665 -0.962046 -1.37104 0.943388
31.882 24.7889 14.448 -0.717231 0.0129677 0.253929
29.6799 25.2986 12.6632 0.661626 1.10402 -0.045317
14.8907 27.5645 12.9682 0.472611 -0.458669 1.35677
16.6385 29.716 13.7497 0.101028 2.14388 -0.878881
18.9114 28.2012 12.8365 -1.22345 0.978901 1.8497
16.7093 28.7108 11.0517 -0.124866 0.727434 -1.54274
23.3863 26.1767 13.7081 0.890357 0.0155541 1.87082
21.1842 26.6864 11.9233 1.52954 1.65954 -1.61155
22.9321 28.8378 12.7048 1.13318 -0.65727 -0.192198
20.73 29.3475 10.92 0.738613 -1.5275 -0.897566
25.1342 28.3281 14.4896 1.35176 0.6634 -0.0399412
27.407 26.8134 13.5764 0.857209 -0.787423 -1.03636
25.205 27.323 11.7916 0.167137 -0.240147 1.43789
18.3864 31.8674 14.5311 1.12132 0.703666 0.222881
18.4572 30.8623 11.8332 -1.12629 -1.29738 0.105201
20.6592 30.3526 13.618 0.315676 -0.0643929 1.23574
13.6661 9.95615 16.4217 2.40855 -1.07054 -0.469877
15.9389 8.44135 15.5085 -0.532163 0.453398 -1.86837
15.8682 9.44648 18.2065 0.756136 -1.79383 0.277757
17.6868 10.5928 16.29 -1.40798 -0.479606 -0.595112
19.9596 9.078 15.3768 -1.63202 0.109708 -0.976933
18.141 7.93169 17.2933 0.925021 0.441794 -0.989943
19.8889 10.0831 18.0748 0.293424 0.529786 -0.779147
23.9804 9.71464 15.2451 -0.849879 -0.128308 1.76023
22.1617 8.56833 17.1616 -0.171991 2.37842 -1.13884
23.9096 10.7198 17.9431 0.845605 0.303592 0.291513
28.0011 10.3513 15.1134 1.23564 0.577985 1.22366
26.1824 9.20497 17.0299 -0.629803 -2.47362 -1.65616
9.12036 12.9857 18.2481 -0.0113357 -0.469641 0.5692
11.3932 11.4709 17.3349 -2.16335 -0.356205 -0.267673
10.939 14.132 16.3316 0.998168 0.989911 -0.063279
13.1411 13.6224 18.1164 -1.82697 0.408464 -0.1761
15.4139 12.1076 17.2032 0.315399 -1.84883 0.244536
13.2119 12.6173 15.4184 1.05344 0.403641 0.947406
17.1618 14.259 17.9847 1.07602 1.60018 -1.78492
19.4346 12.7442 17.0715 0.954861 -1.44004 -1.68537
17.2326 13.2539 15.2867 -1.00989 -0.312671 0.875602
21.7075 11.2294 16.1583 -1.79697 1.99429 0.38439
23.4554 13.3809 16.9398 0.587187 2.36075 -2.86012
21.2533 13.8905 15.155 -2.10057 1.4345 -0.212533
25.7282 11.8661 16.0266 0.254988 -0.543653 -0.175891
27.4761 14.0175 16.8081 0.239099 0.914509 1.2654
25.274 14.5272 15.0233 -0.506419 0.542306 0.922822
27.9303 11.3564 17.8114 0.233599 1.662 -0.192118
29.7489 12.5027 15.8949 -0.330901 -0.477164 -1.51528
8.66614 15.6468 17.2448 0.65122 -0.476346 1.81337
10.414 17.7983 18.0263 0.900159 0.125535 1.01272
8.21191 18.3079 16.2415 1.69603 -0.965548 0.758169
10.4848 16.7931 15.3283 0.517187 -1.08697 1.16602
12.6869 16.2835 17.1131 0.0597527 -0.744607 1.42409
14.4347 18.4349 17.8946 0.718024 0.714532 1.16963
14.9597 14.7687 16.1999 -0.107581 2.29058 0.239989
14.5055 17.4298 15.1966 -0.43014 -2.2825 -0.821498
16.7076 16.9201 16.9814 -1.06427 -1.19979 1.08748
18.9804 15.4053 16.0682 -0.332477 -1.50046 0.372973
18.5262 18.0664 15.0649 0.47117 0.261906 -0.749547
21.1825 14.8957 17.853 -1.28113 -0.505508 -1.90406
20.7283 17.5568 16.8497 -0.0565346 -1.61985 -0.250416
23.0011 16.042 15.9365 0.818377 -0.118671 0.191826
25.2032 15.5323 17.7213 0.233819 1.25402 0.515897
24.749 18.1934 16.718 -0.0558839 -1.19807 -0.747818
27.0219 16.6786 15.8048 -0.767353 0.443824 0.0331704
29.2239 16.1689 17.5896 0.2644 -0.135568 0.823858
30.9718 18.3204 18.3711 0.986628 -0.085925 0.142358
31.4968 14.6541 16.6764 0.831721 1.51163 -0.102898
33.2446 16.8056 17.4579 -0.253406 -0.37132 -0.0268563
29.2947 15.1638 14.8916 1.07723 0.424651 -1.07413
31.0426 17.3153 15.6731 0.0527374 1.74338 1.97122
7.68691 21.9742 17.9362 0.760985 -1.19207 0.436228
9.95977 20.4594 17.023 -2.8368 0.649726 -1.59659
7.75769 20.969 15.2382 -0.689092 1.32135 0.566468
11.7784 21.6057 15.1065 -0.323793 0.539571 0.396002
12.2326 18.9446 16.1098 1.25062 -1.02492 -0.686504
13.9805 21.096 16.8913 -0.445594 1.68175 -0.0384426
15.7991 22.2423 14.9748 -1.33054 1.05802 -1.17532
18.4554 19.0716 17.7629 0.503936 -0.643401 0.805711
16.2533 19.5812 15.9781 -0.506872 0.671796 -1.44118
18.0012 21.7327 16.7596 2.99919 -0.689649 0.359356
20.2741 20.2179 15.8464 0.359308 0.820272 0.656565
22.4761 19.7082 17.6312 1.49273 2.16288 0.60826
24.224 21.8596 18.4127 -0.11746 -0.935048 -2.01214
22.5469 18.7031 14.9332 1.37701 0.128572 -1.20668
24.2948 20.8545 15.7147 -1.50232 0.268883 -1.21678
26.4968 20.3448 17.4995 0.583781 0.660197 -1.55757
28.7697 18.83 16.5863 1.29327 2.0075 -0.483303
26.5676 19.3397 14.8015 -0.721522 2.25138 -0.560638
28.3155 21.4911 15.583 -0.392533 0.281301 -0.580258
30.5176 20.9815 17.3678 -0.0675079 -1.60136 -0.332913
32.7904 19.4667 16.4546 0.752685 -0.205607 0.289684
30.5883 19.9764 14.6698 0.697303 -0.526553 0.922401
32.3362 22.1278 15.4513 -2.38818 1.34245 0.501901
11.7076 22.6108 17.8045 1.05918 -0.420682 0.797887
9.50554 23.1205 16.0197 0.162194 1.61004 -0.444268
11.2534 25.2719 16.8012 -0.748024 -2.2032 -0.254164
15.7283 23.2475 17.6728 -0.26292 -0.568966 0.367587
13.5263 23.7571 15.888 0.631621 0.87108 -0.578335
15.2741 25.9086 16.6695 1.47575 2.09442 1.14791
19.7491 23.8841 17.5411 0.421043 0.934573 0.198289
17.547 24.3938 15.7563 1.30985 0.122889 -0.0843663
19.8198 22.879 14.8431 -2.66594 -0.540153 0.392208
21.4969 26.0355 18.3225 -0.455265 -2.42247 -2.48539
22.0219 22.3693 16.6279 0.825611 1.90345 0.601839
23.7698 24.5207 17.4094 -0.874243 -1.77933 0.176388
21.5677 25.0304 15.6246 0.0434872 2.72936 -0.362487
23.8405 23.5156 14.7114 0.100366 0.795564 -0.891103
28.2447 22.4963 18.281 -0.939036 -1.24437 1.51359
26.0426 23.0059 16.4962 1.10121 0.850473 -0.378329
27.7905 25.1574 17.2776 -2.16947 0.910083 0.470419
25.5884 25.667 15.4929 0.952695 1.61637 0.298859
27.8613 24.1522 14.5797 -1.7928 1.73971 0.435815
32.2654 23.1329 18.1493 2.16503 -1.18622 2.16666
30.0633 23.6426 16.3645 0.179962 0.532543 -0.0964493
31.8112 25.794 17.1459 0.970435 -1.14678 -0.200188
13.0013 27.4233 17.5826 1.38546 -0.274202 0.415488
14.7491 29.5748 18.3641 0.660414 -0.131594 0.957479
13.072 26.4182 14.8847 -1.58722 0.358353 -1.13084
14.8199 28.5697 15.6662 1.45069 -1.69782 1.43335
17.022 28.06 17.4509 1.61993 -0.898578 0.716891
19.2948 26.5452 16.5378 1.09032 1.53509 0.954285
17.0927 27.0549 14.753 -0.0872692 -0.370613 -0.627747
18.8406 29.2063 15.5345 0.0291006 -0.490959 -0.890052
21.0427 28.6966 17.3192 -0.530088 2.57956 0.596931
23.3155 27.1818 16.4061 0.0484224 0.924231 0.689641
21.1135 27.6915 14.6213 0.865173 0.773893 0.151063
22.8613 29.8429 15.4028 -1.32992 2.56607 0.843252
25.5176 26.6722 18.1908 0.316194 0.106591 -0.0866708
25.0634 29.3333 17.1875 0.413918 0.481068 -2.57131
27.3363 27.8185 16.2744 1.27805 -0.130939 -0.28447
29.5383 27.3088 18.0591 0.128971 0.26874 0.610224
29.6091 26.3037 15.3612 0.713658 -0.407158 -0.98301
18.7698 30.2114 18.2324 -1.00812 -0.599228 -0.336277
16.5677 30.7211 16.4476 1.82741 -0.142658 -0.493027
18.3156 32.8725 17.2291 -0.158703 0.766499 1.12976
22.7905 30.8481 18.1007 -0.626104 0.505359 1.59689
20.5885 31.3577 16.3159 0.173972 1.28794 0.817236
15.7974 10.4516 20.9045 -0.829912 -0.807912 0.295581
18.0702 8.93681 19.9913 -0.205022 0.106557 -1.911
20.3431 7.42202 19.0781 0.511469 -0.262118 0.712795
20.2723 8.42714 21.7761 -0.918501 0.467014 0.339895
22.091 9.57345 19.8596 2.46218 0.324802 -0.109309
24.3638 8.05866 18.9464 -0.647851 -0.789966 -0.0764734
22.5452 6.91235 20.8629 -2.60821 -0.479134 1.31606
24.293 9.06379 21.6444 -1.04162 -0.274888 -0.221079
26.1117 10.2101 19.7279 -0.710459 -0.767148 0.386002
9.04958 13.9909 20.9461 1.09503 1.21893 -0.0881652
11.3224 12.4761 20.0329 -1.64962 0.679278 2.93111
13.5953 10.9613 19.1197 -0.262227 -0.103987 -0.346811
15.3432 13.1127 19.9012 0.52729 1.13375 -0.882755
13.5245 11.9664 21.8177 -1.03771 0.721744 0.0405431
17.616 11.5979 18.988 1.14625 0.485809 0.42225
19.3639 13.7493 19.7695 -0.426099 2.82989 0.711569
17.5452 12.603 21.686 0.953176 -2.88972 0.578663
19.8181 11.0882 20.7728 -1.66469 -0.631612 1.11314
21.6367 12.2346 18.8563 0.2007 0.637863 -2.61415
23.3846 14.386 19.6378 -2.10846 0.299282 1.99736
21.5659 13.2397 21.5543 -0.699838 1.26134 1.55646
23.8388 11.7249 20.6411 2.22688 -2.30769 -1.42402
25.6574 12.8712 18.7246 -0.339645 0.215363 -0.162317
25.5867 13.8763 21.4226 -1.23065 0.249031 1.16043
27.8595 12.3615 20.5094 1.93753 -1.40897 -1.54764
29.6782 13.5078 18.5929 -1.32213 0.970128 0.753024
29.6074 14.513 21.2909 1.4831 -0.199429 -0.404506
8.59536 16.652 19.9428 -1.39295 -0.322279 0.576992
10.8682 15.1372 19.0296 2.07143 -0.290801 0.591216
10.7974 16.1423 21.7276 -1.51455 0.465096 2.01939
12.6161 17.2886 19.8111 0.883502 0.524387 -0.86009
14.8889 15.7738 18.8979 -1.71789 -1.13305 1.22611
13.0703 14.6275 20.8144 0.271864 0.600328 1.02382
14.8182 16.7789 21.5959 1.04747 -1.73739 -0.394514
16.6368 17.9252 19.6794 1.14111 -0.369466 0.35342
18.9096 16.4105 18.7662 -0.486099 0.335009 2.06754
17.091 15.2641 20.6827 0.785319 0.501119 0.181838
18.8389 17.4156 21.4642 0.562789 1.64558 -0.136375
22.9304 17.0471 18.6345 0.213078 0.809371 -1.07107
21.1117 15.9008 20.551 -1.68191 1.15717 1.4412
22.8596 18.0522 21.3325 1.88372 -0.43265 -1.12419
23.3138 15.3911 22.3358 -0.432941 -0.370518 0.446599
26.9511 17.6837 18.5028 -0.965847 0.00989314 0.956852
25.1324 16.5374 20.4193 -0.412392 1.01136 -1.49301
27.4053 15.0226 19.5061 0.440388 1.06256 -0.740574
27.3345 16.0278 22.2041 1.06125 0.787258 -1.52243
29.1532 17.1741 20.2876 -0.598354 0.159206 -1.72563
31.426 15.6593 19.3744 0.967633 -1.16141 -0.521623
33.1739 17.8107 20.1559 2.25089 -0.852131 -0.825763
31.3552 16.6644 22.0724 -0.338536 0.352364 -0.692466
8.07036 20.3182 21.6374 -1.64791 1.35697 0.487323
10.3432 18.8034 20.7243 0.831115 -0.19802 -0.0586305
8.14113 19.3131 18.9395 -0.369995 -0.0159469 0.929212
9.88899 21.4645 19.7209 -1.14576 -0.407661 -1.39006
12.0911 20.9548 21.5057 0.774903 0.0345767 0.629285
14.3639 19.44 20.5926 -0.769926 2.11119 -2.34413
12.1618 19.9497 18.8078 3.51004 -0.663328 0.466333
13.9097 22.1011 19.5892 0.374545 0.731871 0.466391
16.1118 21.5915 21.374 -0.603386 0.0494108 -0.160069
18.3846 20.0767 20.4609 -1.17529 0.398147 0.513184
20.1325 22.2281 21.2423 -0.161364 0.270799 1.62422
16.1826 20.5863 18.6761 1.10477 -0.0783122 -0.0336368
20.2033 21.223 18.5444 -1.09832 -0.533831 0.356197
20.6575 18.5619 19.5477 -0.298618 -0.781007 -0.243018
22.4054 20.7133 20.3291 -0.0121328 0.922688 -0.867142
24.6782 19.1985 19.416 -1.19489 0.581181 0.504816
20.5867 19.567 22.2456 0.35788 -0.774292 -0.0515666
24.6074 20.2037 22.1139 -1.19846 -0.0382124 -0.390429
26.4261 21.35 20.1974 -1.18772 -0.531024 -1.23888
28.6989 19.8352 19.2843 1.75267 -0.435047 -0.400808
26.8803 18.6889 21.2008 -0.499309 -0.586785 1.8486
28.6282 20.8403 21.9822 -0.513308 0.105129 1.60411
30.4468 21.9866 20.0657 0.220201 -1.24373 0.67984
32.7196 20.4718 19.1526 0.262383 1.28478 0.637778
30.901 19.3255 21.0691 -0.623508 -2.06265 -0.88051
32.6489 21.4769 21.8505 -0.295732 -1.30551 -0.827392
7.61613 22.9793 20.6341 0.630891 -0.862389 1.05605
9.36399 25.1307 21.4156 -1.54937 0.938652 1.46718
11.6368 23.6159 20.5024 0.673581 -0.6196 2.36025
9.43477 24.1256 18.7176 0.707766 2.06942 -0.497006
13.8389 23.1063 22.2872 0.102162 -0.146716 1.19204
13.3847 25.7674 21.2839 0.0696438 -0.364935 -0.463478
15.6576 24.2526 20.3707 1.48992 1.00757 0.44582
13.4555 24.7622 18.5859 0.620762 2.00117 -1.80413
17.8596 23.7429 22.1555 1.00978 0.570998 1.12979
17.9304 22.7378 19.4575 -0.425371 0.215842 -0.059867
19.6783 24.8892 20.239 1.34947 -1.17447 -2.13945
17.4762 25.3989 18.4542 -1.60555 0.109456 -0.988764
21.8804 24.3795 22.0238 1.12225 -0.483853 -1.13197
24.1532 22.8648 21.1106 -0.720938 -0.0133554 -1.818
21.9511 23.3744 19.3258 -0.413306 -0.122717 2.85455
23.699 25.5259 20.1073 -0.347875 2.06086 0.101996
25.9011 25.0162 21.8921 1.55372 0.128477 -0.916362
28.1739 23.5014 20.9789 0.572966 0.240019 1.71815
25.9718 24.0111 19.1941 -1.36335 -0.751874 -0.733665
27.7197 26.1625 19.9756 -0.0171668 0.792619 1.30801
29.9218 25.6528 21.7604 0.451903 0.63625 1.47888
32.1946 24.138 20.8472 0.0469585 -0.116664 -0.438796
29.9926 24.6477 19.0624 -0.576181 1.57562 -0.754616
11.1118 27.2822 22.1971 -0.553143 1.46431 -0.504373
11.1826 26.277 19.4991 -0.928491 0.614688 -1.28326
15.1326 27.9188 22.0654 -0.333281 -1.0158 0.814764
12.9305 28.4285 20.2806 -0.743069 -0.228537 0.844404
15.2033 26.9137 19.3674 0.524452 0.239318 0.250038
17.4054 26.404 21.1522 -0.944707 -0.431276 1.94899
19.1533 28.5554 21.9337 -0.69566 0.0546734 0.446363
16.9512 29.0651 20.1489 -2.52071 0.576053 0.775275
19.2241 27.5503 19.2357 1.16624 2.41967 -0.642181
21.4261 27.0407 21.0205 -0.969906 0.0734988 1.30847
23.174 29.1921 21.802 -0.255853 -1.11118 0.781974
20.9719 29.7018 20.0172 -1.4528 -0.051124 -3.19471
23.2448 28.187 19.104 -0.541969 -0.796631 -0.526757
25.4468 27.6773 20.8888 -0.147767 -0.837401 0.128474
27.1947 29.8287 21.6703 -1.02328 -0.785343 1.38295
27.2655 28.8236 18.9723 0.310592 -0.494056 -1.24538
29.4676 28.3139 20.7571 -0.00010892 -0.23468 1.96414
31.7404 26.7991 19.8439 -0.79629 -0.382925 -0.674437
14.6783 30.5799 21.0621 -0.155308 -1.31109 1.34793
16.4262 32.7313 21.8436 -0.833358 -1.25065 -1.14114
18.699 31.2165 20.9304 0.0738432 0.215762 -1.58346
16.497 31.7262 19.1456 0.0772327 -0.927486 0.662286
18.2448 33.8776 19.9271 -1.33873 -1.26894 -0.532025
20.4469 33.368 21.7119 -1.06156 0.37724 -0.579208
22.7198 31.8532 20.7987 1.29417 0.097718 1.74203
20.5177 32.3629 19.0139 -2.31057 -2.01787 1.1523
24.9926 30.3384 19.8855 -0.411083 -2.51264 1.17804
17.9995 9.94194 22.6893 -0.603872 1.20768 1.90539
20.2015 9.43227 24.4741 -2.04056 -1.2015 -0.379339
22.0202 10.5786 22.5576 -1.13302 -0.241017 -0.0999026
22.4744 7.91748 23.5609 1.97292 -0.325659 -1.56343
24.2223 10.0689 24.3424 0.560145 -0.0291796 -0.375093
11.2517 13.4812 22.7309 -0.654032 -3.49306 -2.71301
11.1809 14.4863 25.4288 -0.139243 0.241414 -2.06982
15.2724 14.1178 22.5992 -1.47119 -2.29899 -1.36595
13.4537 12.9715 24.5156 0.478207 1.51292 0.0767627
15.7266 11.4567 23.6025 -0.059482 -0.695012 0.35513
17.4745 13.6082 24.3839 -0.119287 -1.32614 0.568576
19.7473 12.0934 23.4708 -0.55765 0.365827 0.726671
17.9287 10.9471 25.3872 -0.455364 -1.4644 -0.604691
19.6765 13.0985 26.1687 0.0377776 -0.754392 0.00230494
21.4952 14.2448 24.2522 -1.8439 -2.2826 1.6933
23.768 12.73 23.3391 -0.631262 2.35605 -1.02236
21.9494 11.5837 25.2555 -2.67203 0.158224 -0.310657
23.6973 13.7351 26.037 -0.932265 1.86123 -1.25703
26.0409 11.2152 22.4259 0.495667 1.22748 -0.28799
27.7887 13.3667 23.2074 0.787557 -0.221387 -0.966378
25.9701 12.2203 25.1238 1.55447 -0.351119 0.500884
27.718 14.3718 25.9053 1.73323 -0.497323 0.429322
8.52458 17.6571 22.6407 -0.295106 -0.199589 -0.173181
8.97881 14.996 23.6441 0.554463 -0.183465 1.68974
10.7267 17.1474 24.4255 0.0225758 1.21609 2.14006
12.5453 18.2937 22.509 1.22928 -0.446317 1.34193
12.9995 15.6326 23.5124 -2.66525 -0.196559 -1.68589
14.7474 17.7841 24.2938 1.52551 -0.145865 -1.55318
12.9287 16.6378 26.2103 -1.07657 -0.990912 0.475069
15.2016 15.123 25.2971 -1.10888 -0.0340801 -1.59149
17.0202 16.2693 23.3806 0.341637 0.663293 -0.453477
18.7681 18.4207 24.1621 -0.578082 0.630024 -0.282441
19.2931 14.7545 22.4675 -0.766978 0.380504 1.97334
16.9495 17.2744 26.0786 -1.11753 1.42013 -0.489352
19.2223 15.7596 25.1654 -0.488726 -1.92565 -0.708772
21.0409 16.9059 23.2489 0.853861 0.0351383 0.41137
20.9702 17.911 25.9469 0.157159 0.0647606 0.35181
23.243 16.3962 25.0337 -0.14422 -0.434988 1.85339
25.0617 17.5425 23.1172 -0.179123 0.926117 -0.78757
25.5159 14.8814 24.1205 1.14021 1.29428 1.48204
27.2637 17.0329 24.902 1.18374 1.26827 0.405956
29.0824 18.1792 22.9855 -0.55765 -2.96017 -0.468126
29.5366 15.5181 23.9888 0.222155 2.55716 -1.48565
31.2845 17.6695 24.7703 -0.116021 -1.78137 -0.891864
7.99958 21.3233 24.3354 0.272181 2.32451 -1.85537
10.2724 19.8085 23.4222 0.480813 -1.52268 -1.18684
8.4538 18.6622 25.3387 0.0104994 -1.04479 0.805735
10.2017 20.8136 26.1202 2.5642 -1.57835 -1.7815
12.0203 21.96 24.2037 1.03155 0.942799 -0.811643
14.2932 20.4452 23.2905 -0.845128 -0.298446 0.850032
12.4745 19.2989 25.207 -0.976155 1.89937 0.551017
14.2224 21.4503 25.9885 1.27429 -0.109055 -0.378282
16.566 18.9304 22.3773 0.895014 -0.884971 2.78314
18.3139 21.0818 23.1588 -0.440603 -1.34217 -0.0249112
16.4952 19.9355 25.0753 -1.15996 -0.650215 0.649593
18.2431 22.0869 25.8568 -0.365178 0.646422 0.747301
22.3346 21.7184 23.0271 -0.888734 0.266282 -1.79663
20.5159 20.5721 24.9436 1.37957 0.129298 -0.874152
22.7888 19.0573 24.0304 -1.17527 -0.424396 -1.2875
24.5367 21.2088 24.8119 0.471347 -0.183831 1.4411
26.8095 19.694 23.8987 -0.259845 0.143591 1.9157
28.5574 21.8454 24.6802 -0.395157 -1.90176 -0.06151
24.9909 18.5477 25.8152 0.245502 -2.58813 -0.155981
30.8302 20.3306 23.767 0.270337 1.48482 0.398998
33.1031 18.8158 22.8538 0.92781 -0.228292 -0.158664
29.0116 19.1843 25.6835 -0.8541 -0.170695 0.384796
33.0323 19.821 25.5518 -0.942296 1.43521 0.827338
7.54535 23.9844 23.3321 1.10208 0.484035 1.0428
9.29321 26.1359 24.1136 0.918151 0.247117 0.0049235
9.81821 22.4696 22.4189 0.464376 0.528881 -0.974935
11.5661 24.6211 23.2004 1.07817 1.07185 0.388678
9.74744 23.4747 25.1169 1.18278 0.093999 -1.78832
11.4953 25.6262 25.8984 1.85377 -1.17594 0.561179
15.5868 25.2577 23.0687 0.433161 0.0573364 -0.340811
13.7681 24.1114 24.9852 -0.516173 0.961134 0.819641
16.041 22.5966 24.072 1.14984 -0.884541 -1.30544
19.6075 25.8943 22.937 -1.42645 -0.589577 -2.14012
17.7889 24.748 24.8535 0.774263 0.334066 -0.110818
20.0617 23.2332 23.9403 0.433787 -0.764561 -0.498057
21.8096 25.3847 24.7218 -0.207761 0.416685 -2.15796
24.0824 23.8699 23.8086 0.0471506 -1.74486 -0.983527
22.2638 22.7236 25.7251 -1.6099 1.43035 1.6289
25.8303 26.0213 24.5901 -0.933225 0.402846 -0.102076
26.3553 22.3551 22.8954 -0.82338 0.627743 1.17408
28.1031 24.5065 23.6769 0.22756 0.147923 0.490193
26.2845 23.3602 25.5934 0.0739903 0.961289 -1.6683
30.376 22.9917 22.7637 1.05412 -0.774341 -0.0301782
32.1239 25.1432 23.5452 -0.82874 -2.09693 0.0780452
30.3052 23.9969 25.4617 -0.651775 0.411431 -2.21836
32.5781 22.4821 24.5485 1.86564 1.90504 -0.7969
11.0411 28.2873 24.8951 1.84849 -0.694825 -0.29045
13.3139 26.7725 23.9819 1.42909 0.548061 0.522543
15.0618 28.9239 24.7634 -1.3025 1.24147 0.920452
12.8597 29.4336 22.9786 0.643861 0.245319 -1.26385
15.516 26.2628 25.7667 -0.661937 0.766322 0.646043
17.3346 27.4091 23.8502 -1.01456 1.04545 -0.943203
19.0825 29.5606 24.6317 1.05141 -0.110441 0.782729
19.5367 26.8995 25.635 -0.322314 -1.13625 -0.504723
21.3554 28.0458 23.7185 0.0641495 0.363348 1.19002
23.6282 26.531 22.8053 0.822183 2.04104 -0.329462
23.5574 27.5361 25.5033 -0.227288 -0.572084 0.4159
25.3761 28.6824 23.5868 0.748151 -0.857434 1.67031
27.6489 27.1676 22.6736 0.0874723 -0.188034 -0.421936
27.5781 28.1727 25.3716 2.12058 1.1094 1.32823
29.3968 29.3191 23.4551 -1.9807 -0.234366 -2.02386
31.6696 27.8043 22.5419 -0.155324 -0.504052 -0.719605
29.851 26.658 24.4584 1.88869 -0.394447 -0.947661
12.7889 30.4387 25.6766 -0.160745 1.67608 -1.50835
14.6076 31.585 23.7601 -0.321255 -0.625474 -1.40745
16.8096 31.0754 25.5449 -0.0151728 0.640843 0.177014
16.8804 30.0702 22.8469 -1.1953 -0.21338 2.09346
18.6283 32.2217 23.6284 -0.226098 1.43712 1.05302
20.8304 31.712 25.4132 0.908287 -0.656183 1.08001
23.1032 30.1972 24.5 -0.442396 -1.15194 -0.0800286
20.9011 30.7069 22.7152 -0.951695 0.231785 0.466825
22.649 32.8583 23.4967 -0.827901 -2.0578 -0.34217
24.8511 32.3486 25.2815 -2.76139 -1.71809 -0.358208
27.1239 30.8339 24.3683 1.68697 -0.588602 -0.044309
24.9218 31.3435 22.5835 -0.334882 -0.298385 0.19784
20.1308 10.4374 27.172 0.272449 2.63859 -0.437109
22.4036 8.9226 26.2589 2.00388 -0.892056 0.175789
22.3328 9.92772 28.9568 -0.596064 -0.679292 -0.850166
13.383 13.9766 27.2136 0.18843 0.424344 -0.427262
15.6558 12.4619 26.3004 -1.48038 0.898212 -0.100206
15.585 13.467 28.9984 1.02825 1.24221 1.04695
17.4037 14.6133 27.0819 -0.426648 -0.0908286 0.577701
17.8579 11.9522 28.0852 -0.189631 -0.0945368 3.12894
19.6058 14.1036 28.8667 0.205658 1.23469 -1.13457
20.06 11.4425 29.87 0.576643 0.0931734 1.34563
21.8786 12.5888 27.9535 0.717269 0.0895519 1.59037
24.1515 11.074 27.0403 1.74453 0.708901 0.489852
24.0807 12.0792 29.7383 -0.0396829 0.0968534 -0.825408
25.8993 13.2255 27.8218 -0.820094 -2.43821 2.89294
8.90803 16.0011 26.342 1.32269 -0.580404 -0.510056
10.6559 18.1525 27.1235 -1.72976 0.689229 -0.101945
11.1101 15.4914 28.1268 -1.02927 -0.647511 0.188826
12.858 17.6429 28.9083 0.953344 0.542898 1.77017
15.1308 16.1281 27.9951 0.826916 -0.633489 -0.632602
13.3122 14.9818 29.9116 1.0833 -0.783178 -0.608776
16.8787 18.2795 28.7766 -1.96792 0.158986 -0.465049
19.1515 16.7647 27.8634 1.82668 1.15925 -1.16484
17.3329 15.6184 29.7799 0.505942 0.446522 -0.774363
21.4244 15.2499 26.9502 0.388855 -1.05479 -2.73016
23.1722 17.4014 27.7317 1.22618 0.575228 -0.251485
21.3536 16.2551 29.6482 -0.870564 0.109679 -1.1569
23.6265 14.7403 28.735 1.2174 -0.0970364 0.0989429
25.4451 15.8866 26.8185 0.112831 0.108617 -0.920684
27.193 18.038 27.6 -1.00753 -0.431839 -1.85284
25.3743 16.8917 29.5165 0.735334 0.755453 1.65186
27.6472 15.3769 28.6033 -3.37703 0.21167 -1.19109
29.4658 16.5232 26.6868 1.18207 -1.32644 -0.145685
29.395 17.5283 29.3848 -0.486922 0.131111 0.765886
12.4037 20.304 27.905 -0.120781 1.3038 -0.182699
14.6766 18.7892 26.9918 -0.402608 -0.0793673 -0.906435
14.6058 19.7943 29.6898 0.936768 0.273554 1.5484
16.4245 20.9406 27.7733 0.0609811 -1.00575 1.51147
18.6973 19.4258 26.8601 0.870121 0.748586 1.37794
18.6265 20.431 29.5581 -0.581395 -0.705626 0.405739
20.4452 21.5773 27.6416 2.244 -0.185279 -0.03977
22.718 20.0625 26.7284 -1.79559 -0.659009 0.548118
24.4659 22.2139 27.5099 -1.87444 1.08681 0.511605
20.8994 18.9162 28.6449 -0.649694 1.51393 0.734064
22.6472 21.0676 29.4264 -0.724465 -0.768254 0.50488
26.7387 20.6991 26.5967 -0.141061 -0.720641 -0.0512153
24.9201 19.5528 28.5132 -0.524348 2.68369 0.304088
26.668 21.7042 29.2947 -0.207596 -1.20226 -0.582163
28.9408 20.1894 28.3815 -0.325675 -1.79853 -0.213061
30.7595 21.3358 26.465 0.682218 0.913559 0.200005
31.2137 18.6747 27.4683 0.136198 0.828811 1.95983
11.9495 22.9651 26.9017 0.789113 -0.0359997 0.118815
13.6974 25.1165 27.6832 -0.85136 0.012925 -0.0180602
15.9702 23.6017 26.77 -0.359632 0.38995 1.04233
14.1516 22.4554 28.6865 -2.20166 -0.342856 1.18892
15.8995 24.6068 29.468 0.336746 0.633683 0.879698
17.7181 25.7532 27.5515 -2.35789 -2.90292 0.267089
19.9909 24.2384 26.6383 0.822599 1.24198 -0.929534
18.1723 23.0921 28.5548 -1.12993 0.284821 1.37487
19.9202 25.2435 29.3363 -0.411114 -1.98392 -2.34232
24.0117 24.875 26.5066 -0.136488 -1.08531 0.56478
22.193 23.7287 28.4231 -0.884759 0.841075 -1.1521
23.9409 25.8801 29.2046 0.762134 -0.555503 -1.00336
28.0324 25.5116 26.3749 0.952472 -2.39326 -3.10431
26.2137 24.3653 28.2914 1.763 -0.74164 -1.38132
28.4866 22.8505 27.3782 2.32962 -1.48977 -0.480381
13.2431 27.7776 26.6799 -0.865649 -0.079436 1.18227
14.991 29.9291 27.4614 -1.23432 0.276993 0.337396
15.4452 27.2679 28.4647 -0.488589 1.60447 -0.739607
17.2639 28.4143 26.5482 0.0460918 -0.402375 0.408952
17.1931 29.4194 29.2462 -0.0780891 0.229069 -1.12686
19.4659 27.9046 28.333 0.582771 -0.788728 0.0853873
21.2846 29.0509 26.4165 0.0377956 0.864342 -0.0831382
21.7388 26.3898 27.4198 1.57025 0.580196 -0.40349
23.4867 28.5412 28.2013 0.743718 -1.08986 1.23631
21.668 27.3949 30.1178 0.196547 -1.19516 0.11997
25.3053 29.6875 26.2848 0.0753611 -0.32026 -0.57667
25.7595 27.0264 27.2881 -3.18656 -1.18643 0.150256
19.0117 30.5657 27.3297 -0.0138949 -1.40051 -1.02761
23.0324 31.2023 27.198 1.43305 -0.872479 -2.59867
21.2138 30.056 29.1145 -0.968451 -0.944981 0.384751
15.5143 14.4721 31.6964 -0.995984 -1.58732 2.15874
17.7871 12.9573 30.7832 -0.369379 -0.0666906 -0.464436
21.8078 13.594 30.6515 0.463649 1.6792 -0.587149
25.8286 14.2306 30.5198 -2.42266 1.85595 -1.23249
15.06 17.1332 30.6931 0.895024 0.4691 -0.280108
19.0808 17.7698 30.5614 0.375031 2.539 -1.20702
17.2621 16.6235 32.4779 -0.898623 0.340567 -0.387869
19.535 15.1087 31.5647 -1.03097 -0.915572 -0.857274
23.1015 18.4065 30.4297 1.899 -1.00078 -1.76443
21.2828 17.2602 32.3462 -0.252772 0.797701 1.7989
23.5557 15.7454 31.433 1.66719 -1.56342 -1.04966
25.3036 17.8968 32.2145 -0.854657 -0.522942 -0.786882
27.5764 16.382 31.3013 -0.0400804 -0.673995 -1.47877
16.3537 21.9457 30.4713 -1.1234 -0.742511 0.564123
16.8079 19.2846 31.4746 0.546248 0.662387 -0.151079
18.5558 21.4361 32.2561 -0.559329 -1.10875 -1.3908
19.01 18.775 33.2594 2.29679 -1.21816 1.01485
20.8286 19.9213 31.3429 -0.205969 0.719553 -1.77356
22.5765 22.0727 32.1244 -0.521289 2.34998 0.699492
20.7578 20.9264 34.0409 -1.88608 0.720293 0.15459
23.0307 19.4116 33.1277 -0.382641 -0.295997 0.620495
24.8493 20.5579 31.2112 1.13028 0.597527 0.210525
27.1222 19.0431 30.298 -0.711734 1.13066 -2.12934
18.1015 24.0972 31.2528 0.849999 -0.161 -1.25345
20.3744 22.5824 30.3396 -0.592331 -0.377596 1.50406
20.3036 23.5875 33.0376 -0.0471107 -0.444911 -0.357119
22.1222 24.7338 31.1211 -0.0941863 -1.01373 0.262331
24.3951 23.219 30.2079 -1.85528 -1.54259 -1.27147
17.6473 26.7583 30.2495 0.508748 -1.23772 -1.18537