ITEM: TIMESTEP
0
ITEM: NUMBER OF ATOMS
58
ITEM: BOX BOUNDS ss ss ss
1.5634411680288299e+01 2.5213583604205439e+01
1.4924797835804112e+01 2.5724829505437082e+01
1.5600859198895915e+01 2.5437748850716169e+01
ITEM: ATOMS x y z vx vy vz
16.7531 17.2476 19.3729 1.76187 -0.60004 -0.0413886
19.4021 18.7758 18.9393 -0.223887 0.722488 0.362391
18.691 19.6782 16.0006 -0.390013 -0.312245 0.775975
17.5803 17.2755 16.709 1.81193 -0.0907556 0.817801
20.3788 17.5347 16.5146 -0.624235 0.359902 1.81641
15.6385 19.5886 20.4148 2.58787 -0.969187 -0.108013
16.4358 19.5196 17.7935 0.100138 -1.77286 0.624656
19.1167 15.9207 18.53 -0.280271 -0.165492 -0.314906
21.8725 16.1583 18.4444 -1.65248 0.360183 0.424991
21.3668 20.0912 15.6049 0.83691 -0.487798 -1.15871
22.9659 18.2539 17.017 -0.134862 0.798975 -1.29456
24.7858 19.6501 18.7278 -1.46818 0.390846 0.350725
22.0436 18.7167 20.1534 -1.39959 -0.737087 -1.35673
24.4584 16.9485 18.9469 0.336988 0.0163327 1.63838
16.9232 21.7561 16.2962 -2.05161 1.75245 0.910301
19.6241 22.2816 15.9673 0.253489 0.716294 -0.856003
18.7912 21.4685 19.0325 -1.57569 -0.266959 0.847248
17.9447 23.865 17.668 0.072112 -0.00149193 1.71787
17.3201 24.1235 20.3293 0.649772 0.154053 0.119943
16.0411 22.0271 18.9439 1.14616 1.96299 -1.45364
19.3432 25.6733 19.264 1.22838 -1.5355 -1.46087
24.0699 20.6339 16.2616 0.884375 0.430481 0.937029
22.3293 22.7045 16.4109 0.712204 -0.227046 -0.0567012
20.9249 23.2551 19.3286 1.20185 -0.190579 1.07273
21.4586 20.6896 18.326 -0.80757 0.00704335 -0.128013
20.5154 24.7357 16.9412 -0.532135 -1.22933 0.24133
21.8484 25.7208 20.4718 -2.74081 -2.04485 -0.11266
24.3481 22.3406 18.4259 -0.839198 -0.228499 -2.04712
23.0432 24.7683 18.153 1.74501 -0.002992 -0.86169
18.3123 19.9145 21.4015 1.59938 0.602498 0.82868
17.9874 18.8767 24.4105 -0.886578 1.04859 -0.755158
18.0109 15.42 21.0656 0.75423 0.617687 -0.846133
16.7044 17.5943 22.1436 -0.855302 2.37188 -2.27142
18.5936 16.26 23.6815 1.28079 -0.486436 0.48849
15.6906 19.8619 23.2458 2.02491 -0.595709 0.505263
19.8395 17.5725 21.4487 -1.59698 -0.584306 -0.610805
20.987 19.8449 22.6206 -1.29053 1.17285 1.07232
23.147 17.7246 23.4528 0.93401 -0.268048 0.473321
22.581 19.5957 25.4337 0.407302 0.0252319 1.27109
20.6727 14.9289 20.6107 0.627423 2.12036 -0.394301
20.5531 17.9236 24.7428 1.01656 -1.18541 1.91791
24.1371 20.2848 23.2701 -0.316169 0.00977032 2.0838
24.6913 18.5245 21.2602 -0.356557 -1.17119 -0.523415
21.2603 15.7231 23.2062 -0.601649 0.304449 -2.19016
23.0598 16.1881 21.1475 0.333984 0.437391 1.47487
19.7482 22.2473 21.6536 0.00153147 1.7462 -1.40684
19.5865 25.1119 21.9566 1.52662 1.09464 0.750331
16.1165 22.0468 21.6778 1.16315 -0.62694 1.73991
19.8261 23.376 24.2234 -1.54837 0.291267 0.0320949
19.9847 20.6916 25.1675 -1.49545 -1.43703 1.47214
17.6412 21.6053 24.1063 -1.04884 -0.604375 -1.69466
17.3378 24.0925 23.0702 0.22454 -0.585548 -0.190489
22.2673 22.1287 24.4943 1.39071 -0.0297535 0.0125379
23.9404 23.9199 20.6611 1.29617 0.360773 1.21892
24.5117 22.96 23.1236 -1.22209 -1.02648 -2.40788
22.088 24.3041 22.8371 -1.97328 -0.604529 -0.225478
25.2095 21.3137 20.8921 0.070509 0.66746 -1.12904
22.4093 21.4713 20.9156 -2.06855 -0.474589 -2.10267
ITEM: TIMESTEP
1000
ITEM: NUMBER OF ATOMS
58
ITEM: BOX BOUNDS ss ss ss
1.5928126120810495e+01 2.5294528835712804e+01
1.4841281545648259e+01 2.5966007947351283e+01
1.5258927462821175e+01 2.5716797324376284e+01
ITEM: ATOMS x y z vx vy vz
16.8411 17.079 19.6953 -2.30799 1.71545 -0.0368114
19.1283 18.4341 19.089 0.770468 1.90961 0.923322
19.3116 19.6795 16.3847 2.16208 1.02165 1.29859
17.9664 17.3316 16.9917 -1.07008 -0.391878 0.473672
20.5911 17.4301 16.8231 -0.916886 -0.449806 0.697107
15.6829 19.4272 20.8205 0.796844 -1.02662 0.190636
16.8797 19.6961 18.3336 -0.532813 2.02364 2.63324
18.7923 15.4188 18.6852 0.363463 -0.263522 -0.636095
21.3476 16.6382 19.0646 2.05506 0.50327 -0.433903
21.699 20.2996 15.632 3.97538 0.524223 2.97361
22.8638 18.5374 16.8465 -1.52579 0.810188 -3.20374
23.9552 20.0593 18.9163 0.693539 0.792033 1.08544
22.6269 18.6262 20.682 -0.413065 -0.165579 -1.10681
24.2147 17.2689 19.0366 -0.12482 1.37378 1.34031
17.8106 21.6955 16.6575 -2.35504 -1.74341 3.43326
20.2599 22.3248 16.6483 0.504571 -0.0570992 0.814778
18.7164 21.5514 19.1635 2.4548 0.0447845 -0.561105
18.3052 24.0012 17.6375 1.16236 -0.879469 1.29459
17.931 24.3079 20.2042 0.739611 -1.8585 -2.85514
16.5352 22.4517 18.8519 -1.1215 0.701398 -1.5713
19.6906 26.125 19.0397 -0.134831 -2.76342 -0.866551
24.0975 21.03 16.1749 -0.911027 -2.66539 -0.6442
22.4368 23.0032 15.5439 -1.04549 -0.314792 1.3398
20.482 23.6771 19.3981 2.38972 -1.46063 -0.683794
21.3331 20.3882 18.3021 0.10751 2.6417 -0.836873
20.618 24.8168 16.5363 2.47936 -0.827113 0.274204
21.9556 25.7933 20.4011 -1.59359 0.278632 -0.65597
22.8519 22.6779 18.1929 -0.290161 -1.38257 0.36469
22.4711 25.1459 18.0307 -2.08428 0.31795 2.13466
18.2295 19.5028 21.4838 -0.212843 0.507035 -0.858177
18.156 18.5166 24.0692 1.365 0.448475 -0.117535
17.8233 15.2026 21.0433 0.945927 -2.0654 2.73953
16.6258 17.3845 22.3218 0.59574 -1.07066 0.609839
18.7122 16.0958 23.578 -1.62129 -0.224912 0.0019014
15.9767 19.8829 23.227 1.19341 2.55083 -2.49749
19.7314 17.2005 21.2465 0.410397 3.59863 -0.618703
20.7556 19.4812 23.1746 -3.07878 0.198121 -2.71368
23.104 17.5843 23.4583 3.47132 1.33068 0.62665
22.407 19.612 25.2218 -1.13301 1.19136 1.22929
20.4166 14.6425 20.5734 -1.1253 0.571565 -1.81593
20.7944 17.5081 24.9572 0.237852 1.05981 0.901792
23.4628 20.2123 22.8877 1.82335 -1.86588 -0.574744
24.96 18.4228 21.5229 0.363226 0.653354 -2.05686
21.1999 15.6501 22.9022 -1.01336 0.933054 -1.17583
22.8065 16.0234 20.9596 -0.517557 0.00150029 0.911789
19.617 22.588 21.8726 0.640552 -0.442363 -0.91358
19.7213 25.2123 21.7046 2.60482 -0.801037 0.096807
16.733 21.9271 21.408 0.715177 0.892418 1.87171
19.765 24.1496 24.1107 -1.68865 -1.16323 0.657662
20.001 20.2785 25.4873 1.13035 -2.54665 -2.55196
18.3186 21.3518 23.6424 1.02464 0.46009 0.488422
17.6677 23.9779 22.8777 0.603213 -1.63358 2.01716
21.4317 21.7805 23.9199 -2.29907 -0.905996 -2.4383
23.6765 24.1059 20.46 -0.188711 0.0417258 -1.17158
23.9341 22.6548 22.7187 -2.88738 -1.10616 -0.957429
22.0512 24.1931 22.4661 -2.22964 0.558353 0.75751
24.9959 21.1276 20.8772 -0.860911 -0.937181 2.26686
22.4396 21.7248 20.9543 -2.49589 1.35753 -1.89474
ITEM: TIMESTEP
2000
ITEM: NUMBER OF ATOMS
58
ITEM: BOX BOUNDS ss ss ss
1.5486502298170000e+01 2.4702916853829940e+01
1.5140262005419117e+01 2.5907347343167277e+01
1.5166826739793615e+01 2.5384356191007296e+01
ITEM: ATOMS x y z vx vy vz
17.0912 17.6784 19.7932 1.83247 0.416943 -2.32534
19.9455 18.7714 19.2592 1.27796 2.10613 -0.366997
19.37 20.0294 15.6517 -1.32982 0.259237 -2.16663
17.9301 18.9268 17.3451 -0.148862 0.433909 -0.757652
15.9598 19.9205 18.7769 1.24962 -1.74701 0.572929
18.6913 16.3609 18.4647 -1.5677 -0.863119 -2.3342
20.2099 15.4861 20.4635 0.319918 -1.4881 1.14106
20.5187 18.317 16.8667 -0.277267 3.56329 4.28626
21.6052 16.4977 18.4123 1.59182 1.02938 0.520679
23.0991 18.4857 17.2213 0.123386 0.922542 0.383215
24.5852 19.8304 19.0003 -0.282317 -3.25319 -0.640562
24.3803 17.2718 19.1988 -0.695244 0.00945333 1.7082
17.1918 21.5361 16.4662 1.26745 -1.97547 -0.776371
19.916 22.1747 16.4146 2.18906 0.76782 2.23127
18.4861 21.2818 18.8077 -0.681818 1.07789 2.68782
18.3935 23.7596 17.3862 1.98222 1.0642 -0.150562
17.5178 23.8704 19.9184 0.636005 0.969703 0.525556
15.714 22.4774 18.5749 -0.282463 -0.361287 0.983677
19.0141 25.9227 19.2087 0.348101 -0.726744 -0.328319
22.0774 20.0492 15.4622 1.35506 0.332111 1.4411
24.3144 20.7903 16.3718 -0.785299 0.728814 -1.35613
22.5682 22.8707 16.2814 -3.80245 3.10037 0.133471
20.9387 23.2153 19.1695 -0.0416778 -0.176157 -0.474559
21.5172 20.6439 18.3655 -4.44665 -2.48022 3.22408
20.627 25.3599 17.2853 -0.387662 -4.70326 -0.533739
21.5555 25.6978 20.002 -0.547794 -2.08964 -1.03152
23.7636 22.3327 18.4757 3.89368 -0.159072 0.412505
23.1125 24.7871 17.9363 -1.65913 -0.104855 0.417297
23.8296 23.8678 20.3675 0.125274 -1.01564 -0.669182
15.2757 19.1473 20.9687 -1.07633 0.323108 0.6799
18.146 19.6277 21.3883 -0.484295 2.57276 -1.50854
18.4381 18.6419 24.4407 1.33187 -2.2575 -0.22128
17.8692 15.4191 21.4552 -1.42644 0.236014 1.35242
16.7866 17.4633 22.6939 -0.0396719 1.26577 -0.424795
18.7395 15.9929 24.0084 -2.70741 0.386061 -1.6702
15.9749 19.9979 23.3613 -0.19291 0.344124 -0.489694
19.7596 17.3434 21.9189 -0.751392 0.511669 -3.50559
19.9966 20.4236 25.4084 2.15059 1.42022 0.585509
22.1838 18.5365 20.3848 2.98109 1.97196 1.41599
20.791 19.5975 22.8529 1.02886 1.79533 -0.724266
22.5898 17.6344 23.0188 -0.813278 0.217994 1.13965
22.6148 19.763 25.5848 -0.64021 -1.03073 0.774358
20.7061 17.6476 24.9955 0.280654 0.778859 1.2415
23.5326 19.8834 23.2157 -0.316521 -0.695248 2.0819
24.7912 18.6749 21.3669 0.53056 1.29261 -0.0132097
21.2924 15.4052 23.0381 -0.907232 -1.15641 1.18484
22.8095 15.8859 20.9782 -0.444299 -3.13468 -1.43529
19.8242 21.9086 21.478 0.636768 -2.91409 -2.08546
19.3429 24.9097 21.5852 -0.657675 -1.13578 0.931244
16.5242 21.6709 21.1672 -0.76841 -1.35713 1.11661
19.9018 23.5412 23.918 0.0885318 0.199435 0.764797
18.3101 21.1635 23.8213 0.99544 -0.432261 -2.10484
17.5978 23.2464 22.7287 1.01152 -0.207738 0.696778
21.7199 21.915 23.88 -1.48907 0.765152 -2.36605
23.9887 22.6432 22.7097 0.845459 1.4996 -2.50605
21.7741 24.0052 21.8702 -0.138448 -1.8864 0.89716
25.2182 21.3924 20.7392 -0.499124 2.95338 -1.66603
22.4873 21.2146 20.9853 0.215511 2.03591 -0.898696
ITEM: TIMESTEP
3000
ITEM: NUMBER OF ATOMS
58
ITEM: BOX BOUNDS ss ss ss
1.5622114800847980e+01 2.5475199456160617e+01
1.4505623809329048e+01 2.5730288650261532e+01
1.5060086851728148e+01 2.5371811178557227e+01
ITEM: ATOMS x y z vx vy vz
16.7594 17.8313 19.7973 -1.86515 0.204698 0.135084
20.0388 19.5566 19.8304 -0.653974 3.96172 -1.93299
18.9863 19.2794 15.3202 -1.13959 -1.45536 0.818786
17.8073 19.1971 17.7353 -0.297949 1.54885 -0.796596
15.8693 20.3507 19.0395 -2.62651 -1.35718 1.66256
18.9231 16.9096 18.7709 -1.12293 3.11415 -1.48986
20.4629 18.2914 17.0561 -0.0473138 -2.99909 -1.25329
21.667 16.9006 19.5203 3.5022 -2.23676 1.04559
23.2547 18.1356 17.667 0.84847 -0.571281 -0.21505
24.7983 19.8952 19.0875 -0.30485 -0.129611 1.75359
24.5653 17.2969 20.1139 -0.421592 2.02361 -1.42835
21.672 19.9542 15.5478 1.10512 -1.7573 1.75066
17.0816 21.359 16.1488 -0.769516 1.56854 0.95557
19.6833 21.0171 16.8264 -0.488931 0.279188 0.887488
18.0793 21.6176 19 1.345 -2.80074 0.211041
18.1245 23.6762 17.1931 -0.45477 -2.22046 -1.34378
17.6535 24.1079 20.0106 -0.099235 0.186103 -1.41743
15.9748 22.7339 17.979 0.681207 0.521936 -1.82173
19.6921 25.5481 18.6465 -0.0836689 -0.236853 -0.32521
24.1835 20.4147 16.5952 2.58912 -1.22391 0.0702671
22.3246 22.3298 16.2182 -0.589518 1.62039 -0.271293
20.3739 22.9012 18.9139 0.254368 1.60849 4.70511
21.9243 20.458 18.3085 -0.416449 1.05583 -1.87271
20.5054 24.3267 16.4307 0.566278 0.0605563 -0.345777
21.6188 25.8545 20.5608 -2.01953 0.0923552 0.628363
23.7668 22.3822 18.6306 0.141787 2.83574 0.10544
22.4155 24.4919 18.2037 0.381647 0.50985 0.480969
23.5964 24.0087 20.6476 0.443101 0.107182 -2.35414
15.6492 19.7117 21.6983 -3.20649 -1.74586 1.9119
18.0737 20.3915 21.4389 -0.142506 1.17195 1.37163
18.154 18.5813 23.5275 -1.10605 0.000826145 1.31619
17.8694 15.5984 21.1216 1.62653 2.18722 -0.340621
16.6465 17.2011 22.2834 2.47353 -0.63416 -0.106563
19.1463 16.1666 24.0635 -0.200717 1.10585 1.21175
16.2622 21.0823 23.5231 -0.750053 0.720412 0.251532
19.7666 17.2907 21.4614 0.61108 0.382483 0.648195
20.1119 14.9979 19.7313 -1.14916 1.85704 1.30227
20.2214 18.5463 25.2902 -3.60936 -1.89185 -2.89742
22.5202 18.8694 20.9492 1.35332 0.266657 -1.85256
20.7611 19.8203 22.615 -0.72359 -1.99693 1.91685
23.99 17.4037 23.1478 -0.855187 -0.979632 0.946901
22.524 19.2827 24.5047 0.602959 -2.94832 0.640405
21.5454 16.919 23.4429 0.0133817 -0.935708 -1.17116
23.8522 20.4321 22.8062 2.25855 1.1373 -0.343429
25.5113 19.2822 21.2966 1.03458 -1.00067 -0.072174
20.0268 14.5602 22.2217 -0.435454 -0.997054 1.00008
22.5952 15.6118 21.3928 3.66955 -0.374469 1.08499
19.9603 22.348 21.5481 3.2678 1.49251 0.489391
19.2678 25.1851 21.8714 -0.939659 0.994307 0.989017
15.7914 22.2922 20.8507 -0.945458 1.5413 -1.49795
19.5068 23.6631 24.2421 0.18346 -0.618531 0.841762
19.0225 21.1702 24.1354 0.773099 -1.50517 -1.61157
17.5536 23.0881 22.5752 -0.960385 1.81256 -0.322049
21.8106 21.9247 24.1413 -0.773917 0.236883 0.116252
23.9744 23.0855 23.0495 0.366591 -1.52223 -0.492158
21.5404 24.0504 22.4733 -0.40019 -0.956982 -1.66031
25.1201 22.0418 20.8989 0.245954 -2.02217 -1.14524
22.3317 21.4861 20.808 -0.739028 0.911793 -0.86821
ITEM: TIMESTEP
4000
ITEM: NUMBER OF ATOMS
58
ITEM: BOX BOUNDS ss ss ss
1.5374764648434200e+01 2.5796059879222845e+01
1.4722943347942902e+01 2.5752941087439979e+01
1.5545973776895867e+01 2.4625418209084096e+01
ITEM: ATOMS x y z vx vy vz
17.3237 17.4334 20.1099 0.807063 -0.382533 -0.0905602
19.8498 19.2909 19.2893 -0.745134 1.30809 -0.788159
19.223 19.9314 15.2942 -0.915791 -2.56448 -0.311363
17.7995 18.482 17.4388 -2.13953 -0.166102 -2.70647
16.5736 19.8488 19.3338 0.242936 0.332327 0.424057
18.9858 16.4657 18.7082 0.387634 0.891869 -0.0582602
20.4844 14.7869 20.1026 3.39359 0.619469 -1.70816
20.4089 18.0267 16.7455 -3.17973 0.138103 0.372442
21.635 16.8598 18.7013 0.627129 -2.97931 -2.07684
23.0235 18.1824 16.9648 -1.03979 0.94821 -0.484647
24.6938 19.9044 18.8955 3.59301 0.158451 -0.426179
24.2374 17.015 19.4321 3.90004 0.550859 -0.207064
21.725 20.0039 15.4873 0.0587028 0.209666 1.58681
17.0876 21.1813 16.9464 2.77128 -0.0104865 -0.810319
19.9106 21.5053 17.1066 -1.21947 2.79873 -3.98252
18.3784 21.4586 19.2916 -0.693189 -2.07235 1.48652
18.1585 23.4682 17.4882 1.53831 3.12767 -0.429006
17.4656 23.8982 20.0605 0.62446 -1.20483 -1.34983
15.7899 22.5174 18.5848 1.16629 0.495998 -1.4007
19.3859 25.4254 19.1281 -3.36412 -1.32317 0.54616
24.216 20.6803 16.2445 2.14394 -2.14667 -2.06288
22.4932 22.5632 16.4518 -1.22911 0.869426 0.252285
21.3614 23.284 19.3804 -0.601535 2.81457 -0.238284
22.2514 20.4804 18.2443 -2.47004 -1.87526 -1.27765
20.5704 24.2428 16.9313 -1.55336 -0.893215 -0.79657
24.4677 22.6569 18.3447 0.429598 -3.37789 -1.11647
22.8614 24.8753 18.0756 0.30322 0.187873 1.25008
15.7797 18.8441 21.8394 0.796282 2.28333 0.384044
18.0315 19.8051 21.9381 0.826607 1.59854 -0.896712
16.6837 18.3689 24.1035 0.510323 0.238913 -0.933357
18.1356 15.1259 21.1913 0.700675 2.12737 -2.55454
15.9344 16.2406 22.2964 0.821151 -2.06014 0.0649876
18.3066 16.8992 22.9434 -1.57053 1.00637 1.43541
20.1121 17.3719 21.2499 -0.865617 -3.83706 2.00579
19.1789 19.1938 24.5753 -0.0961593 1.70972 -0.504399
20.2336 14.897 22.7814 0.4771 0.189137 -1.67845
22.5692 18.9181 20.4031 -0.477638 -0.96906 0.593717
20.7521 19.6325 22.4933 1.92066 -0.67995 1.00133
23.5006 17.8694 23.1012 -2.98909 0.988572 -0.158175
21.7531 19.507 24.9488 -1.90403 0.40994 0.890935
20.9137 17.0592 23.9497 -0.235814 1.94801 3.00696
24.9735 18.8472 21.3423 -1.09688 -0.452691 1.58831
22.3979 16.0801 21.3369 -0.521179 0.67708 3.3119
16.5289 21.1504 23.9479 3.32695 -2.49689 3.90034
19.7425 22.3562 21.5661 -2.16781 -1.59284 -0.692461
19.344 25.2336 21.6866 0.20695 0.73383 1.63498
16.4281 21.8057 21.2954 0.259096 -0.120892 0.886035
19.862 24.4336 23.9655 1.25326 0.759847 0.63709
18.8422 21.9176 23.9953 -1.09993 -0.10886 -1.53559
17.335 23.6553 22.8168 -0.259917 0.492071 0.999795
21.8095 25.9746 19.9969 1.13167 -0.630454 0.128695
23.9557 24.1526 20.4284 -2.42581 0.777982 1.71071
23.8141 20.5147 23.2503 -1.1638 -1.39291 0.533284
21.6187 22.172 23.691 0.952396 0.293877 2.24641
24.3288 23.0021 22.8601 1.22237 -1.20092 0.642932
21.9554 24.2429 22.227 0.621134 2.06867 0.744042
25.1141 21.6085 21.0427 -0.806424 -0.43383 -0.734858
22.6133 21.5614 20.864 -0.182371 1.21823 -2.25558
ITEM: TIMESTEP
5000
ITEM: NUMBER OF ATOMS
58
ITEM: BOX BOUNDS ss ss ss
1.5538549447134400e+01 2.5087094851390503e+01
1.4428041824112460e+01 2.6002323022634219e+01
1.5627696834660842e+01 2.4973727146193873e+01
ITEM: ATOMS x y z vx vy vz
19.7044 19.0471 19.1967 -0.0828679 1.42176 -0.00391057
19.0681 19.8581 16.5685 -2.82253 3.42081 2.62649
17.9421 17.8373 17.6153 -0.438859 -2.49052 -1.19817
16.6345 19.7746 18.9635 0.621678 -0.0981259 -1.04072
19.2504 15.9979 18.8148 -2.42429 0.280229 0.947885
20.3033 17.5331 16.9249 1.94757 -0.349617 -1.10116
21.1976 14.4453 20.3804 -1.33384 1.05023 -1.27651
21.7284 16.5958 18.8084 -1.58719 -1.11084 -1.93732
22.9595 18.6293 17.3479 -1.65279 -0.565289 0.596347
25.1186 19.6288 18.3919 0.695565 -1.25435 1.57955
24.5272 17.2513 18.9927 2.08585 0.856644 1.14844
21.8581 20.1816 15.6592 -0.211555 1.17282 0.30773
17.1497 21.6381 16.5632 -0.257428 -1.04091 -1.66551
19.9149 22.3676 16.4977 0.937171 -1.4614 1.99233
18.7014 21.6307 19.1488 -1.7262 -0.564538 2.14994
18.0174 23.9142 17.729 -1.80391 1.09981 0.125693
17.5543 23.9278 20.3325 -0.228812 1.9988 -2.33459
15.9731 22.1845 18.5846 -1.06672 -0.0403431 -1.15919
19.2103 25.9257 18.9151 2.69547 2.99811 -1.75163
24.3221 20.7737 16.1435 -2.80043 -0.125497 0.44803
22.5815 22.6014 16.346 2.13056 0.113023 -0.920216
20.6512 23.7883 19.2058 -1.01563 -0.75227 1.20343
21.3092 20.8673 18.2488 1.43929 -0.101585 1.25693
20.7816 25.065 16.9055 -0.659638 -0.846902 2.12783
23.9849 22.033 18.4767 2.6107 -0.850549 -3.18787
23.2226 24.5598 17.8985 0.100391 3.0732 2.21743
22.0706 25.9897 19.7883 -0.609827 -0.607433 -0.219135
17.4199 17.4334 20.4588 1.34798 -3.08879 -1.67544
15.7926 18.9565 21.5243 2.83006 -1.31389 -0.20257
18.3051 19.6105 22.0111 0.997306 1.48489 1.63492
15.982 18.2774 23.9235 0.0591255 1.11233 1.04465
18.5769 15.1816 21.1349 0.967913 1.19617 -0.440481
16.0372 16.2365 22.3764 2.174 0.593714 -0.512324
18.1911 16.7371 23.3995 1.64844 -3.14578 0.853348
20.2618 17.2415 21.4232 1.64388 0.780081 -0.250431
18.4987 19.3219 24.5241 -0.23586 1.54815 1.05376
20.6992 15.299 22.9449 0.919996 1.943 2.58321
22.6599 19.1095 20.0676 -0.724166 -1.86861 1.30004
20.9759 19.7737 22.4164 -2.06315 -1.14664 -0.78088
22.6421 17.7251 22.6844 0.0978947 -1.43591 0.104977
21.1421 19.9125 25.0508 -2.50435 -0.590566 1.14464
20.6626 17.5123 24.4867 0.752949 -0.589999 2.83761
24.7314 18.2206 21.4203 -0.346118 -0.0830589 -1.26486
23.2302 15.9269 20.8089 0.114525 1.70099 0.532647
16.5144 20.9982 23.8686 -2.17922 2.28506 0.59773
19.4497 22.4093 21.7453 -1.00679 0.0526481 -2.38786
19.8312 25.55 21.4593 -1.2953 -0.421716 1.24317
16.7366 21.5901 21.1706 -0.460733 -2.59251 -3.44381
19.7506 24.4242 23.6459 -0.133955 0.599409 -0.45166
19.2458 21.6959 24.3688 0.44904 1.50852 0.0387395
17.5677 23.5936 23.1141 -0.708174 1.16171 1.81507
23.6313 24.0223 20.4429 -1.03535 -0.0389427 0.934661
23.5908 20.0331 23.2668 -1.95821 0.202618 -4.63308
21.7959 22.3083 23.7127 1.15605 -2.49771 -1.77099
24.253 22.671 22.7425 0.353309 -3.14022 2.2505
22.1799 24.4759 22.3745 1.73118 -0.322535 -0.80109
24.6931 20.8444 20.9383 0.583244 1.08518 -2.36239
22.1244 21.7705 20.9559 2.28276 -0.202861 0.0760719
ITEM: TIMESTEP
6000
ITEM: NUMBER OF ATOMS
58
ITEM: BOX BOUNDS ss ss ss
1.5669920333316680e+01 2.4813297553227454e+01
1.4714714863456415e+01 2.6368961461738163e+01
1.5804018217928251e+01 2.5322903958492066e+01
ITEM: ATOMS x y z vx vy vz
17.6482 17.2447 17.22 -0.102487 -1.8817 1.16955
19.1036 15.7457 18.5261 1.41926 -1.57927 -1.4922
20.4213 17.0919 16.5058 1.72611 3.17071 0.0411636
17.422 17.5011 20.042 -1.1983 -2.71424 0.677731
20.6196 14.7296 20.5867 -1.80521 -1.39504 -3.12159
21.85 16.3951 18.8139 1.49754 1.04322 -1.63212
24.3887 17.3773 18.965 -1.75933 -1.24019 -0.896945
19.7377 18.4631 18.4894 0.168614 -0.449023 0.958714
18.402 19.7925 16.5383 -2.02443 0.615748 -0.278067
16.9575 19.6786 18.7463 1.81219 1.91766 3.1103
17.014 21.9325 16.8889 -1.89538 -0.669057 -1.32579
18.8737 21.6675 19.1129 -0.519906 0.78793 0.635218
15.892 23.014 18.5948 3.17158 -0.666703 -0.891985
22.5074 18.3493 17.4727 -0.409947 -1.89674 0.82789
24.6608 19.7933 18.8441 0.626697 0.255666 0.123924
20.7179 20.0109 15.6854 2.45527 -1.72725 -0.382617
23.8297 20.4807 16.4506 -0.374188 2.37202 -0.407516
21.6406 20.7736 18.2918 -0.537903 -1.29982 0.031398
23.8816 22.2569 18.5211 1.67281 0.790967 1.72038
22.3668 19.0495 20.431 -0.163349 0.173859 1.83598
19.9343 22.3102 16.6477 0.258245 -0.613993 0.678129
18.2506 24.2577 17.3082 -2.17668 -2.75992 -0.600761
17.9363 23.8744 20.0172 0.129967 1.21633 0.739964
19.3529 25.6632 18.8771 -0.857491 -0.879093 -0.934861
22.5293 22.7868 16.3807 -0.68197 -2.75058 -0.339386
21.11 23.2921 19.1596 -1.96562 1.59763 1.06122
20.9244 25.0277 17.0175 -0.0471122 -1.13887 -2.18834
23.1999 25.0069 18.0138 -0.604105 -0.391347 1.00069
21.6633 25.8701 20.1977 2.65452 0.588839 -0.086331
23.6169 24.2513 20.5128 0.276917 2.66861 0.597875
16.303 18.3921 24.2432 -0.130136 -0.968311 -0.0697785
18.4195 15.2665 21.2551 1.87801 1.82543 1.3038
16.1779 16.5082 22.3845 -0.371823 -0.925803 0.693652
18.6728 17.3681 22.8701 -0.646917 1.46266 -0.72654
20.4941 17.1953 20.9486 0.290622 0.741777 1.13437
20.5553 15.3519 22.9814 -1.54585 -1.75049 -3.0909
22.4494 17.6108 23.4514 0.225629 0.749762 0.976928
20.5289 17.1599 24.7568 -1.23333 -0.139755 -0.703815
24.6885 18.6091 21.1902 0.107884 0.832592 -2.80511
22.915 16.3815 21.4555 -2.97127 -0.78058 -0.0168981
16.0981 19.0384 21.856 1.02903 0.196897 0.758172
18.9194 19.4713 20.7808 0.733931 -1.64676 -0.836335
18.784 19.0535 24.7014 0.160718 -0.245415 -0.555093
17.561 20.4922 23.129 2.49618 -0.61709 -0.0328218
16.8979 21.4916 20.8359 -1.94322 1.30799 -1.70852
19.4727 21.8367 24.488 0.706287 3.34042 0.841869
20.8112 19.6244 22.6754 -0.533594 1.55567 0.699457
21.483 19.8311 25.2129 -1.09059 1.10821 -0.511443
23.5008 20.0049 23.1524 -2.93524 -0.101695 -0.370495
21.8624 22.2412 23.9942 2.72085 1.04387 -0.95397
24.1867 23.0641 22.8472 -0.535944 -0.0189705 0.246964
24.8805 21.3818 20.9189 1.64552 0.919409 -0.385268
22.3861 21.7257 21.3763 1.25837 -0.674519 1.19871
19.859 22.5416 21.7909 0.546822 1.10359 -0.748312
19.4315 25.3611 21.7098 2.08235 -0.81043 2.8034
19.7173 24.3329 23.9451 -0.798965 0.513114 2.09607
17.5751 23.4091 22.6135 -2.0679 0.00302259 -0.924582
21.8257 24.4771 22.4863 0.176266 -1.17097 1.05488
ITEM: TIMESTEP
7000
ITEM: NUMBER OF ATOMS
58
ITEM: BOX BOUNDS ss ss ss
1.5939522588063886e+01 2.5129970794844681e+01
1.4476239722106685e+01 2.5831519885926099e+01
1.5794826852386283e+01 2.5564478990767011e+01
ITEM: ATOMS x y z vx vy vz
17.8729 17.1565 17.0703 -2.30733 -0.958414 1.45189
19.5073 15.4981 18.5442 0.463765 -3.40655 -1.36698
20.3215 17.0715 16.4512 -0.920787 1.34567 -2.2726
17.521 17.2949 19.7853 -2.60939 1.73644 1.06437
20.6673 14.8038 20.7938 1.08335 1.06163 0.823464
21.8864 16.3171 18.796 -1.35241 2.0872 0.753997
24.2951 17.1397 19.2866 0.843778 -2.48367 3.16227
19.9395 18.625 18.4303 -1.37021 -3.58517 0.618872
18.337 19.6336 16.1926 -1.65484 -2.37116 1.6489
16.9331 19.7575 18.601 0.340766 0.610399 0.0454922
16.8224 21.8856 16.4645 3.02385 1.82902 1.81427
18.8832 21.8648 18.3047 -1.69435 -0.913189 -1.27672
22.6886 18.2546 17.1379 3.0686 1.13154 -0.0369522
24.3098 19.7669 18.5848 0.508047 0.257447 0.839659
20.7683 19.9255 16.0118 1.3532 -1.13379 -1.2408
23.4365 20.734 16.2191 1.16699 0.0566052 -0.396858
21.5042 20.691 18.5894 1.20593 -0.885329 2.45903
16.2722 22.8763 18.5295 0.380852 0.76197 -0.859649
19.283 22.3261 15.7912 -0.808098 0.343586 0.390286
18.1867 24.376 17.1459 -0.0457111 0.133065 -0.507066
18.2246 23.7461 20.3039 -0.370003 -1.25139 0.88211
19.3181 25.9638 18.8644 0.129416 1.04921 -0.759035
23.9768 22.4576 18.5261 -1.37936 -0.336106 -0.408564
21.8408 22.6243 16.7575 -2.85306 2.37177 1.20205
20.8839 23.6038 19.5411 0.540199 -2.75491 -0.157024
20.7904 24.9627 17.0852 0.0224194 2.29826 0.708635
23.3048 24.9559 18.0662 2.31349 -1.49118 2.3713
21.7431 25.8616 20.1978 0.947282 4.05993 -0.0297291
16.4052 18.5071 24.1736 -1.83869 1.09368 -0.683846
18.3913 15.3634 21.3657 0.327941 -0.939593 -1.32408
16.0656 16.7459 22.0603 0.0292903 -1.70197 -3.10463
18.3462 17.3425 23.0242 1.31952 2.28506 1.13655
20.2054 17.2666 21.0749 1.76947 1.72595 -2.09144
20.5756 15.5722 23.1662 0.174345 -0.249004 0.565602
20.3114 17.4507 24.8169 2.0938 1.81038 0.480717
22.6432 17.7898 23.6186 -0.0651189 0.969279 -0.158489
22.9776 16.5491 21.2578 1.7359 1.26852 0.217195
16.2777 19.175 21.3308 -1.56677 -1.3079 -0.363525
18.9759 19.5579 20.7562 -1.01567 -0.372687 -2.25468
18.6715 19.1438 25.3887 0.243767 0.0735678 0.759141
18.0559 20.5376 23.0746 0.637397 -0.191228 0.0320995
16.9312 21.3878 20.553 -0.605563 1.8218 0.73039
19.4066 21.6188 24.8934 0.886102 -1.26627 2.43522
22.2691 18.876 20.5902 -1.62035 0.861258 1.86051
24.869 18.8091 21.2167 -0.757332 1.02766 0.92399
20.6097 19.7405 23.1252 -0.866363 -1.81349 -0.56126
21.5067 19.789 25.4127 1.57266 0.811373 -0.942266
23.4744 20.0691 22.9828 -1.10694 0.0792183 -1.26633
25.0948 21.2072 20.8239 -1.9271 -0.131571 -3.16463
22.3791 21.7867 21.1499 -1.38326 -1.22353 0.480951
19.9088 22.2178 21.8939 0.0267931 -0.557224 -1.15905
19.4248 25.474 21.8307 -0.868164 -1.18105 -1.26263
19.8128 24.0447 24.1143 -0.659136 0.453928 0.117059
17.7707 23.2933 22.9893 0.026862 -1.97045 -0.926834
23.8983 24.1883 20.543 0.662495 0.315931 -1.15961
22.0834 21.9963 24.3176 0.157783 -0.64303 -0.157755
24.1573 22.8726 22.8033 -0.539037 -1.87372 -0.832405
21.8923 24.3627 22.4893 3.12897 1.26221 0.749421
ITEM: TIMESTEP
8000
ITEM: NUMBER OF ATOMS
58
ITEM: BOX BOUNDS ss ss ss
1.5964943096095135e+01 2.5052044826260193e+01
1.4689139249681597e+01 2.6037047839657223e+01
1.5566162149478638e+01 2.5253428028263166e+01
ITEM: ATOMS x y z vx vy vz
17.655 16.9002 17.2363 -0.281207 -0.41589 1.72241
19.1734 15.725 19.0645 0.120608 0.966212 2.98935
20.1986 17.4027 16.4723 1.34745 1.98668 -0.571216
17.204 17.548 19.7225 -1.4011 1.24053 -0.137639
21.8704 16.3008 18.7667 0.825574 2.27308 0.00493201
24.5721 17.0393 19.1028 -1.06083 -2.35705 1.21462
22.389 18.6128 17.3711 0.543247 1.0304 -2.95011
19.9575 18.6108 18.7691 0.614188 -0.638508 1.17675
18.3635 19.3651 16.649 1.35449 0.260811 0.042932
16.6562 19.8556 18.7656 0.0973007 1.94281 0.864616
16.9734 21.5539 16.3327 0.538396 -0.604941 -0.485793
18.9838 21.4888 18.2539 0.387381 -0.994599 -0.77993
19.4233 22.4511 15.4926 0.804372 -0.47963 1.23114
24.8773 19.3066 18.9179 -0.39681 -0.224352 1.4469
20.7022 20.3718 16.2024 -2.58431 1.28342 0.836518
23.4236 20.8185 17.2547 2.57627 -1.24357 -1.05921
21.4646 21.0534 19.1978 -0.866139 -0.0458874 1.17352
16.1973 22.5515 18.3739 -2.09028 0.307868 -1.16296
18.3723 24.0671 17.4238 0.344677 2.32835 -3.87531
17.8908 23.4747 20.1708 -1.02544 2.3222 0.654085
19.1492 25.9808 18.9685 0.766751 -2.26047 -2.4957
24.2864 22.1543 19.0881 1.02587 2.18052 -0.343006
21.536 22.7095 16.9931 0.277924 -2.66886 -0.443473
20.8962 23.8417 19.439 1.54451 -1.70463 0.235729
20.6726 25.2101 16.9852 -1.94448 0.286363 2.17035
23.204 24.415 18.0757 -3.29475 0.0376946 3.23763
21.5923 26.2168 20.0516 0.106534 0.0958944 -1.56115
16.541 18.2358 24.5422 1.69752 1.63643 -2.54895
18.6056 15.821 21.6352 1.19352 0.621042 0.704774
16.2716 16.8789 22.1101 1.19337 -0.0227592 -0.0273485
18.3936 18.4075 22.4383 1.17634 0.702218 -0.146748
20.6125 17.3139 21.0594 -0.153803 -1.58447 -0.545273
21.0654 14.3862 20.4224 -0.362787 -0.866102 1.14653
21.1308 15.0881 22.6156 0.477289 -0.212837 -1.54423
20.1562 17.344 24.0582 0.401924 -1.23267 -1.32127
22.5493 17.5663 22.9798 -2.33772 -1.92191 -1.31565
23.1153 15.9835 21.0168 0.640552 -0.630501 1.6392
24.9358 18.0509 21.5843 -0.294607 -1.23899 -0.721934
15.7488 19.1846 21.3 -0.0454759 -0.434294 -0.354992
18.5852 20.2009 20.5538 1.02425 0.513511 2.04749
18.6023 19.198 25.1717 0.040512 -0.769555 -0.292933
17.3969 20.6315 23.0541 -0.854725 -1.24562 -1.55617
16.2354 21.7075 21.1041 -2.85333 -0.61468 1.40493
19.6884 21.6753 24.4535 1.23265 -0.0508624 2.90026
19.9235 22.3796 21.8315 0.424424 0.325222 1.75252
22.9339 18.9091 20.3974 -1.92149 2.36211 0.456501
20.7973 19.8257 22.4739 -0.481174 -0.484355 -0.564284
21.643 19.8228 25.0948 1.63976 -0.930084 -2.66007
23.7424 20.1019 23.2229 1.62101 0.48422 -0.389164
25.2818 20.7222 21.1205 2.5444 -1.20651 0.825636
22.5577 21.8041 21.394 -1.43872 0.340002 0.633309
21.9744 22.4189 23.8806 -1.02983 -0.917511 -1.13819
19.4176 25.0224 21.4279 1.16143 1.40757 0.0211264
19.7576 24.3156 24.0206 -1.07098 -0.347359 0.0937891
17.5333 23.1134 22.9642 -1.05864 0.668466 -0.603821
23.6449 24.1079 20.5495 -1.8954 -0.556167 -0.257058
24.4002 22.9367 22.8854 -0.785896 0.957957 -0.59278
21.9832 24.7304 22.4056 1.78542 0.344029 -0.181196
ITEM: TIMESTEP
9000
ITEM: NUMBER OF ATOMS
58
ITEM: BOX BOUNDS ss ss ss
1.5833577503941816e+01 2.5020137314730537e+01
1.4660491273469335e+01 2.6071355254036142e+01
1.5426632423310391e+01 2.5224217563338666e+01
ITEM: ATOMS x y z vx vy vz
18.0205 17.4437 17.5706 0.673207 -1.46055 -1.5632
18.8222 16.1301 19.4301 0.936643 -1.22346 -0.917519
20.4478 17.583 16.3711 0.720444 0.602881 -1.72958
16.3843 17.456 19.8062 -1.16927 -3.0605 -0.248521
19.8588 18.8051 18.9204 -0.548734 2.24539 0.221429
18.6257 19.6749 16.1371 0.913237 -3.29366 1.50197
17.2218 19.8742 18.5607 1.43805 -2.93976 0.33919
21.4614 16.4832 18.9421 -1.18143 0.652983 0.188388
24.0577 17.0707 19.332 -2.0051 0.204013 2.70496
22.8469 18.3213 17.1998 0.22439 1.0681 -1.39193
24.712 19.6226 18.7877 1.63932 1.02282 -0.243038
21.277 19.9048 15.7408 0.379146 1.39559 1.67738
17.115 21.7395 16.2373 -1.81114 0.584101 -1.8319
19.1287 21.8866 18.0732 -1.39281 0.203108 0.223764
19.2092 22.3316 15.2831 -1.78576 -1.899 -0.26201
16.4082 22.1113 18.9693 1.78904 -1.13201 0.179893
17.8829 24.0396 17.1376 2.60271 0.278729 -0.344271
18.1769 23.7485 19.8925 -1.5418 -1.06198 1.74029
19.2261 25.7923 19.0925 -1.01789 -1.14063 0.268283
20.3287 24.6533 16.9524 1.51311 0.0755772 -0.546512
23.8268 20.7182 16.3756 0.180923 0.644594 0.683821
21.7238 20.9368 18.3813 0.0842166 -0.775617 -0.100605
24.0711 22.2442 18.2441 1.808 0.0115869 0.117882
21.8089 22.4498 16.3912 0.45525 0.350769 0.0740104