ITEM: TIMESTEP
0
ITEM: NUMBER OF ATOMS
600
ITEM: BOX BOUNDS ss ss ss
7.7168055896659178e+00 3.3040807612589440e+01
6.7905760380839384e+00 3.4118308102530314e+01
5.6906713903218060e+00 3.5688567895667738e+01
ITEM: ATOMS x y z vx vy vz
21.6411 10.1066 8.70466 1.55892 0.333755 2.10032
19.3683 11.6214 9.61785 0.84333 0.215725 -2.00613
18.9141 14.2825 8.61455 0.351697 -0.117443 0.354403
23.389 12.258 9.48615 1.09513 0.440514 0.852395
21.1869 12.7677 7.70136 -1.56813 -0.546244 0.868725
16.6412 15.7973 9.52774 -0.4347 2.34053 1.01531
16.187 18.4584 8.52444 2.25704 1.61864 1.30847
18.4598 16.9436 7.61125 -1.12088 -1.16815 -0.719855
20.2785 18.0899 5.69475 1.10165 0.27358 -0.891246
20.6619 16.4339 9.39604 -0.558343 -2.29103 -0.836676
22.9348 14.9191 8.48285 -0.550044 -2.30756 1.00169
20.7327 15.4288 6.69805 1.51893 -0.737739 2.322
22.4806 17.5803 7.47954 0.0792296 0.085765 -1.10095
24.6826 17.0706 9.26434 0.296985 1.18224 -3.18288
13.9141 19.9732 9.43763 0.507199 -0.0866313 0.994948
15.7328 21.1195 7.52113 -1.16692 -2.00064 -0.275758
17.9348 20.6098 9.30593 -3.39849 -1.10608 0.425937
20.2077 19.095 8.39274 0.691757 1.20529 1.2931
18.0056 19.6047 6.60794 -0.525694 0.385453 -0.518242
19.7535 21.7561 7.38943 -0.351524 3.45634 -0.580146
21.9555 21.2465 9.17423 -0.606129 -1.04249 -0.119918
24.2284 19.7317 8.26103 -1.82062 0.231795 -1.57089
22.0263 20.2414 6.47624 -0.493167 -0.238078 -0.947443
23.7742 22.3928 7.25773 0.795474 0.414518 -1.17578
25.9763 21.8831 9.04253 -0.906567 -0.597483 2.12953
13.4599 22.6343 8.43432 -2.34043 0.145255 -0.518852
15.2078 24.7857 9.21582 -0.204733 0.676108 -1.49614
17.4806 23.2709 8.30262 -0.115075 -2.20928 -0.364105
19.2285 25.4224 9.08411 0.659283 -1.57828 -0.878838
23.7034 23.3979 9.95572 0.0961602 -0.275578 1.43802
21.5013 23.9076 8.17092 0.0516599 0.549339 -0.199347
23.2492 26.059 8.95241 0.724152 0.861647 -0.340392
27.7241 24.0346 9.82402 -0.493403 0.615371 -0.0438307
25.522 24.5442 8.03922 0.092059 2.29097 -2.00716
20.9763 27.5738 9.8656 1.52257 -0.20253 -0.72065
15.731 9.32879 13.4508 -0.788099 -0.631272 0.39803
18.0039 7.81399 12.5376 0.796147 0.47217 1.01074
19.7517 9.96543 13.3191 -1.188 -0.120409 0.680948
17.5497 10.4751 11.5343 1.40472 -0.564029 -1.93074
19.8225 8.9603 10.6211 -1.02698 0.89916 1.80253
24.2267 7.94097 14.1907 0.244901 -0.567673 -0.143201
22.0246 8.45063 12.4059 -1.5154 -1.31191 0.252113
23.7724 10.6021 13.1874 0.0415342 -1.7509 -0.565998
23.8432 9.59694 10.4894 -0.722958 -0.258448 0.65423
26.0453 9.08728 12.2742 1.48854 -1.60793 0.932781
13.0039 13.5047 13.3607 -0.45934 -2.33668 -0.726974
15.2768 11.9899 12.4475 -0.113088 -0.926009 1.5664
17.4789 11.4802 14.2323 -1.03032 -0.344018 0.93389
17.0247 14.1413 13.229 0.442627 0.22347 -0.684714
19.2975 12.6265 12.3158 0.0780067 0.346473 -0.63429
17.0954 13.1362 10.531 2.10977 1.20056 0.27663
21.4996 12.1169 14.1006 -2.12666 1.41637 -0.18761
21.5704 11.1117 11.4026 -0.653181 0.526237 2.04542
23.3182 13.2632 12.1841 -0.251933 -1.28828 -2.07031
21.1161 13.7728 10.3993 1.09099 0.493881 2.34584
25.5203 12.7535 13.9689 -0.529651 0.529032 0.921421
27.7932 11.2387 13.0557 -0.286653 -0.677877 2.58487
25.5911 11.7484 11.2709 -1.1552 0.71465 -0.93672
27.3389 13.8998 12.0524 0.0646763 -0.881885 -0.364804
25.1369 14.4095 10.2676 -1.83664 -0.524709 0.147622
29.541 13.3901 13.8372 1.05682 0.418689 -1.11178
10.2769 17.6806 13.2706 -0.361635 0.48864 0.50235
14.7518 15.6561 14.1422 -0.535131 0.632558 -1.36664
12.5497 16.1658 12.3574 -0.69225 -2.10054 -1.46522
14.2976 18.3172 13.1389 -1.37376 1.01641 -1.10387
14.8226 14.651 11.4442 2.65626 -0.889944 1.45485
14.3683 17.3121 10.4409 -0.23314 1.98318 1.31898
18.7725 16.2928 14.0105 0.331595 0.789188 0.70783
16.5704 16.8024 12.2257 -1.37612 0.399905 -0.115716
18.8433 15.2876 11.3125 -1.4441 1.7279 -0.096359
18.3891 17.9487 10.3092 0.726708 -1.27723 -0.810146
21.0454 14.778 13.0973 1.34914 0.0973977 -1.17321
22.7932 16.9294 13.8788 -1.53813 0.243736 -1.20136
20.5911 17.4391 12.094 -1.8873 0.335486 0.485303
22.864 15.9243 11.1808 -1.03797 0.446337 0.445067
25.0661 15.4146 12.9656 -0.758235 2.23461 -0.555045
26.8139 17.566 13.7471 -0.42702 0.263877 -0.592747
24.6119 18.0757 11.9623 0.00335321 0.95517 -0.79407
26.8847 16.5609 11.0491 -1.34258 0.641337 -1.32756
29.0868 16.0512 12.8339 0.662886 -0.544434 0.902771
30.8346 18.2027 13.6154 -2.43118 1.33607 0.46292
8.004 19.1954 14.1838 0.129272 1.56039 -0.328681
9.82263 20.3417 12.2673 1.62761 1.542 0.243775
11.6413 21.488 10.3508 -0.715831 -1.23107 -0.730883
12.0247 19.832 14.0521 0.597989 0.826782 -0.493092
16.0454 20.4687 13.9204 1.27616 0.0839054 -0.0274775
12.0955 18.8269 11.3541 1.88695 -1.59192 -1.587
13.8433 20.9783 12.1356 0.560797 -0.0863027 1.89067
16.1162 19.4635 11.2224 0.90722 -1.96637 -1.24826
15.662 22.1246 10.2191 0.605576 -0.808367 -0.937622
18.3183 18.9539 13.0072 -2.71559 -0.579136 0.438707
20.0661 21.1053 13.7887 0.00359949 2.70631 -0.336397
17.8641 21.615 12.0039 -0.499431 -0.207742 -1.82346
20.1369 20.1002 11.0907 -1.27572 -1.8721 -1.24828
22.339 19.5905 12.8755 0.0572776 0.768494 -0.878586
24.0869 21.7419 13.657 0.913489 1.59748 0.297124
21.8848 22.2516 11.8722 0.83741 -0.0175766 1.88815
22.4098 18.5854 10.1775 1.72287 0.00949245 0.0968905
24.1576 20.7368 10.959 -0.0240104 -2.63684 1.24668
26.3597 20.2271 12.7438 -1.84408 1.72331 0.422614
28.1076 22.3786 13.5253 0.671498 -0.424769 -1.01872
28.6326 18.7123 11.8306 -1.01408 -1.39518 0.919895
26.4305 19.222 10.0458 -1.28218 0.990425 1.59633
28.1783 21.3735 10.8273 0.602377 1.08412 -0.0758698
30.3804 20.8638 12.6121 -0.767302 -0.00121308 0.210234
11.5705 22.4931 13.0488 -1.64024 0.308841 -1.05128
13.3183 24.6445 13.8303 1.40848 -1.74826 1.50302
15.5912 23.1298 12.9171 -0.137734 -0.41475 -0.576508
13.3891 23.6394 11.1323 0.410376 -0.51226 1.42838
15.137 25.7909 11.9138 0.0388003 2.10411 -0.832366
17.3391 25.2812 13.6986 -0.0198109 -0.529893 -0.857664
19.6119 23.7664 12.7854 0.815528 0.741063 0.174849
17.4098 24.2761 11.0006 -1.29325 0.937545 1.89296
19.6827 22.7613 10.0874 1.46507 1.62244 -1.59115
21.3598 25.9178 13.5669 -1.38533 2.5445 0.85121
23.6326 24.403 12.6537 1.30146 0.637903 -0.0466789
21.4305 24.9127 10.8689 1.06864 -0.696122 -0.185327
25.9055 22.8882 11.7405 0.80196 -0.815413 -1.05815
27.6533 25.0397 12.522 0.765427 0.205111 -0.233985
25.4513 25.5493 10.7372 1.32916 -0.0159493 3.42818
32.1283 23.0152 13.3936 0.0256827 0.16471 0.568323
29.9262 23.5249 11.6088 -1.72688 0.451241 0.410695
16.8848 27.9423 12.6953 1.06351 0.664923 0.254863
18.6327 30.0937 13.4768 -0.667577 0.641155 0.454115
19.1577 26.4275 11.7821 0.251932 -0.103468 1.25903
16.9556 26.9372 9.99731 -1.20815 -1.34954 0.139002
18.7035 29.0886 10.7788 -0.48255 2.53586 -0.333974
20.9055 28.5789 12.5636 -0.844037 -0.252743 1.46002
23.1784 27.0641 11.6504 0.419723 -1.5984 0.491828
25.3805 26.5545 13.4352 0.54938 -2.21767 1.37006
15.6602 10.3339 16.1488 -0.490015 0.296571 2.17667
17.9331 8.81912 15.2356 0.952567 -1.47668 -1.61564
20.206 7.30432 14.3224 -1.81136 1.97062 0.448772
17.8623 9.82424 17.9336 0.308739 0.510118 -0.715803
20.1352 8.30945 17.0204 0.858846 0.279992 0.361968
21.9538 9.45576 15.1039 0.581533 2.34382 -2.82403
21.883 10.4609 17.8019 -0.328972 0.197067 -0.111319
22.408 6.79466 16.1072 -1.32001 0.940107 0.844282
24.1559 8.94609 16.8887 0.978182 -1.19259 -0.452421
25.9745 10.0924 14.9722 0.230147 0.900689 1.28463
11.1145 13.3635 17.9752 1.01648 0.518475 1.29099
8.91244 13.8732 16.1904 0.645006 -0.520096 1.92834
11.1853 12.3584 15.2772 0.989671 0.952904 0.0338539
13.3874 11.8487 17.062 -1.17845 0.352494 0.644912
15.1352 14.0001 17.8435 -0.160126 0.230326 1.74145
12.9332 14.5098 16.0587 0.0494693 -0.781523 1.50792
13.4582 10.8436 14.364 1.04174 0.366878 1.03584
15.206 12.995 15.1455 -0.121775 2.26537 0.308163
17.4081 12.4853 16.9303 -0.300755 -0.817395 -0.159223
19.681 10.9706 16.0171 -1.28931 -0.533608 -1.85304
19.2267 13.6317 15.0138 -0.34958 -1.52999 0.41165
21.4288 13.122 16.7986 0.210805 0.791018 -1.03544
23.7017 11.6072 15.8854 0.228231 1.23918 0.544656
23.2474 14.2683 14.8821 0.802721 -0.136138 0.20001
25.4495 13.7586 16.6669 -0.974049 -0.00330786 0.968988
27.7224 12.2438 15.7537 0.256712 -0.147129 0.823674
25.9037 11.0975 17.6702 2.26668 -0.876755 -0.775544
27.6516 13.249 18.4517 -0.00654945 -1.0282 0.691821
29.4702 14.3953 16.5352 0.982411 -0.0917458 0.121996
8.38744 17.5394 17.8851 -0.330524 -0.691138 -1.23925
10.6603 16.0246 16.9719 0.895918 0.0892742 1.10714
8.45822 16.5343 15.1871 -2.86686 0.600634 -1.48072
10.7311 15.0195 14.2739 1.23012 -1.07721 -0.579654
12.4082 18.176 17.7534 3.51524 -0.696503 0.541002
14.681 16.6612 16.8402 0.71101 0.687819 1.23463
12.4789 17.1709 15.0554 -0.470278 1.64361 0.0524398
19.156 14.6368 17.7118 -0.0121785 0.897278 -0.803344
16.9539 15.1464 15.927 -1.08031 -1.23046 1.14032
18.7017 17.2979 16.7085 0.494047 -0.66673 0.839637
16.4996 17.8076 14.9237 2.98321 -0.727614 0.421579
20.9038 16.7882 18.4933 -0.722044 -0.0361461 -1.77523
23.1767 15.2734 17.5801 -1.20043 0.567689 0.52742
20.9746 15.7831 15.7953 -0.0715794 -1.64417 -0.231733
22.7224 17.9345 16.5768 1.48378 2.15612 0.611641
20.5204 18.4442 14.792 0.800559 1.88138 0.634911
24.9245 17.4249 18.3616 -1.19206 -0.542454 -1.23982
27.1974 15.9101 17.4484 1.75426 -0.444073 -0.41099
24.9953 16.4197 15.6636 -0.0731234 -1.21337 -0.760629
27.2682 14.9049 14.7504 -0.790226 0.435822 0.0109332
28.9452 18.0615 18.2299 0.218123 -1.24974 0.65506
31.2181 16.5467 17.3167 0.257057 1.28888 0.600965
29.016 17.0564 15.5319 1.2781 2.01004 -0.525195
31.2889 15.5416 14.6187 0.0302642 1.74718 1.9252
33.0367 17.693 15.4002 0.733613 -0.202399 0.220321
7.93322 20.2005 16.8818 0.747325 -1.23819 0.536791
9.68107 22.3519 17.6633 0.695121 2.03921 -0.417418
10.2061 18.6857 15.9686 1.04264 -0.467579 0.903316
9.75185 21.3468 14.9653 -0.782644 -2.25933 -0.155995
14.156 20.3275 18.5349 0.371008 0.708697 0.52304
11.9539 20.8371 16.7501 0.60402 1.96753 -1.72496
14.2268 19.3223 15.8369 -0.28584 -0.608649 0.441735
15.9746 21.4738 16.6184 -1.63153 0.0775044 -0.93693
13.7726 21.9834 14.8336 1.44597 2.05958 1.2206
16.4289 18.8127 17.6217 1.10016 -0.101952 0.00953045
18.1767 20.9641 18.4032 -0.433637 0.198717 -0.0348027
18.2475 19.959 15.7052 0.398091 0.907334 0.241982
19.9954 22.1104 16.4867 -0.479807 -2.45475 -2.46822
20.4496 19.4493 17.49 -1.1121 -0.551229 0.370679
22.1974 21.6008 18.2715 -0.423731 -0.13323 2.85892
24.4703 20.086 17.3583 -0.130329 -0.946033 -2.03507
22.2682 20.5956 15.5735 -0.903493 -1.80748 0.190093
24.5411 19.0808 14.6603 1.07484 0.832752 -0.378279
26.2182 22.2374 18.1398 -1.37898 -0.756696 -0.770572
26.7432 18.5712 16.4451 0.569751 0.656362 -1.59096
28.491 20.7226 17.2266 -0.956703 -1.24865 1.4719
26.2889 21.2323 15.4418 -2.20502 0.898133 0.455136
28.5618 19.7175 14.5286 0.148473 0.521499 -0.125426
32.966 18.6981 18.0982 1.23913 0.610358 1.10114
30.7639 19.2078 16.3134 -0.0857963 -1.60467 -0.392349
32.5117 21.3592 17.0949 2.155 -1.18264 2.09712
30.3096 21.8689 15.3101 0.942633 -1.15756 -0.247513
32.5825 20.3541 14.3969 -0.726011 1.37118 0.353703
11.4289 24.5034 18.4448 -0.945132 0.585451 -1.22418
11.4997 23.4982 15.7468 1.35878 -0.318643 0.497757
13.7018 22.9886 17.5316 0.50859 0.205677 0.317693
15.4496 25.14 18.3131 -2.54503 0.549062 0.826573
13.2476 25.6497 16.5283 0.632623 -0.17 1.02344
15.5204 24.1349 15.6151 1.5918 -0.937312 0.770195
17.7225 23.6252 17.3999 1.15022 2.40062 -0.607269
19.4704 25.7766 18.1814 -1.47593 -0.0724177 -3.1859
17.2683 26.2863 16.3966 -1.04339 -0.631432 -0.304327
17.7933 22.6201 14.7019 1.05712 1.50616 0.996443
19.5411 24.7715 15.4834 -0.567227 2.55952 0.619937
21.7432 24.2619 17.2682 -0.565601 -0.818185 -0.521399
24.0161 22.7471 16.355 0.291898 0.089997 -0.0918186
21.814 23.2567 14.5702 0.00973478 0.901052 0.701042
23.5618 25.4082 15.3517 0.377572 0.462069 -2.58825
25.7639 24.8985 17.1365 0.287463 -0.506969 -1.27222
28.0368 23.3837 16.2233 0.101885 0.260342 0.577364
25.8347 23.8934 14.4385 1.24106 -0.149776 -0.306073
27.5826 26.0448 15.22 2.50314 -0.36738 0.316806
30.2389 22.874 18.0081 -0.591515 1.58586 -0.821508
29.7846 25.5351 17.0048 0.62889 -0.797418 -0.797304
32.0575 24.0203 16.0916 -0.461783 -0.530336 1.63709
29.8554 24.53 14.3068 4.35901 -0.951064 0.348025
14.9954 27.8011 17.3098 0.0487795 -0.962829 0.709298
15.0662 26.796 14.6118 1.78758 -0.18259 -0.447482
16.7433 29.9525 18.0913 -1.37049 -1.29978 -0.506815
19.0161 28.4377 17.1781 -2.34878 -2.04898 1.17094
16.8141 28.9474 15.3933 -0.203643 0.735029 1.16243
19.0869 27.4326 14.4801 0.126704 1.26023 0.83701
23.4911 26.4133 18.0497 -0.433117 -2.53405 1.17078
21.289 26.923 16.2649 -0.662361 0.484336 1.60504
23.0368 29.0744 17.0464 0.422346 0.603172 -1.28518
20.8348 29.5841 15.2616 -1.16731 -1.06065 -0.507561
23.1076 28.0693 14.3484 0.735772 0.310301 -1.88341
27.5118 27.0499 17.918 1.79362 1.11494 1.53358
25.3097 27.5596 16.1332 0.0780953 0.215121 0.967539
18.5619 31.0989 16.1748 1.37972 -0.620014 -0.981009
20.764 30.5892 17.9596 0.353981 0.0896746 0.0204049
20.0644 9.31457 19.7184 1.09122 0.761632 -1.42867
19.9936 10.3197 22.4164 -0.813714 -0.197595 0.498023
22.3373 7.79978 18.8052 -0.316823 0.322145 -0.592357
24.0851 9.95121 19.5867 0.954717 -0.254765 -0.0748845
22.2665 8.80491 21.5032 -0.0766786 -1.81127 -0.794578
11.0437 14.3686 20.6732 0.297254 0.574582 1.12857
13.3166 12.8538 19.76 0.550108 1.11179 -0.795941
15.5895 11.339 18.8468 1.16765 0.463901 0.501297
13.2458 13.859 22.458 1.42069 0.0952885 -0.742642
15.5187 12.3442 21.5448 -1.14562 -0.458058 -1.1692
17.3373 13.4905 19.6283 -0.408497 2.82099 0.773512
19.6102 11.9757 18.7151 0.216905 0.62412 -2.57464
17.2665 14.4956 22.3263 0.507392 -0.211148 1.55002
17.7915 10.8294 20.6316 -0.149702 0.89883 -0.679584
19.5394 12.9808 21.4131 -0.229495 0.11941 2.01422
21.358 14.1271 19.4966 -2.09838 0.29005 2.03346
23.6309 12.6123 18.5834 0.454716 1.05253 -0.709426
21.8123 11.466 20.4999 -0.531625 -2.99208 -0.389047
23.5601 13.6174 21.2814 0.300169 1.47257 0.462802
24.0143 10.9563 22.2847 -0.904385 1.42108 0.912048
25.833 12.1026 20.3682 1.32788 -0.562504 -0.60375
27.5808 14.2541 21.1497 -1.73306 0.716732 -0.212366
8.84167 14.8783 18.8884 0.441418 0.00108777 -0.172369
10.5895 17.0297 19.6699 -1.00971 0.997909 -0.794689
8.77089 15.8834 21.5864 -1.49144 0.436822 2.13919
10.5187 18.0348 22.3679 1.26226 -0.471894 1.44156
12.8624 15.5149 18.7567 -1.42627 -0.640191 -2.0073
14.6102 17.6664 19.5382 0.0702256 0.321335 1.31537
12.7916 16.5201 21.4547 1.0765 -1.76495 -0.312275
15.0645 15.0053 20.5415 0.810138 0.482742 0.254003
16.8831 16.1516 18.625 1.12873 -0.521133 -1.04149
18.631 18.303 19.4065 0.828903 2.01734 -0.254462
16.8123 17.1567 21.323 0.588087 1.63641 -0.0832378
19.0852 15.6419 20.4098 -1.6671 1.14856 1.48743
20.833 17.7933 21.1913 1.911 -0.440716 -1.1041
23.1059 16.2785 20.2781 -0.395759 1.00997 -1.48599
21.2873 15.1322 22.1946 -0.364051 -1.92683 0.0127351
24.8537 18.43 21.0596 -0.481767 -0.587655 1.84818
25.3787 14.7638 19.3649 -0.586132 0.151899 -1.71562
27.1266 16.9152 20.1464 -0.610181 -2.0714 -0.885846
25.308 15.7689 22.0629 1.90171 1.8997 -0.754903
29.3995 15.4004 19.2332 2.55642 -1.55787 -1.92162
31.1473 17.5518 20.0147 0.776899 -0.00504692 -0.0333138
29.3287 16.4055 21.9312 -0.1178 1.33884 -0.311397
7.79166 22.2107 22.2778 1.12335 0.457366 1.1409
8.31666 18.5445 20.5831 1.09392 1.03293 0.522068
10.0645 20.696 21.3646 1.44713 0.513064 0.638337
7.86244 21.2056 19.5798 -0.323734 -0.541371 -1.3281
10.1353 19.6908 18.6666 -0.373252 -0.0438571 1.00163
11.8832 21.8423 19.4481 -1.15028 -0.431228 -1.34301
12.3374 19.1812 20.4514 1.064 -0.156055 0.918688
14.0852 21.3326 21.2329 0.921602 -0.697941 1.19889
14.5395 18.6715 22.2362 0.924746 -0.904253 2.85743
16.3581 19.8178 20.3197 -0.436739 -1.19317 0.0232805
18.1059 21.9692 21.1012 -2.76189 -1.75553 -0.273799
20.3788 20.4544 20.188 0.755821 -0.88473 1.73362
18.5602 19.3081 22.1045 0.383714 -0.78554 -0.0161805
22.6517 18.9396 19.2748 1.56101 0.111718 -0.888759
24.3995 21.0911 20.0563 0.0912953 -0.200211 -0.410787
22.5809 19.9448 21.9728 -1.17975 -0.0394464 -0.386034
24.3287 22.0962 22.7543 -0.802298 0.634201 1.16541
26.6724 19.5763 19.1431 0.575386 0.236613 1.70855
28.4202 21.7277 19.9246 0.455125 0.639682 1.45051
26.6016 20.5814 21.8411 -0.494625 0.112032 1.5849
30.6931 20.2129 19.0114 0.0455164 -0.113515 -0.485138
32.441 22.3644 19.7929 -0.847554 -0.0840571 1.60205
28.8745 19.0666 20.9279 -0.280182 -1.30629 -0.850579
30.6223 21.2181 21.7094 -0.609145 -2.44227 -1.78516
32.8952 19.7033 20.7962 -0.867585 0.049616 -0.188642
31.0765 18.557 22.7127 -2.20409 -0.307454 1.04655
11.8124 22.8474 22.1461 -1.29192 1.21425 1.01949
9.6103 23.3571 20.3613 0.843752 1.4593 0.070729
11.3582 25.5085 21.1428 -0.243626 -0.424026 0.128992
15.8331 23.484 22.0144 0.00655591 -0.459038 0.536421
13.631 23.9937 20.2296 0.675998 -0.638255 2.40115
15.3789 26.1451 21.0111 0.0713325 -0.3772 -0.449534
15.9039 22.4789 19.3164 1.4911 0.990852 0.484385
17.5809 25.6355 22.7958 2.0971 -0.274048 0.540486
19.8538 24.1207 21.8827 -2.15403 -0.332243 -0.348641
17.6517 24.6303 20.0979 -0.950052 -0.446967 1.9743
19.9246 23.1155 19.1847 1.34801 -1.19041 -2.13899
21.6017 26.2721 22.6641 -1.8154 0.44043 -0.274798
22.1267 22.6059 20.9695 1.6988 -0.609464 -0.0044456
23.8745 24.7573 21.751 2.43059 -1.03584 -0.597024
21.6724 25.267 19.9662 -0.977527 0.0670898 1.30183
23.9453 23.7522 19.053 -0.356908 2.06284 0.0796339
26.1474 23.2425 20.8378 -1.98224 -0.241107 -2.0358
27.8952 25.394 21.6193 -0.521187 0.505921 -2.04549
25.6932 25.9036 19.8345 -0.154982 -0.839011 0.0881761
27.966 24.3888 18.9213 -0.0273493 0.79827 1.25955
28.3495 22.7329 22.6226 1.07895 -0.764639 -0.072582
30.1681 23.8792 20.7061 -0.152841 -0.498647 -0.772958
31.9159 26.0306 21.4876 -1.62673 0.168827 -1.18114
31.9867 25.0255 18.7896 -0.811136 -0.373312 -0.759095
32.3702 23.3695 22.4909 0.258175 1.71202 -0.334496
13.106 27.6599 21.9242 0.63862 -0.867698 1.05546
14.8539 29.8114 22.7057 -1.54736 0.944629 1.44988
13.1768 26.6548 19.2263 -0.757938 -0.254861 0.8922
14.9246 28.8062 20.0077 -0.167132 -1.33526 1.3793
17.1267 28.2966 21.7925 -0.331684 -1.02454 0.814736
19.3996 26.7818 20.8794 -0.699032 0.0461045 0.44889
17.1975 27.2914 19.0946 0.058923 0.193213 -1.55765
18.9454 29.4429 19.876 -1.0789 0.360785 -0.568238
21.1474 28.9332 21.6608 -0.954693 0.229361 0.451396
23.4203 27.4184 20.7476 -0.260029 -1.11576 0.755645
21.2182 27.9281 18.9629 1.28091 0.0824789 1.74845
22.9661 30.0795 19.7443 0.165415 0.553475 -1.01798
25.6224 26.9087 22.5324 0.331999 -1.81102 0.101631
25.1682 29.5699 21.5291 -0.338124 -0.294805 0.151641
27.441 28.0551 20.6159 -1.03208 -0.781204 1.32861
25.2389 28.5647 18.8312 -0.198438 -0.477085 1.0808
29.6431 27.5454 22.4007 -1.39859 -0.424453 -0.786214
29.7139 26.5403 19.7028 -0.0090529 -0.226698 1.89974
18.8746 30.448 22.574 -1.19524 -0.213999 2.07946
16.6725 30.9577 20.7892 -0.846144 -1.26904 -1.13567
18.4204 33.1091 21.5707 1.69786 -0.941899 0.65085
18.4911 32.104 18.8728 -1.75199 -1.09262 0.702279
22.8953 31.0846 22.4423 -0.829322 -2.06189 -0.37818
20.6932 31.5943 20.6575 0.511903 -1.06161 1.04809
22.1957 9.81003 24.2012 0.193263 0.81425 2.06395
15.4479 13.3493 24.2428 -1.83052 1.05969 0.649032
15.3771 14.3544 26.9408 -1.79438 -1.57096 -1.14188
17.7208 11.8345 23.3296 -0.0950359 -0.751383 0.0725307
19.4686 13.9859 24.1111 2.38466 -1.51736 -0.376014
17.65 12.8396 26.0276 -0.144856 -1.22745 -0.46229
19.9228 11.3248 25.1144 -0.26669 -1.82351 -0.103918
21.7415 12.4711 23.1979 0.728653 0.895675 0.294627
21.6707 13.4763 25.8959 2.04535 -0.310152 -1.56174
23.9436 11.9615 24.9827 1.12462 -0.765978 -0.656411
22.1249 10.8152 26.8992 -0.94361 -1.57814 2.15987
25.7622 13.1078 23.0662 -1.01227 -0.624403 0.103711
25.6914 14.1129 25.7642 0.936933 0.495849 -0.344722
8.70011 16.8885 24.2844 -0.317258 0.352565 1.20371
10.973 15.3737 23.3712 -0.326203 0.611949 0.895844
8.62933 17.8937 26.9823 0.570355 -1.2785 -1.01762
10.9022 16.3789 26.0691 -0.355801 -2.02496 -2.19013
12.7208 17.5252 24.1527 0.866519 1.21497 -0.80432
14.9937 16.0104 23.2395 -1.57706 1.40604 1.75031
13.175 14.8641 25.156 -0.834327 0.811077 -1.00804
14.9229 17.0155 25.9374 0.818965 -0.584339 -0.876847
16.7415 18.1618 24.021 -0.0978012 -1.112 0.664806
19.0144 16.647 23.1078 0.109962 0.94318 -1.58724
17.1958 15.5007 25.0243 1.81962 -0.768966 -1.2679
18.9436 17.6522 25.8057 -0.54814 1.22767 1.91041
19.3978 14.9911 26.8091 -1.97746 -1.19086 -0.362006
23.0351 17.2837 22.9761 -0.620297 0.399264 -2.16896
21.2165 16.1374 24.8926 -0.867146 0.486755 0.328056
22.9643 18.2888 25.674 -1.08116 -0.217934 -0.131153
23.4893 14.6226 23.9794 -2.56558 -0.460288 1.29542
23.4186 15.6277 26.6774 0.629285 -0.00715069 -0.387665
27.0558 17.9203 22.8444 -0.613135 -0.762696 -0.150997
25.2372 16.774 24.7609 -0.992853 -0.249812 -0.264612
27.51 15.2592 23.8477 0.977803 0.575359 1.67204
27.4393 16.2643 26.5456 0.588238 0.695331 -0.233304
29.2579 17.4106 24.6292 0.962359 0.310745 1.43155
8.24589 19.5496 23.2811 0.514811 -1.55376 -1.08331
9.99374 21.7011 24.0626 1.06847 0.925104 -0.724947
8.17511 20.5548 25.979 -0.442059 1.57441 -0.589994
10.448 19.04 25.0659 -2.32066 -2.94515 0.40799
12.2666 20.1863 23.1494 -0.817525 -0.317971 0.930091
14.0145 22.3377 23.9309 1.18495 -0.900339 -1.25023
12.1958 21.1914 25.8473 0.630498 -0.818678 0.207694
14.4687 19.6766 24.9342 1.61772 0.55668 -0.294631
12.65 18.5303 26.8506 0.254968 -1.22813 0.261935
16.2873 20.8229 23.0177 -0.413916 -1.35731 0.0224583
20.308 21.4596 22.886 -0.865662 0.263912 -1.78479
16.2165 21.828 25.7156 0.789757 -1.11308 1.33234
18.4894 20.3133 24.8025 -3.15635 -1.20786 0.23095
16.6708 19.1669 26.7189 0.00135505 -0.68315 0.367138
20.7623 18.7985 23.8893 0.99241 -2.41641 -3.04582
22.5101 20.9499 24.6708 -0.1617 0.13778 -1.98316
20.6915 19.8036 26.5872 -0.500587 0.388731 0.709937
24.783 19.4351 23.7576 0.553677 -0.229962 0.637049
26.5308 21.5865 24.5391 2.51175 0.3644 -0.205677
28.8037 20.0717 23.6259 -0.674757 -0.734223 0.294923
24.7122 20.4402 26.4555 -0.576628 2.39294 -1.07455
26.985 18.9254 25.5423 0.550487 1.26289 -0.349755
28.7329 21.0769 26.3238 0.844486 -0.184975 -1.04831
30.5515 22.2232 24.4074 1.9828 -1.3725 -1.66286
32.8244 20.7084 23.4942 0.343545 0.67776 0.718325
31.0058 19.5621 25.4106 -1.10315 -0.702954 0.426137
32.7536 21.7135 26.1921 0.877684 -0.114018 -1.41521
9.53952 24.3622 23.0592 0.940023 0.225281 0.0817184
7.72088 23.2159 24.9757 1.22357 0.071516 -1.69282
9.46874 25.3673 25.7572 1.89786 -1.19686 0.646101
11.7416 23.8525 24.844 -0.482963 0.94908 0.893482
9.92296 22.7062 26.7605 -0.0290742 0.200241 -0.996489
13.5602 24.9988 22.9275 0.000665091 0.617306 0.255675
13.4895 26.0039 25.6255 -0.628004 0.759234 0.701315
15.7623 24.4892 24.7123 0.809362 0.32771 -0.069841
13.9437 23.3428 26.6288 -0.924452 -0.969843 0.489985
18.0352 22.9744 23.7991 0.464427 -0.772295 -0.470205
19.783 25.1258 24.5806 -0.177968 0.418274 -2.15338
17.9644 23.9795 26.4971 -0.990263 0.750715 -0.0016342
20.2373 22.4647 25.5839 -0.785189 -0.781684 0.242312
22.0559 23.611 23.6674 0.07437 -1.74802 -0.987131
23.8037 25.7624 24.4489 -0.907926 0.412075 -0.120909
21.9851 24.6161 26.3654 1.00473 -2.8645 0.50827
24.258 23.1013 25.4522 -1.62481 -0.597142 1.03254
26.0766 24.2476 23.5357 0.253154 0.158445 0.461336
26.0058 25.2528 26.2337 -0.655715 1.30738 1.45924
28.2787 23.738 25.3205 2.27689 -2.27084 -1.54257
30.0973 24.8843 23.404 -0.808687 -2.08584 0.0179642
30.0265 25.8894 26.102 -1.1904 0.299556 1.03204
32.2994 24.3746 25.1888 1.52811 -0.15354 -0.534128
30.4808 23.2283 27.1053 0.278478 2.60795 -1.58724
11.2874 26.5136 23.8407 1.8745 -0.71406 -0.23261
11.2166 27.5187 26.5387 -0.82898 -0.0913016 1.25114
13.0352 28.665 24.6222 -0.139921 1.66993 -1.47239
15.3081 27.1503 23.709 -1.37487 -0.307726 0.538117
15.2373 28.1554 26.407 0.0834511 -0.40758 0.445454
17.0559 29.3017 24.4905 0.857424 -0.17749 -0.117538
19.3288 27.7869 23.5773 0.906596 0.549305 -0.933434
17.5102 26.6406 25.4938 -0.289502 -1.14168 -0.483013
19.258 28.792 26.2753 0.072932 0.870832 -0.0781136
21.0767 29.9383 24.3588 -0.750883 2.14672 -2.44019
23.3495 28.4235 23.4456 -1.70479 -1.10039 1.11383
21.5309 27.2772 25.3621 -0.196372 -0.568042 0.410606
23.2787 29.4287 26.1436 0.10842 -0.309837 -0.603127
27.3702 29.0602 23.3139 1.09621 1.6545 -1.95227
25.5516 27.9139 25.2304 2.15673 1.12645 1.2959
27.2995 30.0653 26.0119 0.795458 -1.7342 0.0920639
27.8245 26.3991 24.3172 1.92073 -0.380059 -0.999091
27.7537 27.4042 27.0152 -0.386788 -0.324056 0.32785
29.5723 28.5505 25.0987 0.961497 0.5106 -1.19155
31.8452 27.0357 24.1855 -0.142811 2.45014 -1.3372
14.7831 30.8165 25.4037 -1.62607 1.38033 0.442043
16.5309 32.9679 26.1852 0.494089 0.555195 -1.04286
18.8038 31.4531 25.272 0.802218 0.0614264 0.554535
16.6017 31.9628 23.4872 -0.546794 1.47754 -0.545939
18.3496 34.1142 24.2687 0.655185 0.260267 -1.32584
20.5517 33.6046 26.0535 0.128532 -0.114857 1.10105
22.8245 32.0898 25.1403 -0.582631 0.083991 -0.267237
20.6224 32.5994 23.3555 -0.221793 1.44731 1.0177
21.0059 30.9435 27.0568 1.47379 -0.865906 -2.61963
25.0974 30.575 24.2271 1.16445 -0.328796 0.220359
25.0266 31.5801 26.9251 -0.222748 -0.0411094 -0.522582
17.5792 13.8447 28.7255 0.358174 2.65756 -0.38851
19.8521 12.3299 27.8124 2.09171 -0.882167 0.214429
19.7813 13.3351 30.5103 0.0581566 0.111632 -0.776509
21.5999 14.4814 28.5938 1.83272 0.729442 0.511467
23.8728 12.9666 27.6807 -0.844757 0.36143 -0.412818
22.0541 11.8203 29.5971 0.019962 1.09574 0.880499
23.802 13.9717 30.3786 -0.984763 -2.03263 -0.40872
10.8314 17.384 28.7671 -0.46797 0.389371 -0.437263
13.1043 15.8692 27.8539 -0.0243258 -1.04252 0.408677
14.8521 18.0206 28.6354 -1.40874 0.911293 -0.0581915
13.0335 16.8743 30.5519 1.12313 1.25255 1.12405
15.3064 15.3595 29.6387 -0.101988 -0.0863234 3.20073
17.125 16.5058 27.7222 -0.383862 -1.45669 -0.576173
17.0542 17.511 30.4202 0.295737 1.25269 -1.0943
19.3271 15.9962 29.507 0.805587 0.106032 1.62737
21.1457 17.1425 27.5905 -2.60974 0.178746 -0.311126
21.0749 18.1476 30.2885 1.30848 -0.075564 0.113199
23.3478 16.6328 29.3753 -0.73884 -2.42205 2.90414
21.5291 15.4865 31.2918 -2.33118 1.88188 -1.2029
25.1664 17.7791 27.4588 1.62795 -0.324526 0.473065
25.6206 15.118 28.4621 2.36196 -1.19665 0.976324
27.3685 17.2695 29.2436 -1.83297 0.753525 0.0953186
25.5499 16.1232 31.1601 -0.257941 0.443154 1.38582
29.1871 18.4158 27.3271 -0.519655 -1.07583 -1.49497
10.3772 20.0451 27.7638 -0.961075 3.15695 -2.36633
12.125 22.1965 28.5453 -0.0718964 0.25204 -2.04169
14.3979 20.6817 27.6321 0.544128 1.52968 0.0997884
12.5793 19.5354 29.5486 0.268733 0.433825 -0.374384
14.3271 21.6869 30.3301 0.910424 -0.621775 -0.598394
14.7813 19.0258 31.3334 0.600353 0.459932 -0.721054
18.4186 21.3184 27.5004 -0.0574544 -1.3107 0.56324
16.6 20.1721 29.4169 -0.350489 -0.0752955 0.603842
18.3478 22.3235 30.1984 1.91116 1.18432 -1.16224
18.8728 18.6573 28.5037 0.112025 -0.73886 0.0147255
18.8021 19.6624 31.2017 -0.782708 0.129705 -1.13472
22.4393 21.955 27.3687 -1.78973 -2.26249 1.6616
20.6207 20.8087 29.2852 0.465399 -1.03462 -2.74441
22.8936 19.2939 28.372 -0.863285 1.89273 -1.27852
22.8228 20.299 31.07 0.826078 0.785208 1.65301
24.6414 21.4454 29.1535 0.186305 0.140148 -0.959124
26.9143 19.9306 28.2403 1.80845 -0.465609 0.383257
28.6621 22.082 29.0218 1.25673 -1.29176 -0.21159
25.0956 18.7843 30.1568 -3.30269 0.241803 -1.21084
26.8435 20.9357 30.9383 -0.402245 0.166572 0.734315
30.935 20.5672 28.1086 -0.00463049 -0.404306 -0.476037
29.1163 19.4209 30.0251 -0.306183 -0.0107572 -0.59761
11.6708 24.8576 27.542 0.612087 -0.17246 1.71022
15.6915 25.4943 27.4103 -0.60199 -3.47954 -2.752
13.8729 24.348 29.3268 -1.01101 -0.978605 0.493235
16.1458 22.8332 28.4136 -1.0468 -0.0166428 -1.59176
16.075 23.8383 31.1116 -1.89207 0.178793 -0.44833
19.7122 26.1309 27.2786 -1.42393 -2.274 -1.4306
17.8936 24.9846 29.1951 -1.05429 1.44776 -0.504159
20.1665 23.4698 28.2819 -0.426879 -1.90652 -0.736172
20.0957 24.4749 30.9799 -0.571873 1.54571 0.724661
21.9143 25.6213 29.0634 0.222236 0.0957777 0.309748
24.1872 24.1065 28.1502 -0.0834786 -0.403453 1.80419
22.3686 22.9602 30.0667 1.30656 0.606136 -0.275908
24.1164 25.1116 30.8482 -0.448327 2.72686 0.263405
25.935 26.2579 28.9317 0.308661 -2.55782 -0.229569
26.46 22.5917 27.237 1.20163 1.33339 1.41976
28.2079 24.7431 28.0185 1.24649 1.31288 0.322247
26.3893 23.5968 29.935 -0.936416 -0.396435 -1.91225
12.9645 29.6702 27.3202 -1.19763 0.271839 0.38557
13.4187 27.0091 28.3235 0.0797009 1.23711 2.14395
15.1665 29.1605 29.105 -0.921007 1.92814 0.531854
15.6208 26.4994 30.1083 -0.333726 -0.0585903 -0.910663
17.4394 27.6457 28.1918 -2.61839 -0.167013 -1.73966
19.1872 29.7971 28.9733 1.58682 -0.110575 -1.62454
17.3686 28.6508 30.8898 0.132515 -0.982327 1.49688
19.6415 27.136 29.9766 0.940835 0.779668 1.35103
21.4601 28.2824 28.0601 0.39582 0.703245 -0.533258
23.733 26.7676 27.1469 -0.719686 0.421662 1.88934
21.3893 29.2875 30.7581 2.32025 -0.151571 -0.0891927
23.6622 27.7727 29.8449 -1.73551 -0.6247 0.488657
25.4808 28.919 27.9284 0.907469 0.0807853 0.304408
14.7123 31.8216 28.1017 -0.249279 -0.170428 -0.229806
16.9852 30.3068 27.1885 0.0244589 -1.40329 -1.01368
18.733 32.4582 27.97 1.14394 1.2709 -0.20568
16.9144 31.3119 29.8865 1.33775 -0.0810646 -0.418408
22.7537 33.0949 27.8383 -1.61115 0.742535 2.77762
20.9351 31.9486 29.7548 -1.10596 -0.610938 0.567184
23.208 30.4338 28.8416 -0.525626 0.675454 -0.3797
19.7105 14.3402 33.2083 -0.148912 0.606925 -1.19646
21.9834 12.8254 32.2951 -0.126665 1.36987 -0.87489
15.2356 16.3647 32.3367 -0.929507 -0.9082 -0.784678
17.5084 14.8499 31.4235 0.566463 1.69689 -0.525597
19.2563 17.0013 32.205 1.775 -1.55042 -1.00759
17.4377 15.855 34.1215 0.63373 -1.91918 -0.623274
19.1855 18.0064 34.903 0.880918 -0.252393 -1.09073
23.277 17.6379 32.0733 0.0601267 -0.650491 -1.46798
21.4584 16.4916 33.9898 -1.64742 1.13806 0.879702
23.7312 14.9768 33.0766 0.589348 0.391119 -0.796192
27.2977 18.2746 31.9416 -0.927913 0.121175 -2.04477
25.4791 17.1283 33.8581 -2.10428 2.18997 0.493956
16.5292 21.1772 32.1149 0.470212 2.56462 -1.17311
16.9834 18.5161 33.1182 -0.14766 0.816081 1.86188