ITEM: TIMESTEP
0
ITEM: NUMBER OF ATOMS
64
ITEM: BOX BOUNDS ss ss ss
8.8095167498587159e+00 3.1500408702575925e+01
1.3687713616333863e+01 3.0932172404500921e+01
1.2678843154791798e+01 2.9733153897723728e+01
ITEM: ATOMS x y z vx vy vz
21.6614 17.3776 16.6506 1.07642 -1.65365 -1.61785
23.6969 19.2375 16.4059 -1.35362 1.19394 1.10496
22.9789 21.7289 15.5564 1.15454 -0.510749 0.469913
21.1132 20.0376 16.7341 0.483078 0.480457 1.78162
26.5316 22.0378 12.6829 0.375475 -0.0127484 -0.275064
25.4215 21.3728 16.8653 -0.660974 -0.00456413 -0.0777317
25.1504 20.4557 14.3458 -1.9398 0.357366 -0.123941
27.5307 21.7206 15.0585 -1.75223 0.10176 -0.968416
25.0664 23.1846 14.5864 1.01138 -0.217058 0.938007
27.5166 24.2869 13.9669 2.05634 -0.322309 0.618186
25.3843 25.7957 15.407 -2.411 -0.424368 -0.288135
26.9065 23.7648 16.7051 0.169607 1.28694 0.633669
29.4576 24.0189 15.8433 1.83431 -0.699874 -0.281712
29.7538 26.0083 13.9825 -1.39186 0.435858 0.56052
30.6076 26.3243 16.649 0.190476 -1.86292 0.228709
27.9057 26.5452 15.9447 1.69112 -0.480761 -0.329868
25.6719 28.1323 16.9399 0.598441 -0.973922 1.85308
26.8744 29.0699 14.7869 -0.535474 -0.864693 -0.230253
27.158 26.8509 13.3331 0.421848 0.181947 1.9051
28.7446 30.9281 14.9767 0.213552 0.569157 -1.08292
29.2345 28.6553 13.5843 -0.121704 -0.14875 1.23467
29.564 28.8136 16.336 0.926895 1.72464 -1.90051
31.4963 27.8967 14.7195 0.031511 0.912405 -1.11615
18.382 16.5676 19.951 -1.68907 -1.37503 1.45423
19.499 14.1317 19.6119 -0.586636 -0.200149 -1.65327
21.099 16.1543 19.0638 1.6088 0.434631 0.72019
18.2366 19.2665 20.415 -0.126447 1.5596 -1.41095
19.6075 18.2769 18.1907 0.151392 -0.405348 -0.194524
22.4578 18.6431 18.8233 0.92381 -0.303617 0.0360075
23.0106 21.3045 18.2102 0.91316 0.460463 -0.825645
20.562 20.4857 19.3962 -0.45274 -1.37988 0.118343
20.6642 18.141 20.8513 0.707441 2.34473 -2.82508
24.1921 23.7873 17.0977 0.873487 0.181137 0.055776
26.0295 25.8245 18.1393 -2.20007 -0.307406 -1.98111
28.7151 25.2192 18.218 1.52638 0.149199 -0.866683
27.4151 30.1923 17.1726 0.892292 1.12252 0.382342
27.9784 27.822 18.3652 -1.63237 -0.301579 0.55764
9.58038 17.3366 25.2924 -1.36349 -0.984296 -1.96095
11.4453 15.6849 24.3124 1.03067 1.80526 -0.0340827
13.9255 16.7581 23.531 -0.673038 1.95453 -2.25307
13.6382 14.6424 25.4024 0.265807 0.108006 1.54457
16.1785 16.6754 21.703 0.114006 0.728706 -0.668917
15.6863 14.665 23.4703 -1.05643 -0.79992 -1.01121
18.2685 15.3083 23.9477 -1.56145 1.27887 0.66443
16.5042 17.337 24.4166 0.117966 -0.668636 0.730593
17.6744 14.4014 21.5178 1.23453 0.396776 1.41902
18.6123 17.6465 22.6004 1.286 -0.685524 -0.967836
20.1642 15.537 21.7579 0.127601 0.523851 0.403287
12.0704 18.2815 24.9406 -0.958767 0.789808 -0.741843
14.559 19.2822 24.474 2.61753 -1.34863 -0.345145
16.3832 19.218 22.4407 -1.40169 -0.711177 -0.465123
11.9803 13.6918 27.4171 1.38846 0.241562 1.31973
12.3478 15.2182 29.7291 -2.68095 -2.07852 -0.0432917
8.8136 16.8633 27.7407 -0.00188806 -0.0725829 1.99402
10.679 17.2859 29.5831 1.9412 -0.935516 0.289072
9.91564 14.7157 28.8338 -0.279764 0.0406197 2.44705
9.69056 14.7364 26.1647 -1.13353 -0.873777 -1.71189
11.7105 16.3257 27.0458 -0.831829 -0.289321 1.30241
13.2472 17.6669 28.812 0.966417 -0.190615 0.856395
14.3003 15.123 27.9824 1.15805 -0.926325 1.42675
16.2546 15.1743 26.0311 -1.05538 0.410679 0.793767
14.3676 17.219 26.2701 -0.0125697 -0.793487 -0.430462
10.7341 18.8323 27.3585 -0.433779 0.18554 -1.76995
13.2727 19.5927 26.9378 -1.78147 1.84674 0.609546
ITEM: TIMESTEP
1000
ITEM: NUMBER OF ATOMS
64
ITEM: BOX BOUNDS ss ss ss
9.0694303590767884e+00 3.1043569238272006e+01
1.3800410273103724e+01 3.0329702841343174e+01
1.2830172521228546e+01 2.9693273873826403e+01
ITEM: ATOMS x y z vx vy vz
21.6204 17.697 17.1683 1.19751 1.46169 1.67619
23.584 19.3527 17.0566 -1.21222 0.355627 -0.048537
22.7681 21.9149 15.8748 -0.437042 0.0159673 0.948166
20.9075 20.5696 17.0756 -0.397368 0.948681 0.624251
26.0427 21.671 13.0979 -0.192573 -1.79276 1.3431
25.3005 21.5746 17.2878 -1.05905 0.713308 -0.172003
24.8989 20.3489 14.9748 -1.12642 -0.174656 1.73435
27.3007 21.566 15.3433 -0.394813 -0.674135 -0.368666
24.7893 23.1925 14.8394 -0.65139 -0.907487 -0.760348
27.3226 23.9077 13.988 0.612457 -1.25345 -0.376025
25.1449 25.78 15.6165 -3.55839 -0.530452 0.756984
26.6819 23.6827 16.6194 -0.50461 -2.5723 -0.114462
29.2205 23.7011 15.7882 -1.04556 -0.784776 -0.719419
29.5252 25.6055 13.979 0.101877 0.427127 0.840556
30.4107 25.9805 16.4802 0.662531 0.319344 0.762677
27.7009 26.3158 16.0046 -1.22535 -1.23455 0.464915
25.4743 27.5694 17.4277 -0.38546 0.265757 1.06916
26.1662 28.4949 15.0511 0.0685457 -0.0683049 0.138006
26.6275 26.2876 13.5185 0.505096 -1.08766 -1.49686
27.999 30.2763 14.9969 -1.74789 0.71657 0.924357
28.5825 28.0084 13.6473 0.0360259 -0.872186 -0.284441
29.6064 28.4669 16.4011 0.386498 0.162713 0.83961
31.2197 27.3922 14.5865 -0.0500005 -1.71385 -2.26143
18.5342 16.8234 19.8585 1.00227 0.223771 -0.198705
19.6521 14.4111 20.1761 1.23894 1.01814 1.30909
21.1259 16.4472 19.4131 -0.613441 0.920542 -1.10875
18.0247 19.4029 20.3616 -0.526668 0.191398 0.25397
19.5457 18.6093 18.2949 0.798782 -0.285634 -0.108522
22.4839 19.1867 19.3621 0.117444 -0.364273 -0.252414
22.8424 21.6516 18.4527 0.00332889 -0.104397 -0.177167
20.3396 20.9384 19.582 -0.285324 1.44672 0.247844
20.5589 18.5489 21.0099 -0.364843 0.0181454 0.989225
24.0468 23.9794 17.3951 -0.228106 -1.18503 1.02064
26.0908 25.3538 18.4629 -1.04394 0.0211862 0.160425
28.7327 24.8537 18.1817 0.148278 -1.12885 0.765806
27.3731 29.4546 17.2409 -1.3613 0.15492 1.37295
27.9895 27.265 18.5294 0.74698 -0.443182 0.620768
10.4561 16.7953 24.7925 2.07664 -1.49077 -0.0373605
12.7642 15.8266 23.9956 0.740786 0.854357 -2.115
14.1637 17.9045 22.8611 1.87429 1.33466 -1.38177
13.9504 14.3442 25.5418 -1.2662 -1.0795 1.2441
16.3907 17.1946 21.3789 -0.101597 1.5764 0.617343
15.1504 15.3516 23.1142 0.606334 0.0487115 -0.543052
18.0494 15.5253 23.4762 0.0708176 0.493014 -0.452478
16.5253 17.6823 24.1779 -0.372974 0.952359 1.46507
17.1957 14.6467 21.3826 -0.997855 -0.310899 -1.46389
18.5288 18.1972 22.5858 0.861864 0.464105 -0.751866
20.1179 16.0856 22.0104 -0.363188 0.0387454 0.195022
12.2144 18.5362 24.453 0.188094 0.30221 0.278132
14.7952 19.8759 24.477 -0.166846 1.64048 0.666388
16.3832 19.7431 22.4105 -0.604473 2.67311 1.38135
12.51 13.5526 27.6007 1.11949 -0.255076 -0.979932
12.7282 15.224 29.4783 -0.181198 0.882977 -1.60956
9.36959 16.6766 27.1247 0.282179 -1.25169 -0.660884
11.0236 17.2133 29.1047 0.556448 -0.215364 -1.80699
10.3622 14.539 28.3191 0.99109 0.337101 -0.0897817
10.5888 14.3639 25.7983 1.47461 -0.304729 0.315805
12.2889 16.2072 26.8064 1.23162 -1.24505 0.492621
13.571 17.6933 28.7887 -0.753927 -0.0335089 0.63554
14.6949 15.3906 27.7494 0.739551 -0.696404 -2.07642
16.3189 15.1799 25.5772 0.145126 0.756756 -1.37138
14.4556 17.2642 25.5741 1.31854 1.67041 0.639595
11.0807 18.6459 26.8705 -0.0506565 -0.927458 -1.12396
13.3677 19.3382 26.6859 1.36664 1.58138 -1.88193
ITEM: TIMESTEP
2000
ITEM: NUMBER OF ATOMS
64
ITEM: BOX BOUNDS ss ss ss
9.5330104963492630e+00 3.0655687750691808e+01
1.3436167688628524e+01 2.9818339254840193e+01
1.2901668464660503e+01 2.8960684490140945e+01
ITEM: ATOMS x y z vx vy vz
23.2578 19.0571 16.3332 -2.1308 -0.641166 0.281143
26.1501 21.7508 12.6453 1.12012 1.74235 -0.352473
24.6565 20.4881 14.3675 0.415338 -2.0572 -1.58742
27.0858 21.0609 14.9213 -2.04517 0.461062 -1.68315
22.6618 21.7256 15.6747 -1.05958 -1.74461 -0.413368
24.8569 23.0639 14.5986 0.443392 0.753247 -0.202699
24.6191 25.6033 16.0668 0.713545 -2.02036 1.1812
27.6727 23.3261 13.7257 1.90373 -0.394567 0.522107
26.6976 23.3606 16.589 -0.538926 -0.952084 -1.48396
29.1768 23.2646 16.0614 0.376739 -0.755868 -0.540722
29.4754 25.3007 14.3389 0.569802 -0.84344 0.431055
30.2287 25.8581 16.7298 -0.749188 0.393574 -0.274554
26.1852 25.3484 14.0657 0.477086 0.36317 0.524871
25.7196 27.8172 15.2115 -0.715753 0.0832777 -0.107855
27.435 26.0245 16.4406 0.589933 0.567235 -0.430568
27.6738 29.7127 14.979 -1.14927 1.66122 -1.80792
28.0234 27.5354 13.9648 -2.87491 0.200245 -0.447576
29.0989 28.3018 16.6753 0.603694 -0.781294 2.44273
30.4538 27.6903 14.6154 0.708928 0.489869 1.0833
17.083 15.4784 21.0655 -0.672917 -0.270508 0.864366
18.9564 17.3866 20.6086 2.21351 0.391157 0.971911
19.603 14.8228 21.4369 1.32019 0.0404591 -0.430388
21.2077 16.6149 19.7768 0.233842 -0.772975 0.540379
21.444 17.492 17.0787 0.248188 0.803743 -0.293751
20.7903 20.232 16.8491 0.529029 -0.62016 0.169061
18.4461 20.1643 20.8114 0.55039 1.22934 -0.153873
19.4784 18.8932 18.6208 -0.0848125 0.398752 -0.749221
20.5245 21.2463 19.3751 -0.600897 -0.42508 -0.311397
25.1399 21.162 16.8255 1.49241 -0.200612 0.0555486
22.331 18.9176 19.0468 -0.176295 0.784695 -0.265656
22.9341 21.2297 18.3256 1.24581 -1.32634 -0.251819
23.8915 23.4763 17.5371 -0.282809 -1.42764 0.0357341
26.084 24.8596 18.685 0.901595 1.09521 -0.955268
28.6578 24.4865 18.4926 -0.678642 0.217224 1.38194
25.1727 27.1456 17.9369 -1.42275 -0.507689 -0.682997
26.7241 29.0197 17.4263 0.989948 -2.12207 1.03369
27.9848 27.0337 18.8418 -0.195833 -0.132743 -0.0691412
10.3334 16.6919 24.5921 0.880923 -0.521067 -1.97955
12.7057 16.4999 23.3094 -0.0510393 0.354317 -1.09106
14.0859 14.7967 24.7083 0.533187 0.634935 -2.08001
16.6887 18.2423 21.4805 0.128631 0.55005 0.780663
15.4577 16.3068 22.9704 -0.788521 0.433022 0.0214862
18.2012 16.2971 23.2229 0.862952 2.29404 -1.30036
20.7544 17.028 22.5086 -0.732917 0.926988 1.06914
11.9278 18.7175 24.7062 1.00637 -0.58644 0.670052
14.3012 18.7164 22.8709 -0.437255 0.344927 0.843096
16.7537 18.347 24.5268 0.11541 2.91234 0.354435
14.7944 20.2765 24.8048 -1.92727 0.359413 1.14939
16.8217 20.4409 22.9456 0.0578792 1.12971 0.680025
20.9902 19.2015 21.0786 0.233923 -0.0789091 0.21013
18.9337 18.8995 23.148 -0.595106 1.50595 -0.198198
13.606 13.5987 26.9406 0.555677 0.0122183 -0.530199
13.2076 15.005 29.1315 -0.280832 -1.00557 1.69197
9.48259 15.7776 26.9336 1.00548 -1.13872 0.976687
10.9298 16.1969 28.9862 -1.20004 -0.954867 -1.04476
11.2298 13.8493 27.5582 -0.650008 0.666774 1.14573
11.2803 14.1 24.9462 0.285369 -0.643003 -2.31757
12.2635 16.1202 26.3099 -0.75807 0.184506 1.12547
14.8874 15.7246 27.4565 -1.41009 -0.748196 -0.467358
16.5155 15.6059 25.4981 -1.36806 0.772018 0.257659
14.4988 17.6156 25.4044 -0.695438 1.48145 -0.0877332
13.1801 17.6372 28.568 0.630258 -0.116143 0.478769
10.749 18.1513 27.0085 0.987485 -0.605685 0.721718
13.1179 19.4846 26.9201 1.34244 -1.84347 0.89711
ITEM: TIMESTEP
3000
ITEM: NUMBER OF ATOMS
64
ITEM: BOX BOUNDS ss ss ss
9.4630122333769666e+00 3.0316377335843281e+01
1.3177165652513045e+01 2.9278756655318862e+01
1.2535700077101447e+01 2.8915453709298603e+01
ITEM: ATOMS x y z vx vy vz
23.7158 19.1969 16.6919 -0.241594 1.65075 0.496242
24.8266 20.431 14.4158 1.13073 -0.0353579 0.0599209
25.3043 21.6283 16.755 0.906243 3.22859 2.33667
27.3011 20.9925 14.7344 -1.1244 0.126988 -0.0220409
22.7999 21.5809 15.5122 0.527449 -0.758488 -1.12399
24.7303 23.0717 14.2733 0.820921 1.42277 -1.29301
26.3197 22.061 12.5425 0.134029 -2.12402 2.72782
28.6939 22.8509 13.6613 0.821345 1.71649 -0.0140955
27.0189 23.4932 15.7243 1.13429 1.18738 1.85183
29.6928 23.417 16.0531 -0.951598 -1.69591 -0.435572
26.9442 24.72 13.3774 1.60095 1.30831 -1.8248
25.1618 25.6335 15.3313 1.25022 2.24391 1.12499
25.332 28.2624 15.56 0.390849 0.569464 -0.477818
29.2925 25.469 14.3869 2.09558 -0.132728 0.645504
27.5523 26.1959 16.3239 -2.39626 -0.892433 1.47892
27.7944 29.2728 15.3936 -0.274748 -1.87184 -0.9464
27.3342 27.3293 13.9319 -0.798374 -0.945585 0.600766
30.036 27.9042 14.8732 -0.681133 -2.22496 -2.15096
21.431 16.9195 19.9049 1.52584 1.14699 0.340392
21.6361 17.3756 17.3818 1.52421 0.717245 -0.290798
21.0496 19.8837 16.5954 0.522739 -1.43839 0.304423
19.5893 18.6623 18.4138 0.23336 0.898544 -0.430463
20.3497 21.1081 18.8241 -1.80228 -0.735883 0.169905
22.357 19.1837 19.1344 -0.273694 1.98358 -1.09684
22.8151 21.5678 18.1883 -1.12942 2.63716 -0.394176
23.6348 23.7655 16.6662 -0.875825 2.39927 -1.75018
25.816 24.5463 18.1398 0.0141345 -2.58582 -1.16716
28.4179 24.4559 18.2105 -0.970225 0.510812 -0.353382
24.9658 26.8108 17.6962 -0.593093 -3.231 0.430973
30.3111 25.7857 16.8346 -1.24779 1.18685 -2.48632
29.2609 28.2225 17.3555 0.67897 -0.416468 1.17652
26.6654 28.7555 17.5856 -0.572783 -0.670222 0.769964
27.5849 26.7391 18.9499 0.148925 0.224655 -0.573281
10.4121 16.9942 24.5773 2.13928 0.0297347 -0.0780093
12.7954 16.7568 23.5497 -0.034521 0.260558 1.38767
17.3591 15.4641 21.3732 -0.30172 1.00788 0.156633
15.4983 16.5036 23.3701 -0.666748 0.114129 -0.528384
19.76 15.1767 21.7777 1.69213 0.23908 -0.571556
18.3527 16.6223 23.5832 -1.30271 -0.517165 -0.674474
12.3903 18.8824 25.2365 0.707431 -0.852601 -0.0939014
16.5596 18.0728 21.6608 0.432759 0.490232 0.360508
14.4351 19.0712 23.35 0.511148 0.794615 0.906362
16.5958 18.61 24.7117 -0.606694 0.0395188 -0.395939
16.4264 20.5551 22.8232 -1.25266 -1.78729 0.854177
18.9134 17.45 20.5952 1.0391 -2.51657 -0.286502
17.8488 19.9572 20.3651 -0.0635152 -1.15616 0.312434
20.7831 17.4995 22.4738 -0.268894 -0.838226 0.272151
20.5838 19.6264 21.0371 -1.66632 -0.724554 -0.60734
18.7295 19.2719 22.997 2.13742 -0.308611 0.558948
12.9991 13.1808 26.4424 -0.33645 -0.481854 -0.686775
12.5565 14.3325 28.8889 0.755735 0.901652 0.022944
9.46682 15.8303 26.6863 -0.279012 -0.293312 1.91829
10.5977 15.9243 28.9109 -1.27812 -0.151687 -0.42989
10.5995 13.7005 26.9931 -3.09588 0.951102 -1.04519
11.272 14.5784 24.44 -0.458686 -0.731272 0.366218
12.3013 15.9809 26.4843 -0.795844 0.235512 0.430567
13.1819 17.078 28.7145 0.900706 -1.15696 0.00338532
14.1918 14.7372 24.8992 0.804738 0.00565097 0.172323
14.7711 15.0458 27.5369 -1.63689 0.460752 -0.88625
16.6419 15.9967 25.7278 1.03349 0.0135984 -0.105232
10.9766 18.0105 27.22 -0.081911 1.23437 -0.222033
13.3417 19.4668 27.6279 0.727294 0.903042 0.0590612
14.6943 20.2216 25.6664 -0.0347688 -0.705967 0.843284
14.5091 17.3892 26.1366 -0.247487 -0.859867 0.302985
ITEM: TIMESTEP
4000
ITEM: NUMBER OF ATOMS
64
ITEM: BOX BOUNDS ss ss ss
9.5428235600639564e+00 3.0127745439103872e+01
1.3316804599390775e+01 2.9135310792776579e+01
1.2938612615624338e+01 2.9052906683871598e+01
ITEM: ATOMS x y z vx vy vz
21.268 20.9262 17.1696 1.16797 0.109835 2.52572
23.652 20.0767 17.0142 0.0563215 2.71768 0.713422
25.2659 21.0743 15.0587 0.0924819 0.0537236 -0.602779
25.3799 22.0191 17.5424 1.8086 1.80792 -0.512041
22.8173 21.6498 15.075 0.708918 -1.44499 0.0733979
24.4593 23.2282 13.4547 -0.0425233 0.0953598 0.698849
23.6816 23.7463 15.9183 -0.0226208 -1.73187 0.344212
27.8697 21.3559 15.7402 -2.91534 -0.630003 -1.96941
26.5483 21.9109 12.9386 -1.55719 2.05011 -1.78445
28.6898 22.7714 13.7255 1.21835 -1.48596 -0.686625
26.3656 23.7549 15.2006 1.04843 1.2836 0.200471
29.8624 23.0895 16.397 -0.677947 0.160809 0.513715
27.2438 24.8264 12.7964 0.562806 -1.05518 0.211051
29.0947 24.9883 14.8111 -0.294749 -0.695361 1.46269
25.0331 25.8386 14.2787 -1.59418 0.924025 -1.41894
25.4905 28.4116 15.2877 -0.653993 1.03188 -0.0702934
27.0533 26.284 16.0984 -0.608744 -0.244227 -0.0209962
27.8598 29.1577 15.3748 -0.49881 0.904037 -1.61432
27.5514 27.2361 13.6938 0.791322 -2.14842 0.411941
29.9084 27.3752 15.4972 0.631131 -1.09369 2.23955
29.7548 25.5335 17.4775 -0.372455 1.01202 0.581622
21.7641 17.4631 20.4674 0.120655 0.458833 -1.30969
19.867 19.2663 18.8871 0.276208 1.43827 0.784743
20.4435 21.6082 19.8808 2.32247 -0.0652865 0.75137
19.2112 17.4848 20.714 1.58568 -0.187021 1.5542
18.4015 20.1663 20.7677 -0.0366867 -0.912142 0.0878561
21.5681 18.1495 17.6496 -2.00985 2.7986 -1.49172
22.4621 20.072 19.4576 0.528797 0.757428 0.679032
23.0546 22.5455 18.2566 1.99476 -2.08816 1.74315
25.2363 24.7625 17.8056 -0.28027 1.55687 -1.46892
27.6022 23.4506 17.4575 -0.110716 -3.72574 2.0184
24.0818 26.6202 16.4386 -0.849974 -1.0109 -0.978937
28.9388 28.0276 17.5572 -1.10589 0.612213 0.533226
26.1367 27.7664 17.9052 -1.4057 -2.69118 -0.545371
27.5967 25.7597 18.8716 -2.07639 -0.15127 1.08775
12.5339 16.3218 23.6949 -0.76522 0.0407485 0.431593
10.8906 14.4895 25.0573 -0.887974 0.03331 -0.153738
17.4336 15.2386 20.9284 0.286622 1.40219 -0.42603
15.3895 15.8983 22.5741 0.999804 -1.06167 -0.648956
20.2806 15.2489 21.5307 0.335059 0.951954 -0.38289
18.2309 15.979 23.1212 0.178871 -0.521616 1.26208
16.6693 17.9735 21.5197 -1.99728 -1.44557 -0.0442048
14.4382 18.4401 22.911 0.423571 -0.0158511 -0.489178
16.8113 17.8041 24.4577 -1.66351 -1.28392 -1.21365
16.6475 20.1582 22.9526 0.103575 -0.825047 0.0225307
20.8307 17.1706 22.9894 -0.192796 -1.80558 0.140192
20.9355 19.7219 21.6712 1.56418 1.23349 0.436067
18.8462 18.8418 23.1517 -1.02857 0.063606 0.00102611
12.6167 13.2373 26.837 0.00129849 0.103736 1.52241
12.5804 14.4698 29.0842 1.02913 0.619639 -0.520898
9.31387 16.4441 26.6203 0.0778435 0.317455 1.29954
10.8258 16.5182 29.0306 0.66232 -0.380233 0.672851
10.36 14.4557 27.8305 -0.0801517 0.411759 -1.4077
12.2122 16.2292 26.5041 1.04612 -0.179879 -1.24434
13.433 17.0465 28.7924 0.257131 0.0804049 -0.176305
13.8686 14.4059 24.647 1.32902 -0.503899 0.85524
14.6852 15.0988 27.114 0.427799 -1.18567 -0.253318
16.3745 15.0845 25.0265 0.87295 0.399386 -2.29495
10.4733 17.4203 24.7096 0.378638 0.176523 0.722074
12.6036 18.9493 24.9515 -0.770903 0.816504 -1.29829
11.0782 18.4744 27.2865 -0.80746 1.81959 -0.931975
13.8987 18.7588 27.1753 0.600311 -0.356538 -1.44702
15.1979 19.9123 25.1153 0.173539 1.07036 1.32169
14.6059 17.0911 25.3286 -0.354773 1.61298 -0.495751
ITEM: TIMESTEP
5000
ITEM: NUMBER OF ATOMS
64
ITEM: BOX BOUNDS ss ss ss
9.3656401516990471e+00 2.9485203276293579e+01
1.3346027043829173e+01 2.9204980994243734e+01
1.2658359965970501e+01 2.8908808388009692e+01
ITEM: ATOMS x y z vx vy vz
25.0128 20.4773 15.0505 0.53568 -1.52966 1.48576
22.315 20.6441 15.2726 -0.995523 0.564449 0.07937
24.475 22.9887 13.7038 1.08917 -0.151014 0.0135057
24.123 22.57 16.3757 1.52394 0.68301 -0.806283
27.6884 20.8185 15.5684 2.25993 -0.52064 2.08632
26.5818 21.5867 13.0844 2.22606 1.60652 1.23273
28.9846 22.5836 14.0268 -0.685877 1.32528 -0.0546348
26.6147 23.3601 15.5621 -1.44701 0.976739 1.59674
29.1393 23.0554 16.5456 1.06541 -1.02633 1.12056
27.0119 23.9861 12.7726 -0.208545 -0.566305 0.0291911
28.7031 25.1732 14.6629 -1.28797 0.312158 -1.49437
25.4677 25.7851 13.5411 -1.31096 -3.43972 -0.343469
24.6619 27.6653 15.0385 -0.113553 0.895907 1.12571
24.1578 25.1373 15.5963 -1.33431 0.209492 0.944725
26.5964 26.0214 16.2916 -1.45816 -1.43381 -0.701737
26.5757 28.8975 16.3587 -2.11184 -0.446429 -1.42076
27.3086 27.4859 13.9379 -1.90474 -0.250165 -0.42199
28.9604 27.5516 15.8616 -1.58931 -1.45152 2.2522
17.0428 15.948 20.5489 -1.90135 2.51267 -2.76162
21.9159 21.5461 17.8679 -1.11706 -1.99176 -1.41444
19.9543 20.3626 19.2021 0.29386 1.22095 0.825632
18.7646 18.1646 20.4719 0.593953 -1.35179 0.378587
18.8274 20.8302 21.513 -1.49959 -0.241862 2.67923
21.4879 19.1745 17.1956 2.59829 0.327504 1.03142
23.8232 19.5904 17.214 1.53547 -0.0911668 -1.69312
21.3557 17.731 19.2789 -0.658365 -0.0619059 0.637265
22.9354 19.7336 19.6664 -0.552959 0.217318 -1.30498
21.6536 21.9669 20.4748 2.14707 -1.41297 -0.717063
26.1261 21.161 17.5248 0.872216 -1.13239 0.128505
24.362 22.2548 18.8589 1.20227 -0.0245181 -1.55084
25.0869 24.6314 17.9581 0.0199904 1.79053 -2.49293
27.3349 23.4051 18.4402 -0.485993 -2.34905 0.0570998
29.0196 25.5705 17.5081 -1.02145 -0.763325 -0.0743498
28.1102 27.9801 18.2122 1.22775 -0.863719 2.54208
25.2125 27.5196 18.0603 -1.17181 -0.0739202 0.119494
26.9971 26.0595 19.323 -0.759795 -0.114176 -0.850004
12.9004 16.7172 23.5045 -0.595258 -0.235028 -2.54243
15.5773 16.1474 22.8061 1.08843 1.2853 0.264243
13.9744 14.5055 24.3942 1.92901 1.36998 -0.265386
16.7629 15.6316 25.0328 -0.300416 0.122953 -0.80818
19.5716 15.7948 20.133 -1.65735 1.9179 -2.03873
18.4079 16.3226 22.7221 -0.846759 0.734005 -0.484919
20.8573 17.1753 22.0121 -0.462331 0.158461 1.0942
10.5249 17.213 24.43 1.24945 -1.32525 -0.408653
12.6306 19.0177 24.6026 0.553505 1.45375 0.636821
16.5939 18.3699 21.7498 -1.24902 1.81717 0.0816134
14.5653 18.9403 22.9963 -1.23164 -0.131028 -0.171964
17.0067 18.3455 24.6778 1.51974 -0.536303 -0.297485
16.7068 20.5733 23.1829 -1.07453 1.08565 2.82526
21.1511 19.5305 21.467 -0.15782 0.275415 -0.558273
19.0956 18.9047 23.1772 0.573768 0.140178 1.03509
11.0748 14.7122 25.0458 1.35703 -0.916402 -0.514804
12.8104 13.3065 26.4146 1.44945 0.585417 -1.58665
13.113 14.7963 28.6889 -0.307333 -0.188582 0.0850328
9.51106 16.1733 26.8114 1.37585 -0.329428 -1.43013
11.5663 16.8597 28.7042 1.87297 1.05832 0.434428
10.7281 14.1879 27.7151 1.63986 1.09934 -0.112016
12.5207 16.3142 26.3437 0.561698 -0.409921 -1.08237
14.4309 16.9894 28.537 0.412091 0.165354 -0.14074
15.0228 14.9734 26.8389 -2.36718 0.444447 0.843496
14.7137 17.2949 25.4336 0.674085 -1.19602 0.706579
10.7237 18.3818 26.6086 -1.69348 0.522671 -0.0529934
13.1777 18.7419 27.2729 -0.424239 -0.448302 2.73838
15.1721 19.9417 25.4066 0.535531 0.125551 -0.512941
ITEM: TIMESTEP
6000
ITEM: NUMBER OF ATOMS
64
ITEM: BOX BOUNDS ss ss ss
9.8599838089855787e+00 2.9227160876333553e+01
1.3417503474096559e+01 2.7992441814331023e+01
1.2834851715790455e+01 2.8620712751900552e+01
ITEM: ATOMS x y z vx vy vz
25.9364 20.2025 14.9527 0.48891 -0.225698 0.842904
23.3969 21.4103 15.0615 -1.35973 3.03119 0.865534
28.5614 20.7594 15.108 1.49209 1.53668 1.53321
24.921 21.8347 13.1129 2.25476 0.728178 -2.45042
24.8465 22.5888 17.0107 1.88551 -1.41567 1.5586
27.4105 21.3462 12.7525 -0.290499 0.612091 0.183399
29.3697 22.7558 13.776 0.809831 1.68565 1.08859
26.8155 22.7386 15.346 0.238031 -0.717795 -0.865479
29.216 22.9928 16.5746 0.639015 0.336219 0.771893
27.2003 24.4134 13.1967 -2.00174 -2.79399 0.0984426
23.6307 26.4127 14.7531 -1.53079 -1.84505 1.0036
22.8751 24.4679 16.4551 -0.378545 -2.22534 0.75418
28.5945 25.0594 15.3452 -1.144 1.43701 0.560419
24.5368 24.0877 14.44 -1.66697 -3.66324 0.541534
25.917 25.0328 16.6374 -1.21228 0.462471 1.0315
25.2243 27.8651 16.2197 -2.66917 -0.71896 -1.31793
26.2296 26.3251 14.176 -1.59443 -0.357384 2.98618
27.8862 27.1863 16.3607 0.735093 0.67009 -0.595843
16.9445 17.0596 20.4175 -0.350271 0.838634 0.640394
19.204 16.5346 19.6201 2.84413 1.54957 0.940841
20.5246 20.9529 18.9516 0.674392 -1.33224 0.334948
18.9857 19.0846 20.2436 -0.291508 0.442684 -0.161128
22.0821 19.5001 16.7246 -0.746589 1.69069 -0.83533
24.6212 20.0464 17.1242 -1.51244 -0.741229 0.269847
21.0037 18.2715 18.7102 -1.36235 0.251669 -1.15449
23.1874 19.9724 19.2949 1.29923 -0.366139 -0.702132
22.4309 22.011 17.6112 -0.842988 -0.398166 0.725001
22.5524 22.1845 20.3719 0.074151 -1.6175 -1.61317
25.1488 21.7648 19.4106 0.281012 0.933977 1.26749
23.6406 23.9929 19.0429 -0.5631 1.14038 -2.44149
27.3145 20.9432 17.4408 2.0403 -3.15097 -0.841853
27.1971 23.335 18.5549 3.58979 2.33465 0.201604
23.894 26.5345 17.7843 0.458617 -3.78743 0.624728
28.203 25.4991 18.2958 -1.40409 -0.824243 1.58191
26.4247 27.5166 18.5843 -2.47385 0.493374 -2.5426
25.7848 25.2982 19.4734 0.993307 -1.99401 1.04974
12.8493 17.7178 23.2815 0.427811 0.433696 -0.146216
10.6102 17.2638 24.79 -0.0996713 0.0455641 -0.810506
15.3637 17.179 22.4957 0.0588205 -0.763673 0.398225
13.8523 15.2261 23.8021 -1.73862 0.783246 0.15762
18.3908 16.9373 22.5028 0.0471094 -0.75204 -1.51482
20.7201 17.4866 21.4444 0.377647 -1.24539 -1.7408
12.4608 19.1215 25.1485 -2.31054 -0.909141 1.18804
16.8864 19.3296 21.8672 0.612038 1.41906 0.204029
14.748 19.7547 23.5543 2.11136 0.287747 0.0232744
17.2263 18.4415 24.6007 0.217278 -0.00419179 -0.341863
17.284 20.9078 23.9431 1.09431 2.19689 -0.912855
18.7868 21.2801 21.5732 -1.78296 2.01961 -1.02014
21.3597 19.9946 21.4043 0.37638 2.57243 0.0452448
19.3839 19.31 23.1716 -1.80556 -1.75778 1.07316
11.1476 14.5968 24.6857 1.71648 0.37727 1.00153
13.053 13.4113 25.8247 -2.10503 1.82994 -0.515764
13.3482 14.4308 28.3226 1.22912 -2.31687 -1.68053
9.89316 15.9183 26.7661 0.0472693 1.60299 0.225438
11.7873 16.4749 28.6164 1.91924 -0.234826 -0.102037
11.054 13.8267 27.7036 -1.06293 -0.263832 -1.27559
12.6749 16.2797 26.0674 0.585392 0.219708 0.746096
16.6939 15.8881 24.4611 0.204706 0.831402 -1.24411
14.4545 16.7587 28.006 1.04987 -1.70846 -0.731757
15.2909 14.7919 26.2937 -0.333153 -1.21156 -1.45542
10.7294 18.4471 27.146 2.4724 0.0920395 0.0288849
13.2685 18.8639 27.5927 0.919955 1.77922 0.626455
14.8424 17.5879 25.3332 0.313227 1.00204 0.497737
15.4075 20.072 25.9455 -1.94479 1.67475 1.34203
ITEM: TIMESTEP
7000
ITEM: NUMBER OF ATOMS
64
ITEM: BOX BOUNDS ss ss ss
1.0073321819108664e+01 2.9737210717652800e+01
1.3773566445201228e+01 2.7844940797152045e+01
1.2990002427947397e+01 2.8828690854264647e+01
ITEM: ATOMS x y z vx vy vz
23.195 21.0068 15.2513 0.231064 0.182882 -0.44561
25.2147 21.747 13.8385 -1.16279 -2.01668 1.30248
26.417 20.1305 15.8086 -0.0636723 -2.83411 1.66005
28.6451 21.3244 16.5728 1.46412 -0.897345 -1.1885
27.8142 21.1646 13.9731 -0.234372 -0.566742 3.45833
26.9827 23.3571 15.5354 1.65376 -0.0772727 -1.05944
22.8593 26.1116 15.0219 -0.28316 -2.08203 0.785876
22.5989 23.6594 16.1471 -0.603005 -2.01819 0.56273
24.4408 24.0773 14.2427 -0.431045 0.175338 -2.58908
24.6567 27.769 16.0302 1.62704 -1.01244 1.91842
29.2613 23.4334 14.1482 -2.64209 0.742165 0.13794
26.9606 23.6456 12.9427 -0.508572 0.882337 2.83903
28.5634 25.5349 14.9179 1.12377 -0.224479 1.43429
26.1059 26.0799 14.2435 -0.932666 -0.261967 -0.394694
27.3409 27.409 16.3058 -1.273 0.849874 0.154156
16.7755 17.0904 20.0407 -0.634772 -0.495614 0.659973
19.2031 16.5058 19.493 0.25046 0.308124 -0.253777
21.1678 17.8389 18.6311 1.79221 -0.000841556 -1.88743
20.6602 20.5111 19.326 1.92046 -1.45388 -0.333062
18.6393 18.9404 19.7914 0.837695 0.579293 -1.22882
24.872 22.2956 16.9745 0.103495 0.735242 -0.120432
21.8671 19.3585 16.8274 0.154214 -0.456434 -1.65549
24.354 19.7441 17.423 0.0364831 3.18942 -0.914828
23.0071 19.6385 19.9427 -0.0673288 2.26155 0.849174
22.1232 21.7385 17.6893 -0.253786 -1.51278 2.75197
22.4684 22.3031 20.4172 -0.69131 1.61212 0.198663
25.1347 21.5921 19.4074 -1.09859 1.71409 -0.397926
29.5421 23.857 16.8588 0.809088 2.07423 0.332237
26.8615 20.1277 18.4862 -1.92649 -0.200327 0.289489
27.2162 22.8354 18.2945 -0.459303 -1.57243 1.61903
23.8771 23.9208 18.7857 1.1048 1.04114 -0.791932
22.9062 26.2583 17.4364 -1.09178 -0.527573 -0.546233
25.3479 25.1336 16.7265 2.54816 2.99325 0.428839
27.8735 25.8195 17.6822 -1.03999 0.479838 -0.594586
25.1834 26.9225 18.6109 0.41166 -0.542159 -1.47482
26.1623 24.7096 19.5637 -2.23717 -0.669251 -2.36445
12.9925 18.0083 23.4701 1.24992 -0.33889 -0.903046
11.0098 18.4179 25.0957 -1.24788 0.981076 0.385708
10.8419 15.9493 24.5052 -0.922219 -1.51223 2.33929
15.3338 17.2606 22.2522 -0.15245 1.79532 0.0824999
13.7102 15.3863 23.387 -1.26029 0.428955 0.431393
16.4871 15.3386 23.7886 -2.11365 -0.329225 1.97345
18.4732 17.0911 21.9157 0.213839 -0.209531 0.62175
21.0796 18.3044 21.2089 -1.20762 -0.411058 -2.39368
16.6873 19.4625 21.4613 0.661536 0.0259004 0.272364
14.9742 19.8158 23.4161 -0.580572 -0.675331 -0.904926
17.238 18.0687 24.1455 0.774782 -1.05379 0.769815
17.3 20.9648 23.7389 1.55082 -0.959305 0.617943
18.8453 21.2662 21.2426 -0.241301 -0.709937 -0.359092
21.381 20.8211 22.0082 0.367781 2.60893 -2.47385
19.1198 19.4667 22.7976 1.00618 -1.06237 0.662998
12.301 13.8718 25.2238 -0.0188311 0.791823 0.263619
13.5326 13.8881 27.5778 -0.737264 -0.521774 -2.89819
10.1996 16.9124 27.0259 -0.429106 1.96967 0.946918
12.4778 16.2278 28.4898 0.873635 -0.701009 -0.117845
10.9242 14.3764 27.2876 0.225142 1.61784 -0.207305
12.8908 16.4217 26.0739 0.199231 -1.52035 0.739765
15.1882 16.1287 27.7989 0.888205 0.312715 -0.496238
14.8775 14.4842 25.5761 -1.80021 0.741407 -1.36923
15.1965 17.4011 25.2707 0.132237 0.304291 0.551886
13.385 19.4452 25.654 2.38163 0.792923 0.49567
12.0166 18.6103 27.8343 0.4851 -0.480994 -0.617314
14.6249 18.5436 27.6926 0.411194 -1.2654 -0.904698
15.8924 19.7544 25.9525 0.856581 -1.01801 -0.651222
ITEM: TIMESTEP
8000
ITEM: NUMBER OF ATOMS
64
ITEM: BOX BOUNDS ss ss ss
1.0322638935770724e+01 2.9424345636071148e+01
1.3973482594053467e+01 2.7721332351947932e+01
1.3155890673743805e+01 2.8726502240428669e+01
ITEM: ATOMS x y z vx vy vz
21.169 20.3693 16.4177 -1.49817 0.362201 0.949493
23.3786 21.6093 15.2126 -1.18028 0.557009 -1.53754
26.1001 21.3518 13.1725 -0.27122 0.452152 0.115431
24.4673 22.6054 17.3788 -0.733967 -0.208036 -1.22527
25.6074 20.6754 15.8006 -2.0083 -2.4167 -0.994377
28.0839 21.1013 16.9316 -1.3851 -1.78779 0.70004
27.9567 20.8867 14.3458 -0.458981 -0.156709 0.0309495
29.531 22.8163 15.0745 3.08567 -1.55018 1.7817
23.4606 25.6604 14.163 1.69235 -0.668035 0.18701
22.4102 23.9264 15.968 -1.29398 -2.96153 -2.04108
24.8179 23.4886 13.8162 0.727912 -1.55 0.0804851
24.4307 27.6221 15.6107 0.299142 -0.229709 1.82306
25.0082 25.0765 16.1783 -0.109141 -0.372904 1.38809
27.0731 23.2674 15.8819 0.78441 -0.841007 -2.67738
27.577 23.5368 13.3931 -0.755375 1.05103 -1.1575
28.589 25.4412 15.5717 1.21009 0.732805 0.935338
26.1647 25.9174 13.9999 -0.061318 0.040186 2.66774
26.8294 27.2919 16.3649 -1.46954 -0.990552 -1.6802
29.3257 23.5122 17.4698 -0.311158 0.398241 2.10763
17.2869 16.4031 20.5212 -1.61453 -1.1337 0.925108
19.9648 16.2527 19.7077 0.907944 -0.430771 -0.0774854
20.9031 18.5512 18.2594 1.80324 1.17964 0.2262
21.0153 18.329 21.0331 0.787074 -1.5029 2.20135
20.1875 20.8492 19.2163 -0.489642 2.48697 1.88056
18.6987 18.4285 19.741 -0.934196 0.408017 -0.402787
23.4693 19.6041 17.2595 -2.82454 -0.491392 -0.644071
22.8539 19.9381 19.7873 1.50031 0.171253 -2.16914
22.0729 22.1362 17.9356 -0.102899 0.615209 0.350654
21.7972 22.7357 20.4845 -0.68643 -1.81742 -0.514919
24.4269 22.2307 20.1212 -3.63632 -0.512186 3.93687
25.79 20.4832 18.7786 -1.34424 0.947797 -0.723191
26.9283 22.7705 18.7569 -2.3434 0.162573 2.56124
23.0956 24.8069 18.5963 -1.93812 2.55294 1.73011
22.708 26.4336 16.5656 1.15665 2.7255 -2.74125
25.1074 27.023 18.1111 1.60255 -1.80084 -2.55537