ITEM: TIMESTEP
0
ITEM: NUMBER OF ATOMS
675
ITEM: BOX BOUNDS ss ss ss
5.3337770325341713e+00 3.6697158276995189e+01
4.9662668905710428e+00 3.5883515942593490e+01
8.6135056413051228e+00 3.2176495185691877e+01
ITEM: ATOMS x y z vx vy vz
19.9036 8.0401 11.7491 0.874686 -0.417588 1.74058
24.8126 7.00782 12.3632 -0.880303 -0.177894 -3.08185
22.0098 6.1413 12.2659 -1.70634 0.587252 0.640845
27.6155 7.87435 12.4606 0.650545 1.05025 0.33688
15.6913 11.8377 10.7153 0.386944 0.545782 0.916486
13.342 11.2183 12.2662 -3.34785 0.09994 -1.12409
20.6003 10.8054 11.3295 0.31149 2.57532 -0.393749
17.7975 9.93889 11.2322 -0.671834 1.03168 -2.03407
23.4032 11.6719 11.4268 0.237761 1.17795 -1.07721
22.7065 8.90662 11.8464 -0.497334 -1.43696 1.88527
26.206 12.5385 11.5241 0.400542 2.49279 -1.13474
28.3122 10.6397 12.041 -0.246282 -2.27369 0.188043
25.5093 9.77314 11.9437 1.82802 -1.94302 0.0314052
16.3881 14.603 10.2958 0.108998 -0.484945 0.455479
14.0387 13.9836 11.8467 -0.36392 -0.162148 -0.909536
17.3559 16.1974 12.4934 -0.431648 2.53192 0.663481
19.1909 15.4695 10.3931 -1.1797 0.209334 0.383252
18.4942 12.7042 10.8126 1.00113 -0.318503 -0.0353209
21.9937 16.3361 10.4904 -0.254279 -0.209659 -0.876381
24.0999 14.4373 11.0073 -1.16965 0.201616 1.24635
21.297 13.5707 10.91 -0.578718 -0.842208 -0.0230006
26.9027 15.3038 11.1046 -0.340653 -1.95434 0.0688217
29.7056 16.1703 11.2019 -1.61392 -0.643536 1.17521
29.0089 13.405 11.6215 -0.542033 -1.15171 -1.30375
17.0848 17.3683 9.87623 -0.522748 0.438446 1.67505
15.4321 19.5143 11.0076 0.507501 0.409675 -2.50535
14.7354 16.749 11.4271 1.20395 -0.961652 -1.2987
20.8554 19.8292 12.1712 -0.265087 -1.53329 0.391981
18.0526 18.9627 12.0739 -1.09069 -0.131224 0.639686
17.7815 20.1336 9.45668 -2.02389 1.38116 -0.199275
19.8876 18.2349 9.97355 -2.21609 -2.07458 1.22924
22.6904 19.1014 10.0709 -1.24923 -1.31064 -0.458128
24.7966 17.2026 10.5877 1.73933 -0.176175 -0.615672
25.4933 19.9679 10.1682 -2.30072 1.3034 0.631846
27.5994 18.0691 10.685 0.00840804 0.738747 -1.46946
29.7852 18.8518 12.3934 -1.14358 -0.445501 -1.20041
16.1288 22.2796 10.588 0.132712 -1.7873 -0.571219
13.7794 21.6602 12.1389 1.3616 -0.207678 -0.221226
18.7493 21.728 11.6543 -1.14651 0.521068 0.550579
18.4782 22.899 9.03713 -1.13428 -0.608997 -1.18554
20.5843 21.0002 9.554 0.0163184 -1.66908 -0.222185
21.5522 22.5945 11.7517 -0.678706 -0.0657379 -1.76063
21.281 23.7655 9.13445 1.60436 0.0600791 -0.847521
23.6583 20.6957 12.2685 0.565716 -0.666365 0.840383
23.3872 21.8667 9.65132 -1.03384 -0.572856 0.400348
25.5729 22.6494 11.3596 0.252717 0.498731 0.0143842
27.679 20.7506 11.8765 1.70898 -0.675429 2.35159
16.8255 25.0449 10.1685 0.0258466 -0.513526 0.49139
14.4761 24.4256 11.7193 -0.926513 -0.0706088 0.984666
16.2576 26.6183 12.5158 1.01823 -0.162991 0.192054
19.446 24.4933 11.2348 -1.27645 1.18667 0.932173
19.1749 25.6643 8.61758 0.0178318 0.568932 0.197781
18.6069 27.2377 10.965 -2.74471 -1.80104 -0.298096
21.3606 26.447 10.3259 0.778679 -0.926154 1.74032
23.5463 27.2297 12.0343 -0.66843 0.0187686 0.485373
23.4667 24.5482 10.8428 1.39863 -1.21331 -2.1016
18.3398 7.59699 16.4666 1.25002 -0.165374 0.177208
18.0686 8.76794 13.8494 0.772306 0.672146 1.74255
20.1748 6.86915 14.3663 -0.589958 -0.201808 -0.156115
22.9776 7.73567 14.4636 -2.33363 1.06378 -1.82603
22.2809 4.97035 14.8831 1.38143 1.04814 -0.333595
25.7805 8.60218 14.5609 0.882692 0.349669 -0.235987
27.8866 6.70339 15.0778 -0.582731 1.41003 -0.0653258
25.0837 5.83686 14.9804 -0.546319 -0.6842 0.438144
8.64321 9.97957 15.3679 0.387878 1.51091 1.01168
11.9604 12.1933 16.0147 -0.904246 0.245502 -0.383325
11.2637 9.42798 16.4343 -0.490406 1.35779 2.59411
10.9926 10.5989 13.8171 1.58637 -1.27521 -0.633658
16.9303 12.2611 15.5302 -0.464209 0.913017 0.846492
16.2336 9.49578 15.9497 -0.0813714 1.24934 -0.167754
15.9625 10.6667 13.3325 -2.16026 -0.415969 1.21602
13.6131 10.0474 14.8834 -0.792205 -2.53761 2.95581
19.0365 10.3623 16.0471 1.54712 -0.257151 -0.301805
18.7653 11.5333 13.4299 -0.272138 0.27923 -0.580048
20.8715 9.63446 13.9467 1.16099 0.522593 0.314122
24.6422 12.0954 16.2417 2.51849 0.309945 -0.0455422
21.8393 11.2288 16.1444 0.325293 1.43287 0.533503
21.5682 12.3998 13.5272 1.928 1.83749 -0.654015
23.6743 10.501 14.044 -0.163167 -0.137 3.18243
26.4772 11.3675 14.1414 0.526589 0.41346 -0.711584
28.5833 9.46871 14.6582 -0.723451 1.06876 0.140068
29.28 12.234 14.2387 0.560113 0.638248 -0.0723553
7.68723 14.8908 16.0797 -0.162827 1.00668 -1.47276
12.6571 14.9586 15.5952 0.215223 -1.29269 0.171589
12.386 16.1296 12.978 0.507768 1.43865 0.0378456
11.6893 13.3643 13.3975 2.30093 -1.33174 1.0316
10.0366 15.5102 14.5288 -0.26369 0.68264 1.81072
9.33991 12.7449 14.9484 1.30338 0.279859 -0.139031
16.6592 13.4321 12.913 -0.60513 0.701694 0.682779
15.0065 15.578 14.0443 -0.799012 -0.358471 0.849806
14.3098 12.8127 14.4639 -1.04393 -1.05881 0.46386
20.4299 15.8929 15.208 1.71008 -0.921196 0.772911
17.627 15.0264 15.1106 1.18608 1.50213 1.01122
19.7332 13.1276 15.6275 1.90282 -1.21329 0.587083
19.462 14.2986 13.0103 -0.815542 -0.131396 1.21923
22.536 13.9942 15.7248 0.941034 0.892028 -0.212705
22.2649 15.1651 13.1076 1.33396 0.322932 -0.848408
24.371 13.2663 13.6245 2.2879 -2.34264 -1.35204
28.1417 15.7272 15.9195 -0.301284 0.648921 0.144683
25.3389 14.8607 15.8221 0.096696 -2.13594 -0.315988
25.0677 16.0316 13.2049 0.87362 -1.52781 -0.801722
27.445 12.9619 16.339 -0.134416 0.910136 -0.678586
27.1739 14.1328 13.7218 -0.210199 0.110236 2.0388
30.2479 13.8284 16.4363 0.991123 -2.41613 -2.95252
29.9767 14.9993 13.8191 -0.157162 0.111942 -1.86352
32.1624 15.782 15.5275 1.1983 -1.34646 -0.00564366
9.08065 20.4215 15.2406 0.159991 -0.0347993 0.339386
8.38394 17.6561 15.6602 1.64779 -1.6864 -1.0481
13.0827 18.8949 12.5584 0.314698 0.536876 0.981129
11.7012 19.8699 16.307 -0.186965 0.334552 -2.13652
10.7333 18.2755 14.1093 -0.873038 0.736488 -1.12948
16.6711 19.9377 15.8224 -0.744955 -0.45174 -0.572006
15.9744 17.1724 16.242 0.126411 2.69372 -0.313563
15.7032 18.3433 13.6248 0.136411 0.869713 0.750253
13.3538 17.7239 15.1756 -1.61467 0.632165 2.88109
18.3237 17.7917 14.6911 0.886227 0.482151 0.94079
20.1587 17.0639 12.5908 -0.916782 -0.63763 -0.271666
23.9294 19.5248 14.8857 -1.00985 -1.20734 1.11243
21.1266 18.6583 14.7884 -0.948553 -0.327529 0.88521
23.2327 16.7595 15.3053 0.742748 -0.139172 1.01329
22.9616 17.9304 12.6881 0.163766 -0.952459 0.727801
26.0356 17.626 15.4026 0.183169 -0.867218 -0.250738
25.7644 18.7969 12.7854 0.784242 -0.552134 1.04282
27.9502 19.5796 14.4937 1.50184 0.0162826 3.57526
27.8706 16.8981 13.3023 -2.12755 0.230589 -0.521955
30.1359 20.3623 16.2021 -0.128131 -1.10065 0.673003
30.0563 17.6808 15.0106 0.883476 0.0309328 0.490817
31.9709 19.6345 14.1017 0.566138 -0.037507 -0.297312
31.8913 16.953 12.9102 0.155955 0.795735 2.11311
34.1566 20.4172 15.8101 0.847848 0.836041 1.06714
34.077 17.7357 14.6186 0.0710141 0.438149 1.15858
36.2628 18.5184 16.3269 0.511881 1.11189 1.16954
7.42798 22.5675 16.372 0.576659 1.56163 -0.177359
12.3979 22.6352 15.8874 1.56027 -1.64438 0.929199
12.1267 23.8062 13.2702 -0.208045 -0.737696 2.60663
9.77736 23.1868 14.8211 -1.7282 1.6624 0.471364
11.43 21.0408 13.6897 -0.201463 -0.671895 0.451264
14.7473 23.2546 14.3365 0.26986 1.19157 0.532922
16.3999 21.1086 13.2052 -1.42547 -1.32725 0.21738
14.0505 20.4893 14.7561 1.03071 1.55843 0.352821
19.7171 23.3224 13.852 1.45411 0.508461 0.523539
17.3678 22.703 15.4029 1.07375 -0.167461 0.816752
17.0966 23.874 12.7857 0.935471 -0.730228 1.12461
19.0204 20.5571 14.2715 0.258466 0.765817 -1.03777
21.9029 24.1051 15.5603 1.14321 -0.519577 -1.08636
21.8233 21.4236 14.3689 0.0260846 0.887906 -0.818509
24.009 22.2063 16.0772 1.14345 -0.0830931 -0.0129758
23.7379 23.3772 13.46 -0.38388 0.19527 -0.0291047
25.9236 24.1599 15.1683 -2.12415 0.894177 0.56931
25.844 21.4784 13.9769 -0.325678 0.263342 -0.480276
28.0298 22.2611 15.6852 1.22152 -0.64333 -0.0958299
27.7586 23.4321 13.068 0.577581 -1.56588 0.60831
29.9443 24.2148 14.7763 0.341807 0.665619 -0.424267
29.8648 21.5333 13.5849 -3.17763 -1.21815 0.26801
32.0505 22.316 15.2932 0.0988048 0.0963127 -0.830748
11.5588 25.3796 15.6176 -1.23271 0.599919 -1.29007
16.5287 25.4474 15.1331 0.289883 -0.196483 0.864417
13.9082 25.999 14.0667 -0.709833 -0.282369 0.815021
13.3403 27.5724 16.4141 1.49705 -1.73835 1.4076
19.1492 24.8958 16.1994 0.0748725 0.315909 1.23213
18.8781 26.0668 13.5822 -0.427361 -1.21783 -0.029648
18.3101 27.6402 15.9296 -1.54406 0.915576 1.42135
20.7927 28.0204 12.6733 -1.17705 -0.257333 2.11238
21.6317 25.276 12.9431 0.847763 1.99281 -0.272535
21.0638 26.8494 15.2905 -0.31882 -1.04471 0.821668
23.8175 26.0587 14.6515 -0.9229 -0.451672 1.98007
26.0032 26.8414 16.3598 0.340639 -0.5109 -1.15165
25.7321 28.0123 13.7426 1.84813 1.08647 1.67754
25.6525 25.3309 12.5511 0.182729 0.235667 0.71946
27.8382 26.1135 14.2595 0.389839 -0.0540627 1.31052
30.0239 26.8962 15.9678 0.803674 1.23567 -0.872474
15.6896 28.1918 14.8632 0.54939 0.195059 0.227267
18.039 28.8111 13.3124 -0.541313 1.42578 -0.542964
17.4711 30.3845 15.6597 -0.248862 -0.600224 0.336881
20.2247 29.5938 15.0207 -0.484487 0.655324 -1.46763
22.9784 28.8031 14.3816 -0.049915 -0.884171 1.46126
25.1641 29.5858 16.09 0.408729 1.21745 -3.12848
27.9178 28.795 15.4509 0.156834 2.1692 -0.841031
8.91434 8.80861 17.9851 0.766978 1.54743 -1.74289
11.5349 8.25703 19.0515 -2.30806 -1.95782 -1.70732
16.5048 8.32483 18.5669 -1.69777 0.650081 -0.0970204
14.1554 7.70546 20.1178 2.02581 -0.956739 0.214382
18.6109 6.42604 19.0838 0.7441 0.0377127 1.66069
20.4459 5.6982 16.9835 -0.720356 1.57167 1.17911
24.2166 8.15909 19.2784 -0.194177 0.685852 -1.67813
21.4137 7.29255 19.1811 -0.852909 0.0664747 -1.0756
21.1426 8.46351 16.5639 1.92578 -1.06184 -1.67388
23.2487 6.56471 17.0808 1.07246 -1.10881 -1.84306
28.8544 8.29776 17.2754 -0.0849167 -0.513987 -1.76823
26.0516 7.43123 17.1781 1.47959 -0.448202 -1.25488
7.26167 10.9546 19.1165 0.236044 -0.467797 -1.1108
6.99053 12.1255 16.4993 1.31597 0.707419 0.186346
12.2316 11.0224 18.6319 -1.00681 -1.66899 2.15689
9.88218 10.403 20.1828 -1.06536 1.80135 -0.41937
9.61105 11.5739 17.5656 0.605689 2.90846 -0.404827
14.8521 10.4708 19.6983 -1.00183 3.11335 -2.44714
14.5809 11.6417 17.0811 -0.110282 0.191552 -2.09491
13.8842 8.87641 17.5006 1.77114 0.63035 0.539047
18.1693 12.6845 20.345 -1.24844 1.05681 -1.1418
20.0043 11.9567 18.2447 1.22579 0.0747416 -1.77601
17.2015 11.0902 18.1474 1.08073 0.910878 -0.797332
19.3076 9.19136 18.6643 1.99716 -1.45225 -1.45676
24.9133 10.9244 18.8589 0.559855 -0.261615 0.76763
22.1104 10.0579 18.7616 -0.508969 -3.00243 -0.345036
23.9454 9.33004 16.6612 -0.504904 2.30245 0.808697
27.7161 11.7909 18.9562 -0.393664 -0.372183 0.547258
27.0194 9.0256 19.3758 -0.0419253 -0.47172 -0.244581
26.7483 10.1966 16.7586 1.04461 1.22654 1.10227
30.519 12.6574 19.0535 0.106292 0.959576 -1.52453
29.8223 9.89212 19.4731 1.08784 -0.776997 -0.551005
29.5511 11.0631 16.8559 0.904345 0.4609 -0.211714
8.65508 16.4852 18.2774 0.437425 1.57721 -0.595047
7.95837 13.7199 18.6969 -1.00854 0.733811 0.378482
6.3057 15.8658 19.8282 -0.272809 0.981676 0.507259
5.60899 13.1005 20.2478 -0.0832364 0.666934 -1.97344
5.33786 14.2714 17.6306 -0.172313 0.356055 0.137548
12.9283 13.7877 18.2124 -0.398389 -2.06638 -2.30446
11.2756 15.9336 19.3437 0.874308 0.67631 1.38401
10.5789 13.1683 19.7632 -0.390583 -0.150576 -0.476219
10.3078 14.3392 17.146 -1.04809 -1.01693 -0.859495
16.2455 16.0014 18.8592 -2.59206 -0.564378 0.432103
15.5488 13.2361 19.2787 -1.47953 0.438641 2.0006
15.2776 14.407 16.6615 1.27339 -0.490337 1.33229
13.625 16.553 17.7928 1.46119 -0.95176 -2.53516
18.866 15.4498 19.9255 0.0360618 0.757118 1.41475
20.701 14.722 17.8252 1.56062 2.09243 1.19442
17.8982 13.8555 17.7278 1.40088 0.104084 -0.0390985
21.6689 16.3164 20.0228 -0.978371 -0.814559 1.50483
23.5039 15.5885 17.9225 1.4638 -0.265767 0.460359
22.8072 12.8232 18.342 0.265804 0.602045 -0.100027
26.3067 16.455 18.0198 -1.03852 0.748417 -0.849817
28.4128 14.5562 18.5367 -0.717625 -0.540086 2.28624
25.61 13.6897 18.4393 -0.957247 -1.90585 -0.25592
30.5986 15.3389 20.245 0.972823 -2.86578 0.638076
30.3274 16.5099 17.6278 -0.744804 0.39303 2.04494
32.4336 14.6111 18.1447 1.74522 -0.499902 0.560069
34.6193 15.3938 19.853 -1.38283 1.79862 0.619846
7.00241 18.6311 19.4087 -0.0779497 -0.0119051 -0.839731
6.73127 19.8021 16.7915 -2.45937 1.73355 -1.23727
6.03457 17.0368 17.211 -0.1974 0.205597 -0.976601
11.9723 18.6989 18.9242 0.450469 -0.832208 -0.484318
11.0045 17.1046 16.7265 2.25527 -0.275152 -0.0256478
9.35179 19.2505 17.8578 -0.491901 -2.01191 -0.732895
16.9422 18.7667 18.4396 -0.52958 1.52591 -0.662443
14.5928 18.1474 19.9905 -1.77309 0.342157 0.484424
14.3217 19.3183 17.3733 0.172072 0.752635 -0.849031
19.5627 18.2152 19.5059 0.991226 -1.45446 -1.67325
19.2916 19.3861 16.8887 -1.24299 -0.534773 -1.88212
18.5949 16.6208 17.3083 0.058202 -0.287915 2.08198
22.3656 19.0817 19.6033 -0.458694 0.331809 2.10021
22.0944 20.2526 16.9861 -0.265879 -0.802072 -0.203606
24.4717 17.1829 20.1201 1.10086 0.430888 0.951868
24.2006 18.3538 17.5029 -0.0568147 2.30438 0.253549
21.3977 17.4873 17.4056 -0.710615 -0.5925 0.322126
26.3863 19.1365 19.2113 -0.158636 -1.2426 -2.0116
26.1152 20.3075 16.5941 -0.660208 2.25254 -0.470767
28.4924 17.2377 19.7281 -0.437928 -0.964932 -0.0230972
28.2213 18.4087 17.1109 0.267049 -0.22111 1.56034
30.407 19.1914 18.8193 -1.60877 1.43493 1.72855
32.5132 17.2926 19.3361 -0.336073 -1.8072 -0.0703026
32.242 18.4635 16.7189 1.97593 -0.318199 -1.49753
34.4278 19.2462 18.4273 0.748988 -0.683881 -1.68558
34.3482 16.5647 17.2358 -0.1613 0.0206359 -0.626506
36.6135 20.0289 20.1356 0.961776 0.341586 -0.63897
36.5339 17.3474 18.9441 -0.906517 -0.18744 0.892946
7.69911 21.3965 18.9892 0.79446 0.431705 0.131182
6.86005 24.1409 18.7193 -0.62821 1.12762 1.83425
12.669 21.4643 18.5046 2.20629 -1.25954 2.24451
10.3196 20.8449 20.0555 -0.931203 0.431175 0.437521
10.0485 22.0159 17.4383 0.112235 0.917351 -0.771393
11.8299 24.2087 18.2348 -1.72981 -0.542359 0.15449
9.48056 23.5893 19.7857 -0.941308 0.31729 -0.0762381
15.2895 20.9127 19.5709 -1.77403 1.96537 0.380942
15.0184 22.0837 16.9537 0.61869 2.31615 -2.8582
17.071 23.1055 20.3675 0.270343 -0.572721 -0.157083
16.7998 24.2764 17.7503 0.259488 0.871362 1.29647
14.4505 23.6571 19.3011 0.733021 2.05142 -0.548642
20.2594 20.9805 19.0864 0.477857 0.521699 -0.996422
19.9883 22.1514 16.4692 1.09761 1.04924 0.379337
17.6389 21.5321 18.0201 -1.00032 1.00635 -0.921859
19.4204 23.7248 18.8166 -1.42297 -0.622194 -2.11305
22.174 22.9341 18.1775 -0.147344 0.252409 1.66374
24.3597 23.7168 19.8859 0.388178 0.745633 0.47501
24.2802 21.0353 18.6944 0.751084 0.72714 1.18192
26.1947 22.989 17.7855 1.14629 0.850703 -0.290826
28.3805 23.7716 19.4939 0.735137 -0.714176 -0.938676
28.3009 21.0902 18.3024 1.61341 1.69312 -1.52741
30.4866 21.8728 20.0107 -1.04968 0.756603 0.0501995
30.2155 23.0438 17.3935 -1.47874 -2.28479 -1.34822
32.4012 23.8265 19.1019 -0.563731 2.68722 0.398642
32.3216 21.145 17.9104 -0.952886 1.86773 -1.17773
34.5074 21.9277 19.6187 0.22297 -0.87504 -0.063379
34.2362 23.0986 17.0015 -1.08463 -0.85195 -0.173487
36.4219 23.8813 18.7099 -0.00805964 0.873315 -3.1803
36.3424 21.1998 17.5184 -1.29603 1.53577 -1.61067
9.20942 24.7602 17.1685 2.12204 1.00866 1.36631
8.6415 26.3337 19.5159 0.208158 -2.68446 -0.168832
10.9909 26.953 17.965 1.87643 -0.505548 -1.1446
14.1793 24.828 16.6839 -0.900585 0.57832 -1.32592
16.2319 25.8499 20.0976 1.07479 -0.433465 0.755642
15.9608 27.0208 17.4804 0.640784 1.97573 -1.84006
13.6114 26.4014 19.0313 -1.55039 0.337075 -1.1705
18.5813 26.4692 18.5468 0.634348 -0.871891 0.999472
20.767 27.2519 20.2551 0.188437 0.536672 -0.927577
21.335 25.6785 17.9077 0.07964 -0.376664 -0.468594
24.0886 24.8878 17.2687 1.51025 1.00551 0.46455
23.5207 26.4612 19.616 -0.395841 -2.5292 1.25829
23.2495 27.6321 16.9988 -0.157683 -0.497505 1.19659
26.2743 25.6704 18.977 0.341192 0.106854 -0.00137624
28.1889 27.6241 18.0681 0.523906 -0.420955 1.38777
28.1093 24.9426 16.8767 -1.15661 1.00699 1.91525
30.2951 25.7253 18.585 -0.390907 0.655461 0.796687
32.4808 26.508 20.2933 -0.509033 -1.44096 -0.583536
32.2097 27.6789 17.6761 -0.010109 -0.746134 0.034493
32.1301 24.9974 16.4847 -0.241455 -1.22067 -0.478773
34.3158 25.7801 18.193 0.968033 -1.99197 -0.262934
12.7723 29.1458 18.7615 0.907927 0.400293 -1.06505
10.4229 28.5264 20.3124 -1.18123 -0.309091 -0.151966
15.3928 28.5942 19.8278 0.640146 -0.0506135 1.78584
15.1217 29.7652 17.2106 -0.0533294 -0.400303 -0.64904
16.9031 31.958 18.0071 -0.421203 -0.186857 -1.87452
14.5538 31.3386 19.558 -0.533194 -0.645798 1.85458
17.7422 29.2136 18.2769 -0.436862 1.67003 -0.0798851
20.4959 28.4229 17.6379 -0.4127 -2.28709 -0.857178
19.928 29.9963 19.9853 0.810611 -1.22718 -0.85666
19.6568 31.1672 17.3681 -1.18456 -1.84285 -1.26593
22.6816 29.2055 19.3462 -0.460648 -2.23371 -0.848759
22.4105 30.3765 16.729 1.82058 0.0411251 0.111359
21.8425 31.9499 19.0764 2.2246 -0.890998 -0.764163
24.5962 31.1592 18.4374 -0.542081 1.58817 -0.736971
25.4353 28.4148 18.7072 -0.440743 -2.24466 1.02088
27.3499 30.3685 17.7983 1.23252 -0.109608 -0.383794
26.7819 31.9419 20.1457 -0.176667 -1.0376 0.302574
30.3747 28.4068 19.7765 -1.01487 -0.947769 0.462155
30.1035 29.5777 17.1593 -0.689077 -3.47502 -2.74623
29.5356 31.1511 19.5066 -0.723866 1.51204 0.766321
16.3352 33.5314 20.3545 0.804857 0.270693 0.255909
19.0889 32.7406 19.7155 -0.334447 -1.358 -0.772708
16.7759 7.15388 21.1841 1.35411 -0.605197 -0.515872
17.7437 8.74825 23.3818 -0.257987 -0.200744 -0.17821
19.5787 8.0204 21.2815 -0.659779 -0.793258 0.469587
8.22951 12.5489 21.3141 -0.876136 -0.633849 -1.55624
12.5027 9.8514 21.2491 -0.484053 0.0439121 0.853103
10.85 11.9973 22.3805 -1.91867 0.634212 0.187409
15.8199 12.0651 21.8959 1.12883 1.20981 -0.120191
15.1232 9.29982 22.3155 0.523134 -1.29281 -1.12883
13.4705 11.4458 23.4468 0.0642864 -1.05433 1.53472
13.1994 12.6167 20.8296 -1.12332 0.221918 1.40805
18.4404 11.5136 22.9622 -0.571959 -2.03308 -1.53067
20.5466 9.61477 23.4791 1.00714 0.473277 -1.05146
20.2754 10.7857 20.8619 0.308791 2.32476 -1.8533
17.4726 9.9192 20.7646 0.52413 -1.542 -1.18322
21.2433 12.3801 23.0596 -0.251679 0.567738 0.42113
23.3494 10.4813 23.5764 -0.318323 0.482031 -0.474642
23.0783 11.6522 20.9592 -0.140573 3.52593 -0.508311
22.3816 8.88693 21.3788 1.10725 0.766733 -1.41103
26.1523 11.3478 23.6738 -1.01835 -1.25203 0.215792
25.8811 12.5188 21.0565 -0.290106 2.605 -0.228257
27.9873 10.62 21.5734 -0.666011 1.2783 1.64861
25.1844 9.75345 21.4761 -0.61601 0.388345 -2.06177
28.9551 12.2143 23.7711 0.258757 0.185603 -0.99504
30.7901 11.4865 21.6707 0.499176 -0.171005 1.57929
9.19736 14.1433 23.5118 -0.424318 -0.388017 0.647925
8.92622 15.3142 20.8946 0.545528 0.00507793 1.33043
6.57684 14.6949 22.4454 -0.0135304 1.17277 1.07548
12.5146 16.357 24.1586 0.902261 -0.920347 2.78143
11.5467 14.7627 21.9609 -1.12132 1.36507 -0.496171
16.7878 13.6595 24.0936 2.76296 -0.831066 1.39027
16.5166 14.8305 21.4764 -1.25873 0.434806 -0.149513
14.1672 14.2111 23.0272 -0.306876 -1.18347 -0.458418
13.8961 15.382 20.41 0.0588202 0.80384 -0.0260728
19.1371 14.2789 22.5427 -1.31716 -0.773423 -0.640072
17.4845 16.4248 23.674 0.621974 0.641586 -1.48686
20.9721 13.551 20.4424 0.710198 0.883512 -0.5445
24.7428 16.0119 22.7373 -0.300858 -0.302057 0.322859
21.94 15.1454 22.64 -0.106628 -0.85047 0.238363
24.0461 13.2466 23.1569 0.228623 1.65369 -0.420941
23.775 14.4176 20.5397 -0.677877 -2.18138 -0.220417
26.849 14.1131 23.2542 -0.371091 -0.523287 1.87804
26.5778 15.2841 20.637 -0.610884 -0.201239 0.710315
28.7636 16.0668 22.3453 0.85389 1.30085 1.3594
28.684 13.3853 21.1539 -1.63401 0.309589 -1.43606
30.8697 14.168 22.8622 -0.817945 -0.764687 0.344438
32.7047 13.4401 20.7619 1.56114 -0.337259 0.621596
32.7843 16.1216 21.9533 -1.02398 -0.422277 -1.72264
8.24139 19.0546 24.2236 -0.264741 -0.141844 -0.418524
7.97025 20.2256 21.6064 0.530994 1.08149 -0.945117
7.27354 17.4602 22.0259 -0.640206 -0.772969 -0.874666
12.9401 20.2933 21.1218 -0.0345945 -1.65907 -0.268874
10.5908 19.674 22.6727 1.19028 0.500436 2.30695
12.2434 17.528 21.5414 -0.430264 -1.39444 -0.0206158
9.89407 16.9086 23.0922 -0.0721408 -0.747019 0.312291
9.62293 18.0796 20.475 -0.126976 -1.3953 0.536191
15.5607 19.7417 22.1882 -1.6139 0.0942468 -0.992523
13.2113 19.1224 23.739 1.32312 1.97133 -0.429624
14.864 16.9764 22.6077 -1.33452 1.75402 -0.124384
20.8017 18.6386 24.3208 -0.162831 1.67815 -1.48148
20.5306 19.8095 21.7036 -1.64259 1.36723 0.457848
18.1812 19.1902 23.2545 0.107932 -0.155118 1.19625
17.91 20.3611 20.6373 0.444474 0.0330111 -0.32872
19.8339 17.0442 22.1232 -1.38015 -0.476385 -0.591526
17.2133 17.5958 21.0568 -0.898025 -1.28201 1.59896
22.6367 17.9107 22.2205 1.10066 1.61506 -1.76805
24.8224 18.6934 23.9288 1.02152 1.03537 -0.0730812
24.5513 19.8644 21.3116 0.0867865 -0.717921 1.42662
26.6574 17.9656 21.8285 -0.563082 0.590651 2.06905
28.8432 18.7483 23.5368 2.3963 1.73292 1.31106
28.572 19.9192 20.9196 -3.2458 -1.009 0.458143
30.9493 16.8495 24.0537 -0.585546 0.665878 -0.205884
30.6782 18.0204 21.4365 1.38005 0.148193 -0.788325
32.5928 19.974 20.5276 -2.70027 0.178441 -0.240103
32.8639 18.8031 23.1448 -2.07292 -1.16706 -0.319027
34.6989 18.0753 21.0445 0.271148 -1.9245 -1.98206
7.40233 21.799 23.9538 -1.91617 1.00353 0.518751
7.13119 22.9699 21.3366 1.73167 -0.843836 -1.36682
12.3722 21.8668 23.4692 1.65226 0.358249 2.04763
12.1011 23.0377 20.852 1.19313 0.44303 0.829943
9.7517 22.4183 22.4029 0.0354532 -1.81736 -0.969125
14.7216 22.4861 21.9183 0.781262 -1.19865 0.375825
14.1537 24.0595 24.2657 0.0993828 0.134741 0.718663
19.9626 21.3829 24.051 -0.608816 0.0501814 -0.150366
19.6915 22.5539 21.4338 1.01178 0.556312 1.15153
17.3421 21.9345 22.9847 -0.841206 -0.140542 1.77175
19.1236 24.1273 23.7812 0.831385 1.49477 -0.0398554
22.7163 20.5922 23.4119 1.14693 -0.35635 0.370792
22.4452 21.7632 20.7947 -1.16782 0.396168 0.540932
21.8772 23.3366 23.1421 -1.14766 -0.387006 -1.41682
24.6309 22.5458 22.5031 3.52322 -0.635395 0.464813
26.8166 23.3285 24.2114 0.841244 1.9388 0.667867
26.737 20.6471 23.0199 1.41238 0.160187 -1.14068
26.4659 21.818 20.4027 -1.46614 0.284481 -1.14065
28.6516 22.6007 22.1111 0.633051 0.0281378 0.962499
30.8373 23.3834 23.8194 1.49244 -0.105544 -1.52745
30.7578 20.7019 22.6279 0.723453 -1.08225 1.35379
32.6723 22.6555 21.7191 1.18431 0.591878 -0.167888
34.8581 23.4382 23.4274 -0.176909 1.38945 0.464489
34.7785 20.7567 22.2359 0.188414 0.654068 1.44023
36.6931 22.7104 21.3271 -0.236037 0.00380542 -0.312196
8.91264 25.1627 22.1331 -0.187194 -0.511928 1.83336
6.56325 24.5433 23.6839 -0.923388 1.14914 -0.859252
6.29211 25.7143 21.0667 -0.147073 0.96996 0.805628
8.07356 27.9071 21.8632 -1.11071 -0.0250606 -2.01501
5.72419 27.2877 23.4141 0.626064 1.29849 -1.48523
11.5331 24.6111 23.1994 -0.446894 2.79424 0.673576
11.262 25.7821 20.5822 -1.6995 1.10284 1.41442
13.0435 27.9749 21.3787 1.86166 -0.467065 -0.901044
10.6941 27.3555 22.9296 -0.971456 0.416204 0.278338
16.5031 24.6789 22.7148 -2.83198 0.65474 -1.65249
13.8825 25.2305 21.6485 1.70807 1.58995 0.0942338
15.664 27.4233 22.445 1.96019 -1.53188 -1.71409
13.3146 26.8039 23.9959 0.193032 0.0923269 0.528785
18.8524 25.2983 21.164 -0.250282 -0.407171 0.0464385
18.2845 26.8717 23.5114 0.517221 -1.07032 1.10607
18.0134 28.0426 20.8941 1.25679 -1.0244 -0.73904
21.6061 24.5075 20.5249 0.679409 -0.615481 2.34914
21.0382 26.081 22.8723 1.29818 0.0882695 1.80605
23.7918 25.2902 22.2332 -0.531976 -0.794434 -0.459164
22.9527 28.0346 21.9634 0.443979 -0.042001 0.312178
26.5455 24.4995 21.5942 -0.856054 -1.76562 0.25193
25.9775 26.0729 23.9416 0.849313 0.245827 -0.0878822
25.7064 27.2439 21.3244 -1.46098 -0.46452 0.860017
28.7312 25.2822 23.3025 -1.62717 0.497099 0.590095
28.4601 26.4531 20.6853 -0.604271 -1.11675 -0.795978
27.8921 28.0265 23.0327 -0.0311534 1.24993 2.11797
30.6458 27.2358 22.3937 0.533578 -0.775062 0.152211
30.5662 24.5543 21.2022 -1.19191 -0.626859 0.688696
32.7519 25.337 22.9105 -1.92104 -1.53324 -1.17642
34.5869 24.6092 20.8102 -0.207273 -2.26748 1.48461
7.50564 29.4805 24.2106 0.544709 -0.526616 0.562696
12.4755 29.5483 23.7261 1.11963 1.20795 0.405814
12.2044 30.7192 21.1089 -0.916159 -0.249358 0.394763
9.85501 30.0999 22.6598 0.396096 -0.843736 -0.496011
14.8249 30.1676 22.1752 -0.451207 0.970922 -1.50209
17.4454 29.6161 23.2415 -0.163111 2.04395 1.20636
17.1743 30.787 20.6243 0.979197 -1.92072 -1.32842
20.1991 28.8253 22.6025 -0.35271 2.40626 0.937581
19.36 31.5697 22.3327 -0.667763 -2.10003 -0.836045
22.3848 29.608 24.3108 -1.36378 0.966388 0.796667
22.1137 30.779 21.6936 0.934404 -1.1845 -0.469715
24.8673 29.9882 21.0546 -0.910443 0.0105073 -0.0245022
24.2994 31.5616 23.4019 0.0971562 0.430729 -0.474513
25.1385 28.8173 23.6718 0.727386 -0.0222658 0.102434
27.621 29.1975 20.4155 -1.0263 1.918 0.536732
27.0531 30.7709 22.7629 -0.680601 -0.384312 1.53599
29.8067 29.9802 22.1238 1.7511 1.17306 -1.14552
11.6365 32.2927 23.4563 0.0199851 0.509702 0.0677211
16.6064 32.3604 22.9717 -0.219293 2.36479 -1.18669
13.9858 32.912 21.9054 0.426753 1.17568 -0.318307
18.5209 34.3141 22.0628 -1.02167 1.38232 0.873944
20.7067 35.0968 23.7712 -2.35172 2.09759 0.514077
21.5457 32.3524 24.041 0.837469 0.261449 1.51273
21.2746 33.5233 21.4238 -1.22068 -0.772333 0.53715
24.0283 32.7326 20.7847 0.741638 -0.644883 -0.670015
23.4603 34.306 23.1321 -1.77046 -1.25014 -1.90884
26.214 33.5153 22.4931 -1.26531 -1.63438 -1.19383
28.3997 34.298 24.2014 0.186868 0.640787 -0.887923
28.9677 32.7246 21.854 -0.351793 -0.947573 0.552488
17.0589 12.4886 26.7108 0.511885 0.608908 -1.15859
16.0911 10.8942 24.5131 0.00736138 -1.43806 -0.954956
19.6794 11.937 27.7771 1.53301 2.17807 0.683546
18.7116 10.3426 25.5795 0.451563 0.102819 0.138975
24.3173 12.0757 25.7741 -0.628972 1.3808 0.581142
21.5144 11.2091 25.6768 -1.66063 -1.06147 0.807252
7.54468 16.2892 24.6431 -0.90833 -0.619741 -0.767597
12.7857 15.1861 26.7758 1.04989 -1.75779 -0.411042
11.8179 13.5917 24.5781 -1.11771 -0.0750597 -1.61007
10.1652 15.7376 25.7094 0.740213 -0.626577 -0.957721
15.4062 14.6345 27.8421 0.160289 0.214971 1.09612
15.1351 15.8054 25.2249 2.20947 1.24936 0.219845
14.4384 13.0401 25.6444 0.786256 0.305231 -0.0740727
20.3761 14.7023 27.3576 -1.97056 -0.249754 -1.89526
20.105 15.8733 24.7404 -0.508099 0.474214 -1.8768
19.4083 13.1079 25.1599 -0.0744929 -0.940643 -1.93056
17.7556 15.2539 26.2912 -0.0236888 -1.20319 -0.686054
23.179 15.5688 27.4549 2.42504 -1.02714 -0.471359
22.4823 12.8035 27.8744 -0.382672 -0.102288 2.94817
22.2111 13.9745 25.2572 -0.312088 2.06828 0.201706
25.2851 13.67 27.9717 -0.94693 0.102822 1.41484
25.014 14.841 25.3545 -0.226771 -1.09982 0.897712
27.1997 15.6237 27.0629 0.690385 -0.770469 -0.576892
27.1201 12.9422 25.8714 1.02708 -1.12765 -0.0315036
29.0347 14.8958 24.9625 -0.959563 -1.04678 -0.678279
8.51253 17.8836 26.8408 0.0619922 -0.38832 -0.527061
11.133 17.3321 27.9071 2.57523 -0.388191 0.439748
10.8619 18.503 25.2899 0.939168 0.244548 -2.06579
10.294 20.0764 27.6373 0.336525 -0.81291 -0.056074
16.1029 17.3998 27.4226 0.456685 0.607902 1.57842
15.8318 18.5708 24.8054 -0.146378 -0.550302 -0.613156
13.4824 17.9514 26.3562 -0.745583 0.421571 0.0774685
15.2639 20.1442 27.1527 0.0651111 1.72662 2.04145
18.4523 18.0192 25.8717 0.776604 0.042665 0.622523
20.2338 20.212 26.6682 -0.780659 2.13122 -2.34778
17.8844 19.5926 28.2191 0.21492 -1.26066 0.770101
21.0728 17.4676 26.938 1.84431 -0.680019 -0.271923
22.9874 19.4213 26.0291 -1.72133 -1.10484 1.23463
22.9078 16.7398 24.8377 0.33387 -1.8228 0.254245
25.1732 20.2039 27.7375 0.650088 -0.415691 1.79355
25.0936 17.5225 26.546 -0.818581 -2.0467 -0.230722
27.0082 19.4761 25.6371 0.139517 0.430639 -0.630793
26.9286 16.7946 24.4457 -0.940127 0.984741 1.79844
29.1939 20.2588 27.3455 1.16685 0.771361 0.3149
29.1143 17.5773 26.154 -0.717238 -0.164165 1.58171
31.0289 19.5309 25.2451 1.54614 0.606492 -0.29856
7.67346 20.628 26.571 -1.84227 -0.728636 0.545177
9.18377 23.9918 24.7503 -1.89443 -2.34603 1.66289
6.83439 23.3724 26.3011 -0.126923 -0.769496 -1.48123
12.6434 20.6958 26.0864 4.42668 -0.975017 0.484826
10.0228 21.2474 25.0201 -0.906865 0.212972 -1.79357
11.8043 23.4402 25.8166 1.12272 0.462933 0.373691
9.45491 22.8208 27.3675 -0.611347 0.322512 0.684699
14.9927 21.3152 24.5355 0.771146 -0.241462 0.36758
17.0453 22.337 27.9492 -0.841117 -1.25148 -1.11604
16.7742 23.5079 25.332 1.70246 -0.946686 0.695586
14.4248 22.8886 26.8829 -0.696136 -0.00910429 0.333049
17.6132 20.7636 25.6019 0.0464798 -0.148153 -0.340041
19.3947 22.9564 26.3984 -0.338004 -0.480723 -1.46445
22.1484 22.1656 25.7593 -0.375817 0.0215078 0.895726
24.902 21.3749 25.1203 0.904451 0.170852 1.00187
21.5804 23.739 28.1067 1.15995 2.44609 -0.601951
24.3341 22.9483 27.4677 0.422338 0.971763 0.246669
24.0629 24.1193 24.8505 -0.450202 -2.40644 -2.43082
27.0877 22.1576 26.8286 0.369198 0.870256 0.712533
29.0023 24.1112 25.9197 0.694284 1.15071 0.0762233
28.9228 21.4297 24.7283 -0.557435 0.725837 0.541944
31.1085 22.2124 26.4366 -2.70953 -0.140089 -1.6705
33.0231 24.1661 25.5277 -0.793617 -0.741535 0.592407
32.9435 21.4846 24.3363 0.340702 -1.02431 -2.66035
8.61584 25.5652 27.0977 -1.17521 -2.13163 -0.43798
8.3447 26.7361 24.4804 -0.445743 0.318172 1.38166
5.99533 26.1168 26.0313 0.307474 -1.38995 -0.0762563
11.2364 25.0136 28.164 -0.2084 -0.776246 -0.0330143
10.9652 26.1845 25.5468 2.27098 -1.56273 -0.452672
10.3973 27.758 27.8942 0.388158 -2.00374 -0.723126
16.2062 25.0814 27.6794 -0.15007 0.773186 1.15552
15.9351 26.2523 25.0622 1.43449 -0.601364 -0.956169
13.5857 25.633 26.6131 -0.864512 0.589077 1.20354
15.3672 27.8257 27.4096 0.152673 0.629322 -2.64515
18.5556 25.7007 26.1286 -1.07476 0.371465 -0.535659
20.7414 26.4834 27.8369 -1.32492 2.59194 0.898576
20.4702 27.6544 25.2197 0.796467 0.339724 -1.80329
21.3093 24.91 25.4895 -1.45789 -0.0445679 -3.14809
23.495 25.6927 27.1978 1.36894 0.694128 0.0365919
23.2239 26.8636 24.5806 0.62201 -2.17842 1.47907
26.2487 24.902 26.5588 0.881909 -0.751175 -0.938785