ITEM: TIMESTEP
0
ITEM: NUMBER OF ATOMS
686
ITEM: BOX BOUNDS ss ss ss
6.5916221235783157e+00 3.3162717271317938e+01
5.8364813111435696e+00 3.4903621664486458e+01
7.3049037863000938e+00 3.3485096835618705e+01
ITEM: ATOMS x y z vx vy vz
13.2064 11.8038 10.9576 -0.635814 -0.714053 0.380243
16.5236 14.0175 11.6044 -0.156106 2.33265 -1.11185
15.5558 12.4232 9.40673 0.0911884 0.0160504 -0.849602
17.6619 10.5244 9.92359 -1.31234 1.42367 -1.63086
18.3586 13.2897 9.50405 1.20874 0.47281 -0.179907
20.4648 11.3909 10.0209 0.217061 0.0383993 0.658988
23.2676 12.2574 10.1182 -0.112063 0.646349 -1.27911
28.8733 13.9905 10.3129 -1.03691 0.686226 0.475501
26.0705 13.1239 10.2155 0.358939 -1.44622 0.0671047
13.9031 14.5691 10.538 1.72321 -0.578442 0.492093
17.2203 16.7829 11.1848 -0.643074 -0.0550433 0.369357
16.9492 17.9538 8.56763 0.165092 0.0853928 0.752581
16.2525 15.1885 8.98718 0.880943 0.232668 0.32952
14.5998 17.3344 10.1185 0.274366 1.60227 -0.151534
20.0232 17.6494 11.2822 -1.71963 1.67041 0.534873
19.0553 16.055 9.0845 -2.07983 0.21198 2.05415
21.1615 14.1562 9.60136 -0.670624 1.40288 0.806953
24.661 17.7881 9.27913 -0.900656 0.272453 0.0092886
21.8582 16.9215 9.18182 -1.16704 -0.148062 -0.309801
23.9643 15.0227 9.69868 -0.600809 -0.833452 0.476554
26.7672 15.8893 9.796 -1.14288 -0.881486 0.634119
29.57 16.7558 9.89331 0.234277 2.40763 -1.35758
31.7557 17.5385 11.6016 1.53912 -1.32557 -0.570054
13.6438 22.2457 10.8303 0.975224 0.741809 0.165104
12.9471 19.4804 11.2498 -0.838281 -0.0373579 -0.0392823
17.917 19.5482 10.7653 1.58571 -1.64827 0.959779
17.6459 20.7191 8.14808 -0.172785 -0.744154 2.63624
15.2965 20.0997 9.69895 0.713066 -0.074194 1.81257
18.6137 22.3135 10.3457 -1.72985 1.93358 0.379347
20.7199 20.4147 10.8626 -0.508991 1.48397 -0.658942
20.4487 21.5856 8.2454 -0.712835 -0.499434 -0.571221
19.752 18.8203 8.66495 0.810112 -0.501802 -0.880271
23.5227 21.2812 10.9599 0.052802 0.687893 1.40777
25.3577 20.5534 8.85958 0.141775 2.63131 -0.291827
22.826 18.5159 11.3795 0.180189 0.718086 -0.812302
22.5549 19.6868 8.76226 1.05155 1.5212 0.388061
25.6289 19.3824 11.4768 -2.59146 -0.626813 0.457477
27.5435 21.3361 10.5679 1.09607 -1.85098 -0.378999
27.4639 18.6546 9.37645 -0.221171 -0.211205 -0.338028
29.6496 19.4373 11.0848 -0.840144 -0.324109 0.508929
16.9611 24.4594 11.4771 2.14473 -0.330807 0.516544
16.6899 25.6304 8.85986 0.970576 0.466672 -0.931165
14.3405 25.011 10.4107 0.35035 -0.198688 0.839932
15.9932 22.8651 9.2794 -0.748911 -1.31958 -1.13606
19.3104 25.0788 9.92619 0.0553222 0.554172 0.18462
19.0393 26.2498 7.30898 -1.30376 -0.395705 0.492241
21.4962 25.8615 11.6345 0.394793 -1.91672 0.197928
21.4166 23.18 10.4431 -1.33807 -0.552422 -0.619517
21.1454 24.351 7.82585 1.04769 -1.53514 -1.70525
18.3426 23.4844 7.72853 0.677285 2.28118 -2.86618
23.3312 25.1337 9.53418 -0.934023 -0.905483 1.46588
23.2516 22.4522 8.34272 0.0867358 -0.361861 2.07293
25.5169 25.9163 11.2425 0.742401 0.795791 -0.588187
25.4373 23.2349 10.051 1.41688 0.0318999 -0.0529675
16.122 27.2038 11.2072 -0.467925 1.42211 -0.567731
18.4714 27.8232 9.65637 -1.62835 -1.20034 1.16371
21.225 27.0324 9.01732 1.1742 1.52137 -1.82942
20.6571 28.6059 11.3647 -0.734539 -2.15419 -0.31371
23.4108 27.8151 10.7256 -0.238804 -0.408811 0.253343
17.9331 9.35342 12.5408 0.936189 0.231739 -0.655271
21.007 9.04898 15.2553 -0.392176 -2.25195 0.96898
18.2042 8.18247 15.158 -0.0413255 0.784691 -3.17597
23.8099 9.91551 15.3526 0.565222 -0.539858 0.722506
14.1742 13.3982 13.1553 1.52716 -0.412052 0.556503
13.4775 10.6328 13.5748 0.543667 1.03546 0.284617
11.8249 12.7788 14.7061 0.691432 1.60669 -1.73942
11.5537 13.9497 12.0889 0.323683 1.56656 1.01537
16.7948 12.8466 14.2216 -0.837239 -2.17527 0.217166
16.098 10.0813 14.6411 -2.73451 0.105405 -0.252675
15.8269 11.2522 12.0239 -0.973432 1.79299 -1.19415
14.4454 12.2272 15.7725 0.513438 -0.0694739 -0.329066
19.5976 13.7131 14.3189 0.294574 0.482697 -0.744186
21.7037 11.8143 14.8358 -0.480666 -0.166398 0.635516
21.4326 12.9853 12.2186 1.7953 1.06709 -1.10418
18.9009 10.9478 14.7385 -0.0163835 -0.820617 0.0598654
18.6298 12.1187 12.1212 0.35243 -1.14159 -2.6723
20.7359 10.2199 12.6381 -0.574284 0.357874 0.747
24.5066 12.6808 14.9331 0.777465 -0.72151 -0.579133
24.2354 13.8518 12.3159 -2.00774 0.0531975 -0.403812
23.5387 11.0865 12.7354 0.970049 2.03779 1.62762
27.3094 13.5474 15.0304 0.905559 0.446854 1.8286
29.1444 12.8195 12.9301 -0.916124 -0.679375 -1.45854
26.6127 10.782 15.45 -0.324931 0.978862 0.62828
26.3416 11.953 12.8328 -0.23767 0.198359 -0.860034
29.4156 11.6486 15.5473 1.22387 0.268898 -0.0352075
10.1722 14.9247 15.8374 -0.221987 0.445183 0.157483
9.90105 16.0957 13.2202 -0.298392 0.906019 -0.38349
8.24838 18.2416 14.3516 1.28128 0.0373317 0.393924
12.5216 15.5441 14.2866 0.498889 0.618114 -0.149347
12.2504 16.7151 11.6694 -0.592704 -1.17739 -1.38492
10.8689 17.69 15.4179 -0.248259 0.683124 -1.77218
17.4915 15.6119 13.802 -0.905352 -1.4228 1.05326
15.8388 17.7578 14.9334 1.48475 -0.618417 -0.926831
15.1421 14.9925 15.3529 -0.29497 -1.36349 -0.718003
14.8709 16.1635 12.7357 -0.608092 -2.52419 -1.62669
18.4593 17.2063 15.9997 -0.034451 -1.65584 -0.233985
20.2943 16.4784 13.8994 0.111064 0.928104 -0.70644
19.3265 14.8841 11.7017 0.218443 0.571243 -2.57658
23.0972 17.3449 13.9967 -1.77889 0.310722 0.525441
25.2033 15.4461 14.5135 -0.889714 0.175156 -1.70431
24.9322 16.6171 11.8963 0.0654136 -1.86098 -0.881769
22.4004 14.5796 14.4162 -1.68539 1.09002 1.51187
22.1293 15.7506 11.799 1.90625 -0.523707 -1.05279
25.9 18.2115 14.094 -1.26843 0.377041 -0.121965
28.0061 16.3127 14.6109 -0.226106 -0.687049 0.543922
27.735 17.4836 11.9937 0.0941544 -0.454385 -0.443869
27.0383 14.7183 12.4132 0.905772 0.157006 1.61359
29.9207 18.2663 13.702 1.18612 1.13837 0.522808
30.1123 14.4139 15.1277 0.47483 1.11414 -0.171505
29.8411 15.5848 12.5105 0.784304 -0.35827 -0.844306
32.0269 16.3675 14.2189 -0.551715 1.3139 2.66409
8.94509 21.0069 13.932 0.259768 2.6199 -0.490635
6.5957 20.3876 15.4829 1.42505 0.157854 2.14182
13.915 21.0747 13.4475 -0.35461 -0.181048 -1.85737
13.2183 18.3094 13.867 0.789587 -0.0665993 0.0906098
11.5656 20.4554 14.9983 1.28346 -0.126835 -0.419557
11.2945 21.6263 12.3811 -0.337838 0.353647 1.01205
10.5978 18.861 12.8007 -0.54756 2.29794 0.714574
16.5355 20.5232 14.5138 -0.692052 -0.255216 0.839927
16.2644 21.6941 11.8966 -0.0859458 -1.36036 1.35209
15.5677 18.9288 12.3162 2.02279 -1.55353 -1.6884
21.6877 22.0091 13.0603 -0.476833 0.402794 -1.90339
19.156 19.9716 15.5801 -0.123935 -0.577732 -0.610217
18.8849 21.1425 12.9629 -1.58131 0.0639603 -0.992818
20.991 19.2437 13.4798 -0.889613 -1.32348 1.60777
18.1882 18.3772 13.3825 2.22067 -1.25944 2.27936
21.9589 20.8381 15.6775 -1.95268 -0.318405 -1.91906
23.7939 20.1103 13.5771 -1.31368 -0.840769 -0.6465
25.9796 20.8929 15.2855 -0.581668 -2.10049 -1.54055
25.7085 22.0639 12.6683 -1.24713 0.989246 -1.15407
28.0857 18.9942 15.8023 -1.64163 0.611532 2.94052
27.8146 20.1651 13.1851 0.301631 0.512569 1.03565
30.0003 20.9478 14.8935 -0.137492 -0.852515 0.0557033
29.7292 22.1187 12.2762 2.35639 -1.64343 -0.367233
32.1065 19.049 15.4103 -0.571854 -1.50862 1.89089
31.8353 20.2199 12.7931 -0.770915 1.47925 1.17274
9.64179 23.7723 13.5125 1.46019 0.659222 -0.0293543
7.29241 23.1529 15.0634 1.5506 -0.139421 -1.63994
9.07386 25.3457 15.8599 -1.00917 0.73575 -0.0700275
12.2623 23.2207 14.5788 0.140921 0.198609 -1.58982
11.9912 24.3917 11.9616 -0.98058 0.340693 -0.575644
14.0438 25.4135 15.3753 -1.38049 -0.0742625 -3.20191
13.7726 26.5844 12.7581 1.39039 0.0551536 1.75488
11.4232 25.9651 14.309 0.935396 0.208394 -0.167732
17.2322 23.2885 14.0943 0.0397693 -0.490298 0.487137
14.8828 22.6691 15.6451 0.30725 -0.568206 -0.177064
14.6117 23.8401 13.0279 0.308152 0.873903 1.27527
16.3931 26.0329 13.8244 -1.48355 0.914903 1.40157
19.8527 22.7369 15.1606 1.46964 0.50077 0.516368
19.5816 23.9079 12.5434 -1.25215 1.17616 0.922638
19.0137 25.4813 14.8908 -2.10863 -0.381868 -0.348587
21.7673 24.6905 14.2517 2.47651 -1.11661 -0.525661
23.953 25.4732 15.9601 -0.909128 0.00364978 1.35216
23.8735 22.7917 14.7686 -0.290543 1.98767 0.166947
23.6023 23.9627 12.1514 -0.0730872 -0.937866 0.200829
25.788 24.7454 13.8597 -0.232307 0.483237 0.381325
27.9738 25.5281 15.5681 -0.479663 0.875287 0.829048
27.8942 22.8466 14.3766 -0.814073 -0.390685 0.868273
27.623 24.0175 11.7594 1.20287 -0.998099 -1.28542
29.8088 24.8002 13.4677 -0.574637 1.09965 1.9152
31.9945 25.5829 15.176 0.0777811 0.308998 1.11094
31.9149 22.9014 13.9846 0.843925 0.249087 -0.270244
13.2047 28.1579 15.1055 -0.524382 -1.15772 -0.890376
17.9034 29.3966 12.0038 -0.132192 1.37361 1.04381
15.5541 28.7772 13.5546 -0.310087 -2.56723 1.19275
14.9861 30.3507 15.902 -1.09216 0.980436 1.81436
18.7425 26.6522 12.2736 -1.75455 0.364961 -0.249443
18.1746 28.2256 14.621 -1.12072 -0.261333 2.0796
20.9282 27.4349 13.9819 -0.875484 0.161101 0.490034
20.0892 30.1793 13.7121 0.241973 0.197453 0.652421
23.6819 26.6442 13.3429 -0.176404 -1.20389 0.831646
23.114 28.2176 15.6902 0.27771 0.46318 -0.0377578
22.8428 29.3886 13.073 1.08705 -1.24028 -0.134428
25.0286 30.1712 14.7814 0.290347 0.537718 -0.181135
25.8676 27.4269 15.0512 -0.593058 1.2808 0.512253
25.5965 28.5978 12.434 0.277252 1.55042 -0.493751
27.7822 29.3805 14.1423 1.9187 -1.27333 0.537278
27.7026 26.699 12.9508 -0.608971 0.660164 0.662339
29.968 30.1632 15.8507 -1.0804 1.31894 -0.503217
29.8884 27.4817 14.6592 -0.0841963 -1.43756 0.566192
17.3355 30.97 14.3511 0.422616 -0.548741 -1.23362
22.2749 30.962 15.4204 -0.255713 2.5366 -0.34005
14.0198 8.29094 18.8092 0.431022 1.07497 1.13988
13.7487 9.46189 16.192 -0.702739 1.39921 -0.115217
16.6403 7.73935 19.8755 -0.30237 -1.24919 -0.454439
16.3692 8.91031 17.2583 -2.11824 -1.23801 -0.32887
19.4432 8.60588 19.9729 -1.95296 -1.60145 -1.14675
19.172 9.77683 17.3557 -0.527627 -1.51264 -0.55603
21.2782 7.87803 17.8725 -0.363949 -0.451805 0.547227
18.7465 5.84056 20.3924 0.18553 0.594479 -0.79348
18.4753 7.01151 17.7752 -0.281323 -0.0822104 -0.301887
22.246 9.4724 20.0702 -0.185991 -1.08228 0.389775
24.081 8.74456 17.9698 0.7736 0.660925 -1.78937
26.8839 9.61108 18.0672 -0.0771356 1.17373 1.19994
13.0638 13.2022 19.521 1.00366 -0.791556 -0.622894
12.3671 10.4369 19.9405 1.24329 1.09062 -0.379876
12.096 11.6078 17.3233 -1.83612 0.62566 0.592824
10.4433 13.7538 18.4546 -0.144581 0.759973 -1.95302
17.337 10.5047 19.456 -0.554658 0.0720827 1.73249
17.0659 11.6756 16.8388 1.03364 -0.829462 0.101328
15.4132 13.8216 17.9701 -0.640423 -2.10276 -0.778594
14.7165 11.0562 18.3897 1.91302 -0.346907 -1.5278
20.8366 14.1365 19.1338 1.16676 0.517865 2.38093
18.0337 13.27 19.0364 -1.75873 -0.502064 0.230748
20.1399 11.3712 19.5533 1.85399 -0.450459 -0.79586
19.8687 12.5422 16.9361 0.910966 0.414287 -0.962861
22.9427 12.2377 19.6506 1.1164 0.456547 0.475629
22.6716 13.4087 17.0334 -0.443176 2.78686 0.77303
25.0489 10.3389 20.1675 -0.631414 0.339819 -0.468786
24.7777 11.5099 17.5503 0.120503 0.358857 -0.3806
21.9749 10.6434 17.453 -1.55395 0.845 -0.0514732
28.5484 13.9708 19.8453 0.403008 -0.840403 -0.38706
25.7456 13.1042 19.7479 0.531884 1.59763 -0.0544409
27.8517 11.2054 20.2648 -1.00682 1.34285 1.01837
27.5806 12.3764 17.6476 -1.09899 -0.726813 0.235848
30.6546 12.072 20.3621 -2.6707 -0.557253 1.42201
30.3834 13.2429 17.7449 -1.08325 -0.37229 -0.111758
32.5691 14.0256 19.4533 0.75568 -0.453662 1.78639
29.6867 10.4776 18.1645 0.513638 2.90397 -0.298481
8.79065 15.8997 19.586 -0.0985725 1.10357 -0.396745
8.51951 17.0707 16.9688 2.21576 2.10483 1.01318
13.7605 15.9675 19.1014 -0.0246963 -1.03837 0.764629
13.4894 17.1385 16.4842 2.55241 -1.59312 -1.82193
12.1079 18.1135 20.2328 -0.00514176 1.24134 2.0906
12.7927 14.3732 16.9038 0.831731 0.444139 -0.286044
11.14 16.5191 18.0351 0.317406 2.52707 -1.21153
17.0778 18.1813 19.7482 0.728856 2.08828 -0.51961
17.7626 14.4409 16.4192 -1.24931 0.637908 -1.21822
16.3811 15.4159 20.1678 1.86107 -0.130472 -0.444307
16.1099 16.5869 17.5506 -0.11333 0.761219 1.19
21.5333 16.9018 18.7142 -0.0378494 -1.23744 -0.674133
21.2622 18.0728 16.097 0.620295 0.605802 -1.47863
18.7304 16.0353 18.6169 1.313 1.98213 -0.392098
20.5654 15.3075 16.5166 -0.945294 0.444959 0.506623
24.3361 17.7684 18.8115 1.51609 2.12111 0.68421
23.6394 15.003 19.2311 2.18453 1.22607 0.266201
23.3683 16.174 16.6139 -1.3516 1.72771 -0.0812242
25.4744 14.2752 17.1307 0.343279 -0.84829 0.0379216
26.4423 15.8696 19.3284 0.480598 0.558471 -1.12653
26.1711 17.0405 16.7112 2.74593 -0.88666 1.42233
28.3569 17.8232 18.4195 1.42585 -0.970574 -2.47889
28.2773 15.1417 17.2281 -0.223361 0.324077 -2.0439
30.463 15.9244 18.9364 -0.667226 2.26857 -0.923859
30.1919 17.0954 16.3192 1.12564 1.18426 1.59433
32.3776 17.878 18.0275 -2.42195 0.998449 -1.82169
32.298 15.1966 16.8361 -2.38315 -2.00181 -1.63927
10.1841 21.4304 18.7469 -1.14677 -1.79853 -1.28094
7.83468 20.811 20.2978 -0.668215 -3.45562 -2.81743
7.56355 21.982 17.6806 -2.66778 -0.170436 -1.78033
9.48736 18.665 19.1664 1.8523 -1.01414 -1.76655
9.21622 19.836 16.5492 1.09844 0.568478 0.220833
6.86684 19.2166 18.1001 -1.87016 0.693129 -0.70718
12.8046 20.8788 19.8132 0.559027 0.261845 0.233731
12.5334 22.0498 17.196 -2.47715 0.579638 0.767657
11.8367 19.2844 17.6156 -0.989613 1.90658 0.504801
17.7745 20.9466 19.3287 1.06529 -0.136715 0.818489
17.5033 22.1175 16.7115 0.938629 -0.703672 1.12387
15.154 21.4982 18.2623 -0.817295 -0.131981 1.75671
16.8066 19.3522 17.131 -0.894784 0.609991 -1.30056
14.4573 18.7328 18.6819 -0.119772 2.05936 1.23253
14.1861 19.9038 16.0647 1.03557 -1.91325 -1.30786
20.1239 21.566 17.7778 1.10099 1.04572 0.374823
19.4271 18.8006 18.1973 0.468024 0.585318 1.5866
22.3096 22.3486 19.4861 0.771421 -0.914808 1.75292
22.23 19.6672 18.2947 0.103993 -0.252144 -0.320344
24.4157 20.4498 20.003 -1.07659 -0.574086 0.407131
24.1446 21.6208 17.3858 -0.372974 -0.181722 2.91926
24.065 18.9393 16.1943 -0.0814129 -1.00461 -1.9356
26.3303 22.4035 19.0941 -1.28895 -1.32585 -0.46304
26.2507 19.722 17.9027 0.431214 0.0413373 0.133749
28.4365 20.5047 19.611 -1.51888 0.414443 2.02597
28.1653 21.6756 16.9938 1.24884 -0.519128 1.3541
30.5426 18.6059 20.1279 -0.174323 -0.526508 1.95055
30.2715 19.7768 17.5107 0.233235 -2.705 -0.0566674
32.4572 20.5595 19.219 -0.32227 -2.34952 0.168279
32.186 21.7305 16.6018 1.42971 -0.546097 -1.28745
9.91293 22.6014 16.1297 0.980765 0.0295167 1.87899
9.34499 24.1748 18.4771 0.754158 -1.10156 1.23782
6.99562 23.5554 20.028 -0.743922 1.13285 -2.14888
6.72448 24.7264 17.4107 2.00006 -0.889983 0.100021
11.9655 23.6232 19.5434 0.115126 -2.5811 1.26137
11.6944 24.7941 16.9262 0.956259 -0.78614 -1.01676
13.747 25.816 20.3399 0.752068 1.11938 -0.0115813
11.1264 26.3675 19.2736 -1.59547 1.43047 1.6035
16.9354 23.691 19.0589 -0.21188 -0.402168 0.0307686
16.6643 24.8619 16.4417 0.685495 -0.870969 0.982038
14.3149 24.2425 17.9925 1.22847 2.42271 -0.650144
16.0963 26.4353 18.789 -0.388046 -2.4372 -2.4948
19.5559 23.1394 20.1252 -0.423638 -1.19151 -0.0275739
19.2848 24.3103 17.508 -2.73178 -1.77893 -0.299134
18.7169 25.8837 19.8554 0.113816 -0.373659 -0.498599
21.4705 25.093 19.2163 -0.902142 -0.46405 1.96135
21.1994 26.264 16.5991 -0.635622 0.00334187 0.462184
22.0384 23.5196 16.8689 1.7295 -0.665094 0.0412241
24.2242 24.3023 18.5773 1.39939 -1.22772 -2.11197
26.4099 25.085 20.2856 0.763725 -0.582905 1.01031
26.1388 26.2559 17.6684 -2.31287 1.27111 0.596061
26.0592 23.5744 16.4769 -1.65458 -1.1442 0.770688
28.2449 24.3571 18.1853 1.05521 0.876715 -0.813774
30.4306 25.1398 19.8936 0.760411 -0.660847 -0.923738
30.1595 26.3108 17.2764 -0.0410696 -0.78499 0.34486
30.3511 22.4583 18.7021 -1.88756 0.982551 0.603882
30.0799 23.6293 16.0849 1.77608 -0.870421 -1.28658
32.2656 24.412 17.7933 -0.166559 -0.105408 -0.673294
8.50593 26.9191 18.2073 -1.02093 -1.59294 2.05952
10.2874 29.1119 19.0038 -1.04727 -0.93008 -0.945347
13.4758 26.9869 17.7227 -1.56017 0.461479 0.500042
10.8553 27.5385 16.6564 -0.101434 -1.11148 0.543979
12.9079 28.5603 20.0701 0.884684 0.0369912 0.354922
12.6368 29.7313 17.4529 -1.13284 -0.443536 -1.34099
15.8252 27.6063 16.1718 -0.458141 -0.826988 -0.523782
17.8778 28.6281 19.5855 -0.798935 -1.79771 0.177145
17.6067 29.7991 16.9683 0.411401 0.0732624 -0.0792558
15.2573 29.1797 18.5192 0.789898 -0.73906 -1.0399
18.4457 27.0547 17.2382 -0.273315 -1.04601 0.790272
20.6314 27.8374 18.9465 1.18306 0.820305 -0.35335
20.3603 29.0083 16.3293 -2.07922 0.860258 0.50492
19.7924 30.5818 18.6767 1.72742 -0.689394 2.25737
23.3851 27.0467 18.3074 -0.313092 0.2311 -0.530149
22.546 29.791 18.0376 -0.996532 -1.32113 0.107303
25.5708 27.8293 20.0158 -0.317964 0.424707 -0.550532
25.2997 29.0003 17.3986 -0.128248 3.46839 -0.587054
24.7318 30.5737 19.746 -2.18794 -0.402272 1.15196
28.3245 27.0386 19.3767 0.299378 2.27576 -1.90017
28.0534 28.2096 16.7595 1.22916 0.0196908 -1.82561
27.4854 29.783 19.1069 -0.382359 -0.151359 -0.93875
30.2391 28.9922 18.4679 -1.08856 -0.119208 -1.61553
32.3452 27.0934 18.9847 -1.0567 -0.970799 -0.210734
32.0741 28.2644 16.3675 0.312691 -2.0761 -2.0502
12.0688 31.3047 19.8003 1.66656 -1.59021 -1.11931
17.0387 31.3725 19.3157 1.26199 -0.656063 -0.20561
16.7676 32.5434 16.6985 0.629101 -1.5832 0.496491
14.4182 31.9241 18.2494 -0.646137 1.25187 1.48238
16.1997 34.1169 19.0459 0.57834 -0.270187 0.608627
19.5212 31.7527 16.0595 0.30422 0.108236 -1.13822
18.9533 33.3261 18.4069 0.333055 1.43246 0.404786
21.707 32.5354 17.7678 -0.2755 0.283836 -0.67945
21.139 34.1088 20.1152 -1.76638 1.03752 0.815554
21.9781 31.3644 20.385 1.53399 -0.249569 -0.398084
24.4606 31.7447 17.1288 0.373845 0.556973 0.84928
23.8927 33.3181 19.4761 0.0210357 -2.02695 0.0919574
27.2143 30.9539 16.4897 0.099256 -1.09994 1.49272
26.6464 32.5273 18.8371 -1.14488 -1.71438 -1.21946
29.4 31.7366 18.198 -0.131156 -2.39439 1.41224
12.6383 9.26593 22.5577 -1.03965 -0.123612 -3.12541
17.8793 8.16277 24.6904 -0.487146 1.02027 -1.38728
17.6082 9.33372 22.0732 -0.557455 -0.601804 1.97027
16.9115 6.5684 22.4927 -0.636771 2.66658 0.42676
15.2588 8.71434 23.6241 -1.11375 -0.443965 -1.74752
14.9876 9.8853 21.0069 -0.413307 -1.83399 -0.0961747
14.2909 7.11998 21.4264 -1.00071 -0.222225 0.865798
19.7143 7.43493 22.5901 -0.836064 -0.805309 0.626842
21.5493 6.70708 20.4897 0.553939 -1.7983 -1.97121
25.32 9.16797 22.7847 0.745134 -0.218599 -1.13847
22.5172 8.30145 22.6874 -0.702251 -0.424699 1.62737
24.3522 7.57361 20.587 0.599614 1.3268 -1.31219
27.155 8.44013 20.6844 -0.268526 1.04102 -1.34654
29.9578 9.30665 20.7817 -1.17103 1.79921 -0.310224
13.6061 10.8603 24.7554 1.08893 -1.32786 -0.0477483
13.335 12.0312 22.1382 0.0572025 0.813131 2.07052
10.9856 11.4119 23.6891 0.126857 -0.349813 -1.08751
10.7145 12.5828 21.0719 1.21974 0.823132 0.208252
15.9555 11.4797 23.2045 0.392551 1.07011 -0.652967
15.6844 12.6506 20.5873 -0.632036 0.14462 -1.63322
14.3028 13.6256 24.3358 0.928159 -1.15189 -0.42963
19.2727 13.6934 23.8513 -0.524989 0.552777 1.00298
21.3789 11.7946 24.3682 2.5297 -0.364607 0.517299
21.1077 12.9656 21.751 0.903602 0.265262 -1.99382
18.576 10.9281 24.2709 1.60354 0.406674 2.13161
18.3049 12.099 21.6536 1.15567 0.487982 0.909762
20.411 10.2002 22.1705 0.171745 0.113118 0.638363
24.1817 12.6611 24.4655 0.40497 0.466291 -2.43279
23.9106 13.8321 21.8483 0.121317 0.194099 1.14625
23.2139 11.0668 22.2678 0.70844 -1.80915 0.323429
26.9846 13.5277 24.5628 -0.539689 2.56444 0.726773
28.8196 12.7998 22.4625 -0.490466 -1.39969 0.0799687
26.0167 11.9333 22.3651 0.738156 0.470026 0.257257
28.1228 10.0345 22.882 -0.195247 -1.86221 -0.712602
31.0053 13.5825 24.1708 -0.98887 0.414289 0.427234
30.9257 10.901 22.9793 0.605947 0.823301 0.396463
32.8403 12.8547 22.0705 -0.722349 -0.234077 -0.109582
10.0296 16.3231 24.4008 0.120939 1.26671 -1.14973
9.7585 17.4941 21.7836 -0.941224 0.118992 -1.16479
9.06179 14.7288 22.2032 1.16793 1.05326 0.61936
7.40911 16.8747 23.3345 0.052198 -1.03841 1.71814
7.13798 18.0457 20.7173 0.437829 0.633009 -1.54551
14.0317 14.7966 21.7186 2.23155 -0.861626 -0.727218
12.379 16.9425 22.85 0.511283 -0.142008 1.63179
11.6823 14.1772 23.2695 0.938642 1.26655 1.03359
11.4112 15.3481 20.6523 0.431822 0.449008 -0.785085
17.3489 17.0103 22.3654 0.765381 -1.1618 0.408693
16.6522 14.245 22.785 1.46654 -1.66983 1.4797
14.9995 16.3909 23.9163 0.193104 1.32601 0.881429
14.7284 17.5619 21.2991 -1.0845 -1.01889 -0.437007
19.9694 16.4587 23.4318 -1.20949 -0.545345 -1.15283
19.6983 17.6297 20.8145 0.572567 0.207874 1.81915
19.0016 14.8644 21.2341 -0.769762 0.434233 0.11837
22.7723 17.3253 23.5291 -0.740163 -0.0373969 -1.73468
24.8784 15.4265 24.0459 -0.34748 -1.51205 0.433646
24.6073 16.5974 21.4287 -0.0539946 -1.65156 -0.184013
22.0756 14.5599 23.9486 -2.12147 1.44153 -0.152141
21.8044 15.7309 21.3314 0.821832 -0.135453 0.260596
26.793 17.3801 23.1371 -0.99663 -0.628566 -0.241482
26.7134 14.6986 21.9456 -0.61912 0.465094 1.73664
28.8991 15.4813 23.6539 -0.367706 -1.1954 -0.394224
28.628 16.6522 21.0367 0.0101629 0.790532 0.0357824
30.8137 17.4349 22.7451 -1.89522 -2.35907 1.7827
30.7341 14.7535 21.5536 -1.18711 -0.315375 -0.00636031
32.9995 18.2176 24.4534 -0.184265 -0.580739 -1.78452
32.9199 15.5361 23.2619 1.70832 -1.98403 0.0518187
32.6487 16.7071 20.6447 0.976137 -1.17297 -1.83593
8.10582 19.6401 22.915 -1.00614 -0.922016 0.397311
9.88727 21.8329 23.7115 0.799578 1.2759 -0.948275
7.26676 22.3845 22.6452 0.690042 0.776478 1.63473
13.0757 19.7079 22.4304 0.638752 2.04805 -1.83306
10.7263 19.0885 23.9813 -0.337542 2.4624 0.93063
10.4552 20.2594 21.3641 0.838832 -1.17862 -0.868407
15.6962 19.1563 23.4968 0.216459 -1.2462 0.759589
15.4251 20.3272 20.8795 0.0596015 -0.136033 -0.354593
17.4777 21.3491 24.2933 -0.323238 -0.468666 -1.47616
14.8572 21.9006 23.2269 -0.238037 -0.53401 0.347554
20.6661 19.224 23.0122 -1.66578 1.37119 0.459052
20.395 20.395 20.395 0.468779 0.521159 -0.999639
18.3168 18.6047 24.5631 0.411783 0.0711137 -0.322616
18.0456 19.7756 21.9459 -1.02284 1.04196 -0.919225
19.8271 21.9684 22.7424 0.0673802 0.347493 1.23841
22.8519 20.0067 24.7205 1.11282 -0.500647 -1.07125
22.5807 21.1777 22.1033 0.828812 2.01094 -0.259335
22.5011 18.4962 20.9119 1.55719 0.0849911 -0.82338
24.7664 21.9604 23.8117 1.12039 -0.0891243 -0.0154084
24.6869 19.2789 22.6202 0.512967 -0.664129 0.850468
26.8726 20.0616 24.3285 0.681689 -0.145955 1.01563
26.6015 21.2325 21.7113 0.113837 -0.963707 0.727013
26.5219 18.551 20.5199 -2.28561 -2.07067 1.25826
28.7872 22.0152 23.4197 -0.308522 -0.228998 -0.188338
28.7076 19.3337 22.2282 1.08059 1.19003 -0.0943476
30.8933 20.1164 23.9365 0.115608 -0.00251508 0.429005
30.6222 21.2874 21.3193 -1.82534 -0.747959 0.633153
32.8079 22.0701 23.0277 0.819821 0.74603 1.05392
32.7283 19.3886 21.8362 -0.811735 1.00018 0.123066
9.61613 23.0038 21.0943 1.56598 0.592609 -0.413541
9.04821 24.5772 23.4417 -3.42375 0.225996 -1.21225
8.77707 25.7482 20.8245 -0.509363 0.12542 0.757111
12.2366 22.4522 22.1606 1.84533 0.0890589 0.0869145
14.0181 24.645 22.9571 -1.14703 1.05112 1.63429
11.6687 24.0256 24.508 -0.594661 0.667701 -0.327431
11.3976 25.1966 21.8908 1.38487 0.145876 -0.913331
17.2065 22.52 21.6761 0.859211 1.50544 -0.052805
14.586 23.0716 20.6097 -1.56729 0.12635 -1.00496
16.6386 24.0934 24.0234 3.04164 -0.660303 0.342607
16.3675 25.2644 21.4062 0.473687 0.948294 0.188461
18.988 24.7128 22.4726 0.702478 -0.609171 2.32506
21.7417 23.9221 21.8335 1.52193 0.998312 0.446968
21.1737 25.4955 24.1809 1.4259 0.136162 -1.19851
22.0128 22.7511 24.4507 0.386845 0.741712 0.460256
24.4953 23.1313 21.1945 -0.396854 0.185978 -0.0343707
23.9274 24.7047 23.5419 -0.169404 -1.26937 -2.05753
23.6562 25.8757 20.9246 -0.65976 2.22606 -0.517813
26.681 23.914 22.9028 0.15022 -0.894768 -0.281866
28.8668 24.6967 24.6111 -0.3168 -0.201022 -0.891766
28.5956 25.8677 21.9939 0.986731 0.425801 -1.09463
28.516 23.1862 20.8025 0.486227 -1.57531 -1.19727
30.7018 23.9689 22.5108 -0.907556 0.759137 -1.0802
32.8875 24.7515 24.2191 0.194216 0.544017 1.41039
32.6164 25.9225 21.6019 0.240579 -0.990346 -0.0976887
32.5368 23.241 20.4105 -1.40121 1.67811 0.577248
13.179 27.3894 22.6873 -0.757162 0.403056 1.91358
10.8297 26.77 24.2382 -1.94235 0.73002 0.108344
10.5585 27.941 21.621 -0.40081 -0.0592021 -0.558832
12.34 30.1338 22.4175 0.443091 1.68057 -0.662944
15.7995 26.8378 23.7536 -0.527638 0.709677 0.447984
15.5284 28.0087 21.1364 0.675931 0.00764067 0.866188
17.581 29.0306 24.5501 -3.23381 -1.015 0.354606
17.3099 30.2015 21.9329 1.64254 1.68653 -1.63595
14.9605 29.5822 23.4838 -0.183709 0.13373 -2.00869
18.1489 27.4572 22.2028 0.888466 1.91437 0.596357
20.9026 26.6664 21.5637 -1.44402 0.257025 -1.20129
20.3347 28.2398 23.9111 0.260361 -0.227438 1.47088
20.0635 29.4108 21.2939 1.50828 0.00664878 3.48521
23.0883 27.4491 23.272 -2.15944 0.223563 -0.600854
22.8172 28.6201 20.6548 -0.00935538 0.728715 -1.55222
22.2492 30.1935 23.0022 1.97276 -1.44242 -1.5515
25.0029 29.4028 22.3632 -0.118525 1.26844 -0.230526
25.842 26.6584 22.633 1.70124 -0.177359 -0.66413
28.0277 27.4411 24.3413 -0.15198 0.209868 -2.1198
27.7566 28.612 21.7241 -1.07489 -1.04544 0.438977
27.1886 30.1854 24.0715 0.660748 -0.489087 1.76941
30.7814 26.6503 23.7023 0.181142 -1.2792 0.186391
30.5102 27.8213 21.0851 0.48578 1.45159 0.0496849
29.9423 29.3947 23.4324 -0.271712 -1.02405 0.548459
29.6712 30.5657 20.8152 -0.112528 1.27015 0.393813
14.1214 32.3265 23.214 -2.44192 1.84717 -1.29103
13.8503 33.4975 20.5968 -0.0363766 -0.709102 -1.53061
14.6893 30.7531 20.8666 -1.6303 -0.626149 1.03059
16.7419 31.775 24.2803 -0.370145 -1.91528 -0.0660089
16.4708 32.9459 21.6631 -0.610592 0.384059 -2.22108
19.4956 30.9842 23.6413 1.09234 0.772723 -1.53626
19.2244 32.1552 21.0241 -0.513897 -3.00417 -0.471908
18.6565 33.7286 23.3714 -0.359871 0.374086 1.36209
18.3854 34.8995 20.7542 -1.0138 0.026907 -2.04114
21.4102 32.9379 22.7324 -0.284395 0.532092 -1.28474
24.435 30.9762 24.7105 0.43936 0.299353 -0.805261
24.1638 32.1471 22.0933 -2.23704 2.07176 0.509474
26.9175 31.3564 21.4543 0.913564 0.644843 -1.47747
18.8472 9.75714 26.8881 4.36925 -0.924495 0.569896
20.6821 9.02929 24.7877 -0.898735 0.613984 1.31667
23.485 9.89582 24.885 2.05326 1.0752 1.50121
9.33293 13.5578 24.8204 -0.747656 -0.287813 0.319624
11.9534 13.0062 25.8867 -0.160857 -0.430013 -0.311936
17.1945 11.9031 28.0194 1.65426 1.66927 0.170509
16.9233 13.074 25.4022 -1.59603 0.411449 -1.09844
16.2266 10.3087 25.8217 -0.406324 0.240541 -0.0805566
14.574 12.4547 26.953 -1.38433 1.00495 0.840965
20.5117 14.1168 28.6662 0.161256 0.838122 -0.99927
19.815 11.3515 29.0857 -1.54145 -1.2363 0.283374
19.5438 12.5225 26.4685 0.030212 -1.70043 -0.508911
21.65 10.6237 26.9854 1.25272 -0.121742 -0.130557
22.3467 13.389 26.5658 -1.19901 -0.068955 0.690561
24.4528 11.4902 27.0827 0.0217005 0.930405 0.829225
27.2557 12.3567 27.18 1.06806 1.53709 1.07771
29.0907 11.6289 25.0797 0.83176 -0.921504 2.88792
26.2878 10.7623 24.9824 0.462631 1.1241 -0.817415
8.6481 17.2982 28.1494 -2.43282 -2.84538 0.264674
10.3008 15.1522 27.018 -0.2922 -0.0461307 3.11743
7.68025 15.7037 25.9517 0.921472 -0.339176 -0.272411
13.618 17.3659 27.6648 -2.86138 0.732738 -1.63966
10.9975 17.9175 26.5985 0.801134 0.397155 -1.81045
12.9213 14.6006 28.0844 -0.573539 1.65461 -0.717766
12.6501 15.7716 25.4672 -0.145149 0.255863 -1.09868
16.2385 16.8144 28.7312 -1.00631 0.0502779 1.02264
15.9674 17.9853 26.114 1.73604 -0.415617 -0.331179
17.8912 14.6684 27.5998 0.0249015 1.77383 2.08179
17.6201 15.8394 24.9826 0.743485 -0.199992 0.403254
15.2707 15.22 26.5335 0.0310273 -0.437668 -0.837593
21.2084 16.8821 28.2466 1.80143 -0.671182 -0.265894
20.9373 18.0531 25.6294 -0.196155 1.68602 -1.4796
18.5879 17.4337 27.1803 0.0630993 -0.113655 1.20685
20.2406 15.2878 26.049 -1.23351 0.589535 0.588016
23.3145 14.9833 28.7635 -0.350419 -0.767407 -0.170307
23.0434 16.1543 26.1463 -0.0463638 0.920867 -0.788705
25.2291 16.937 27.8546 -0.133788 2.31703 0.268618
24.958 18.1079 25.2374 -1.07611 -1.20214 1.12563
25.1495 14.2555 26.6631 -1.04347 -0.301388 0.930235
27.3353 15.0382 28.3715 1.45997 2.11164 1.23186
27.0641 16.2091 25.7543 1.62136 -0.908877 0.807064
29.2499 16.9918 27.4626 -0.0105762 -0.436683 0.505714
28.9787 18.1628 24.8454 -0.0538856 -1.45719 -0.927218
29.1703 14.3103 26.2711 0.714864 0.298508 -0.0066393
31.0849 16.264 25.3623 -0.622482 0.315989 0.806252
8.37696 18.4691 25.5322 0.532251 -0.74555 0.0898404
10.1584 20.6619 26.3287 -0.40809 0.698624 0.725543
7.80903 20.0425 27.8796 0.638267 0.14848 1.55841
7.5379 21.2135 25.2624 1.15652 -0.0583979 0.0704729
9.59048 22.2353 28.6761 1.67734 0.764127 0.45836
13.3469 18.5369 25.0476 1.06147 -0.360237 0.76832
12.7789 20.1103 27.395 0.443668 0.0129768 0.293586
12.5078 21.2813 24.7778 -0.450188 -2.18472 -0.871448
10.4295 19.491 28.9459 -1.22175 -0.581544 0.620248
17.7488 20.1781 26.9105 1.23051 0.609011 1.2625
15.3994 19.5587 28.4613 1.24574 -0.951521 -0.723924
15.1283 20.7297 25.8441 -0.438014 1.74232 -0.0668572
14.5604 22.3031 28.1915 -0.44662 -2.19414 0.989306
20.3693 19.6265 27.9768 0.981786 0.595297 1.16336
20.0982 20.7975 25.3596 -1.44389 -0.588077 -2.10765
19.5303 22.3709 27.707 -0.377451 0.0356557 0.875673
23.123 18.8358 27.3377 -0.190932 0.275759 1.68471
22.2839 21.5802 27.0679 3.51358 -0.637272 0.452863
25.3087 19.6185 29.0461 0.0390238 -0.717517 1.43141
25.0376 20.7894 26.4289 0.715823 0.725571 1.18362
24.4697 22.3628 28.7763 -0.975296 0.967566 1.76234
27.2233 21.5721 28.1372 -0.668248 -0.220918 0.685879
27.1437 18.8906 26.9457 1.39177 -0.269121 0.464907
29.3295 19.6733 28.6541 -0.919178 -0.0991395 1.24105
29.0583 20.8443 26.0369 -1.27196 0.238398 0.401332
31.244 21.6269 27.7452 0.818181 0.706028 1.44169
31.1645 18.9455 26.5537 -0.548773 -1.97824 -0.641645
33.0791 20.8991 25.6449 0.709083 -0.772001 -1.69902
9.31934 23.4063 26.0589 -0.877057 -2.4109 2.87497
11.9399 22.8547 27.1252 0.310596 0.720865 -0.506243
13.7213 25.0475 27.9217 -0.853923 -0.748803 0.216828
13.4502 26.2184 25.3045 0.950591 -2.85578 0.507975
11.1008 25.5991 26.8554 2.23447 -1.19362 0.963486
16.9098 22.9225 26.6406 -0.490281 0.724459 -1.4699
14.2892 23.4741 25.5743 0.415559 1.26822 -3.16745