ITEM: TIMESTEP
0
ITEM: NUMBER OF ATOMS
699
ITEM: BOX BOUNDS ss ss ss
5.9816127355588931e+00 3.4801327534952520e+01
5.6713211159054397e+00 3.5291674821737338e+01
5.6674656133041141e+00 3.5665362118650044e+01
ITEM: ATOMS x y z vx vy vz
19.3809 11.6485 9.59465 0.519855 -0.139358 0.39076
21.6538 10.1337 8.68146 0.473567 1.13993 -3.05448
21.1996 12.7948 7.67815 1.00744 0.376559 -1.04491
23.4017 12.2851 9.46295 -1.11848 0.949414 1.75114
16.6539 15.8244 9.50453 -2.15958 0.133802 -0.53562
18.9267 14.3096 8.59134 1.7166 -0.247974 -0.60625
20.6746 16.461 9.37283 -0.333078 0.382482 -0.499171
18.4725 16.9707 7.58804 0.916484 -1.00185 2.83014
20.7454 15.4559 6.67485 -0.236604 -0.199714 -0.343275
20.2911 18.117 5.67154 -2.09947 0.177475 2.05811
22.9474 14.9462 8.45964 0.292566 2.25767 -1.85901
24.6953 17.0976 9.24113 1.19842 0.0236581 -1.79106
22.4932 17.6073 7.45634 0.547578 1.05117 -0.881211
13.9268 20.0003 9.41442 1.10436 1.12362 -0.130302
16.1996 18.4855 8.50123 -0.316394 -1.27173 -0.445063
17.9475 20.6369 9.28272 0.0363187 0.745663 -0.0208733
15.7454 21.1466 7.49793 -0.423014 2.72104 0.722077
18.0183 19.6318 6.58474 0.237617 0.00266376 0.587789
20.2204 19.1221 8.36953 -0.434668 -1.45403 0.00919172
21.9682 21.2735 9.15102 0.434793 -0.866455 -0.465643
19.7661 21.7832 7.36623 1.8976 -0.535108 -0.856385
22.039 20.2684 6.45303 -0.404383 0.900173 -1.44844
24.2411 19.7587 8.23783 0.797721 0.4227 0.189073
25.9889 21.9102 9.01932 0.564998 1.57986 -0.130086
23.7868 22.4198 7.23453 -0.500841 -0.698441 1.90979
13.4726 22.6614 8.41112 0.0423569 -1.8984 -0.937068
15.2204 24.8128 9.19261 -0.951849 0.266824 -0.0508056
17.4933 23.298 8.27942 -1.69398 1.0475 1.45579
19.2411 25.4494 9.06091 1.87964 -0.542755 -1.12133
21.514 23.9346 8.14772 0.92649 0.358611 -1.03053
23.7161 23.425 9.93251 -0.218958 0.327662 -2.13293
23.2618 26.0861 8.92921 0.282738 0.454228 -0.818138
25.5347 24.5713 8.01602 -0.524032 0.00399471 1.66471
27.7368 24.0616 9.80081 0.349981 -0.844428 -0.0442891
27.2826 26.7227 8.79751 1.0418 -0.872494 0.0231584
20.989 27.6009 9.8424 -1.22646 -0.139223 -0.383467
25.0097 28.2375 9.7107 0.180443 0.570025 -2.66137
15.7437 9.35584 13.4276 -0.426189 0.465218 1.0502
18.0165 7.84105 12.5144 0.85065 -1.25024 0.4932
22.0373 8.47769 12.3827 0.611357 0.185996 0.356483
19.8352 8.98736 10.5979 1.19264 1.46698 1.08292
24.2393 7.96802 14.1675 -0.251999 -0.672594 -1.29648
26.058 9.11433 12.251 -1.52916 0.0694648 -0.884833
23.8559 9.624 10.4662 0.511816 0.41121 -2.42487
13.0166 13.5317 13.3375 -0.319339 0.184064 -0.452124
17.4915 11.5073 14.2091 -0.6975 0.373466 0.15686
15.2895 12.0169 12.4243 -0.610304 1.27066 0.59367
17.5623 10.5022 11.5111 0.724247 0.809009 -0.506842
17.1081 13.1633 10.5078 -1.244 2.48769 0.97225
19.7644 9.99248 13.2959 0.788051 2.0341 -0.443932
21.5123 12.1439 14.0774 -0.865184 0.579589 -1.23338
19.3102 12.6536 12.2926 1.5633 2.04542 1.22827
21.583 11.1388 11.3794 -0.444663 2.52367 0.724433
21.1288 13.7999 10.3761 -0.401977 -2.31487 -0.783628
23.7851 10.6291 13.1642 -2.45755 0.531548 0.884823
25.533 12.7806 13.9457 0.140336 0.17673 -1.48466
23.3309 13.2902 12.1609 -0.550263 0.446715 1.72977
25.6037 11.7754 11.2477 0.20154 0.165469 1.15534
27.8058 11.2658 13.0325 1.2468 2.39797 -0.536005
29.5537 13.4172 13.814 -1.39393 -0.0774826 -3.1002
27.3516 13.9269 12.0292 2.24333 1.22678 0.266563
10.2895 17.7076 13.2474 4.47691 -1.05934 0.538184
12.5624 16.1928 12.3342 1.75681 1.52857 0.168221
14.7645 15.6832 14.119 0.246779 0.443715 0.034588
17.0373 14.1684 13.2058 0.235943 1.56793 -0.421335
14.3102 18.3443 13.1157 -1.52667 0.295015 -1.11031
14.8352 14.678 11.421 -0.00289424 -0.453872 -0.555595
16.5831 16.8295 12.2025 0.10491 -0.567593 -0.818577
14.381 17.3391 10.4177 0.258655 -0.338235 1.54792
18.7852 16.3198 13.9873 -0.687768 -2.2564 -0.229738
21.058 14.805 13.0741 1.69905 -0.954739 0.795763
18.8559 15.3147 11.2893 0.870236 0.25146 -1.74819
20.6038 17.4661 12.0708 -0.296958 2.34834 0.9922
18.4017 17.9758 10.286 -0.0307191 0.667128 -1.49587
22.8059 16.9565 13.8556 -0.950736 -0.646751 -0.261878
25.0787 15.4417 12.9424 0.525899 0.567354 -1.14652
22.8767 15.9513 11.1576 1.87264 -0.00899689 0.170089
24.6245 18.1028 11.9391 0.112603 -2.65802 1.34038
25.1495 14.4365 10.2444 0.758835 1.04488 0.0948502
26.8266 17.5931 13.7239 2.77026 -0.853927 1.40122
29.0995 16.0783 12.8107 -1.32663 1.75659 -0.088403
26.8974 16.588 11.0259 -1.58453 0.412571 0.600838
30.8473 18.2297 13.5922 -1.78086 0.363516 0.512837
8.01666 19.2224 14.1606 1.34374 -0.245155 -0.181087
9.83529 20.3687 12.2441 -0.537219 0.574184 0.514787
12.0374 19.8591 14.0289 1.67907 0.301838 2.09659
11.5831 22.5202 13.0256 0.643026 -0.102354 0.927148
12.1082 18.8539 11.3309 -3.2502 -1.14758 0.436383
13.856 21.0054 12.1124 1.61097 1.587 -1.56536
11.6539 21.515 10.3276 0.477928 -1.64323 -1.22145
16.0581 20.4957 13.8972 1.5167 -1.76383 1.46677
18.3309 18.9809 12.984 0.241352 1.22705 0.897486
16.1289 19.4906 11.1992 1.48335 -0.0765745 3.55995
17.8767 21.642 11.9807 1.67698 -0.747106 2.32261
15.6746 22.1517 10.1959 -1.52687 0.373362 1.98795
20.0788 21.1323 13.7655 -1.06508 -1.096 -0.430643
22.3517 19.6176 12.8523 0.85603 -1.2737 -0.817597
20.1496 20.1272 11.0675 -1.04608 -1.3602 0.160566
21.8974 22.2787 11.849 -0.32961 2.53313 -0.29455
22.4224 18.6124 10.1543 -0.168936 3.45997 -0.542544
24.0995 21.769 13.6338 -1.15997 -1.86793 -1.23782
26.3724 20.2542 12.7206 0.929608 -0.832026 -0.949572
24.1703 20.7639 10.9358 0.224594 0.549854 -0.142495
26.4432 19.2491 10.0226 1.86349 -1.24518 0.570298
28.1202 22.4056 13.5021 0.882704 0.191768 -0.105434
28.6452 18.7394 11.8074 -0.572433 -1.18317 -0.799435
30.3931 20.8908 12.5889 0.545296 -0.461575 1.38198
28.191 21.4005 10.8041 -0.878099 -0.136206 1.19495
13.331 24.6716 13.8071 0.731252 -0.823656 -0.989938
13.4018 23.6665 11.1091 1.02218 0.841281 -0.843875
15.6039 23.1568 12.8939 1.20358 -0.733737 -0.138616
17.3517 25.3082 13.6754 0.543299 -1.63587 0.558272
15.1496 25.8179 11.8906 -0.542093 0.866906 0.795819
17.4225 24.3031 10.9774 1.221 -0.535224 1.30782
19.6246 23.7935 12.7622 0.224631 0.0793478 -1.08728
21.3724 25.9449 13.5437 -1.68863 0.227225 -1.53936
19.1704 26.4546 11.7589 -0.872485 -0.379441 0.814142
19.6954 22.7883 10.0642 1.42915 -0.992293 -2.54789
21.4432 24.9398 10.8457 -1.67113 0.620376 2.87677
23.6453 24.4301 12.6305 -1.01317 -1.96924 -0.331898
25.3931 26.5815 13.412 0.0300806 -2.17661 -0.401758
25.9182 22.9153 11.7173 0.88787 0.86428 -0.26514
25.4639 25.5764 10.714 -0.247703 -0.658651 0.453863
27.666 25.0667 12.4988 1.26791 0.316771 -0.912548
29.9389 23.5519 11.5856 -1.25766 0.229135 0.346605
29.4846 26.213 10.5823 -0.91174 0.208342 -1.79715
32.1409 23.0423 13.3704 0.162804 2.16067 -0.863822
33.8888 25.1937 14.1519 1.17887 0.720743 0.243808
31.6867 25.7034 12.3671 -0.318076 -0.212242 -0.251144
16.8975 27.9693 12.6721 -0.697681 0.67836 0.62197
16.9683 26.9642 9.9741 2.10748 0.983968 1.38694
18.6454 30.1208 13.4536 0.004622 -0.488744 0.384322
20.9182 28.606 12.5404 1.12294 -0.961147 -1.3511
18.7161 29.1157 10.7556 0.733686 -1.87973 0.199775
22.6661 30.7574 13.3219 0.73643 0.27051 -0.150157
23.1911 27.0912 11.6272 0.250452 0.548249 0.960899
24.9389 29.2426 12.4087 1.02066 -1.79348 -0.463656
22.7368 29.7523 10.6239 -0.8587 0.537131 1.18913
27.141 28.733 14.1935 0.795388 -1.54298 -0.898699
29.4139 27.2182 13.2803 -0.339814 -0.194111 -0.950206
27.2118 27.7278 11.4955 0.0472741 -0.398416 -0.54289
20.3932 32.2722 14.2351 -0.0647771 -1.48446 -1.05856
20.464 31.2671 11.5371 1.11655 0.418053 0.345543
11.6522 9.72432 16.2573 2.48565 -1.13543 -0.428284
13.925 8.20953 15.3441 -1.34126 -0.545558 -0.51998
13.8543 9.21466 18.0421 1.00113 -2.96354 0.657261
16.1979 6.69474 14.4309 0.670982 2.29921 -2.74607
17.9458 8.84617 15.2124 0.306794 1.19437 0.646729
16.1271 7.69986 17.1289 -0.384142 -0.441468 0.574349
17.875 9.8513 17.9104 -0.13823 0.868593 -0.665162
20.2186 7.33138 14.2992 0.342552 1.21073 0.834626
21.9665 9.48281 15.0807 1.31591 0.532713 1.35424
18.4 6.18507 16.2157 -0.50195 -3.05277 -0.29498
20.1478 8.3365 16.9972 0.320887 1.42076 0.576887
22.4207 6.82171 16.084 -1.70551 0.652097 -0.0352727
20.6021 5.6754 18.0005 1.26492 0.518686 -0.109406
24.1686 8.97315 16.8655 -0.0979318 1.27682 -0.115834
7.10647 12.7539 18.0837 1.0998 -0.209197 0.89429
9.37933 11.2391 17.1705 -2.72381 -1.83378 -0.202336
8.92511 13.9002 16.1672 -0.283526 -0.408758 0.33591
11.1272 13.3906 17.952 -2.12527 -0.406572 -0.258669
13.4 11.8758 17.0388 0.373325 -1.91026 0.290139
11.198 12.3854 15.254 -0.703713 -0.662875 0.364045
13.4708 10.8706 14.3408 -1.09412 -0.162772 0.711532
15.1479 14.0272 17.8203 1.12847 1.5625 -1.74847
15.6729 10.361 16.1256 1.0238 -1.5034 -1.61489
17.4208 12.5124 16.9071 -1.23205 -0.557181 -1.83404
15.2187 13.0221 15.1223 -2.04462 1.37812 -0.139809
19.6936 10.9976 15.9939 -0.907754 -0.0485269 1.09038
21.4415 13.149 16.7754 1.81468 -0.4884 -0.273213
19.2394 13.6587 14.9906 1.36388 1.95185 -0.361511
21.8957 10.4879 17.7787 1.91473 1.85019 -0.62417
23.7143 11.6342 15.8622 -0.267279 -0.520299 -1.39725
25.4622 13.7857 16.6437 0.891798 1.48524 0.0224831
25.9872 10.1195 14.949 -0.305107 -0.0226502 0.966679
25.9164 11.1246 17.647 -2.19792 -0.370537 1.26295
27.735 12.2709 15.7305 -1.09372 -0.409042 -1.36315
27.6643 13.276 18.4285 0.343543 0.61789 0.952825
6.65225 15.415 17.0804 -0.91124 0.127853 0.572045
8.40011 17.5664 17.8619 -0.795976 -2.16552 -0.240252
6.19802 18.0761 16.0771 -0.458051 0.588122 -1.4196
8.47088 16.5613 15.1639 0.420227 0.733414 0.722354
10.673 16.0517 16.9487 1.10865 0.350102 0.957417
12.4208 18.2031 17.7302 -0.0670679 2.2533 0.247185
12.9458 14.5369 16.0355 -0.956641 -0.373544 0.919408
10.7437 15.0465 14.2507 -1.4424 0.175483 -1.12584
12.4916 17.198 15.0322 1.16451 0.767066 -0.282785
14.6937 16.6883 16.817 -0.285102 -1.55983 0.414948
16.9665 15.1735 15.9038 0.879217 -0.175307 0.267072
16.5123 17.8346 14.9005 1.03192 -1.23646 -0.0690675
19.1686 14.6638 17.6886 0.260204 0.77121 -0.996483
20.9165 16.8153 18.4701 -1.16364 0.549127 0.587553
18.7144 17.3249 16.6853 -0.00836495 -1.25269 -0.6765
20.9872 15.8101 15.7721 -0.012545 -1.66713 -0.209818
23.1893 15.3005 17.5569 0.265737 -1.29377 0.813203
24.9372 17.4519 18.3384 0.0825382 -0.154086 -0.31022
22.7351 17.9616 16.5536 2.22159 -1.2428 2.30233
23.2601 14.2954 14.8589 -0.687996 -0.260481 0.905079
25.008 16.4468 15.6404 -0.106539 -1.34103 1.4116
27.21 15.9371 17.4252 -0.207662 -0.399544 0.0994716
28.9579 18.0886 18.2067 0.665709 -0.842329 1.04608
29.4829 14.4223 16.512 0.725229 -0.614797 2.40574
27.2808 14.932 14.7272 -1.00964 0.346184 -0.474998
29.0287 17.0834 15.5087 0.573432 -1.07691 1.16259
31.2308 16.5738 17.2935 0.109268 -0.351708 -0.430952
31.3015 15.5686 14.5955 1.35709 0.0792755 1.86081
33.0494 17.7201 15.377 0.229467 0.552648 -0.89149
7.94588 20.2276 16.8586 3.05571 -0.772656 0.390159
9.69374 22.379 17.6401 0.456068 0.866563 0.2289
9.76452 21.3739 14.9421 2.59756 -0.461503 0.461436
14.1687 20.3545 18.5117 -1.03747 -1.24662 1.09933
10.2187 18.7128 15.9454 0.879644 1.82899 0.667947
11.9666 20.8642 16.7269 -0.837493 -1.86426 0.241035
13.7852 22.0105 14.8104 1.20421 0.410381 0.865263
16.4415 18.8397 17.5985 -0.01696 -1.6726 -0.210851
18.1894 20.9912 18.38 1.53062 2.13549 0.652527
14.2395 19.3494 15.8137 -2.131 0.834164 0.570618
15.9873 21.5008 16.5952 0.169353 0.196944 0.711675
18.2602 19.986 15.682 -0.385092 -0.606614 1.83723
20.4622 19.4764 17.4668 0.625245 0.621702 -1.48956
22.2101 21.6278 18.2483 -0.914004 -1.28481 1.59692
20.008 22.1375 16.4635 -0.63988 -0.260016 0.656032
20.533 18.4712 14.7688 1.44683 -0.310945 0.443709
22.2809 20.6227 15.5503 0.709181 -0.16045 0.988883
24.483 20.113 17.3351 1.55923 -1.60544 0.973052
26.2308 22.2645 18.1166 -0.229167 -0.672259 2.64646
24.5537 19.1079 14.6371 -2.26857 -2.065 1.23442
26.3016 21.2593 15.4186 0.428287 0.0787478 0.100643
26.7558 18.5982 16.4219 -0.796968 -1.27309 -1.08883
28.5037 20.7497 17.2034 1.74087 -0.94381 0.719227
28.5745 19.7445 14.5054 -1.27899 0.439632 -0.153269
30.3223 21.896 15.2869 -2.63095 -0.539393 0.420687
32.9786 18.7252 18.075 -0.304715 -0.998495 0.854006
30.7765 19.2349 16.2902 1.30126 -1.00736 -0.69824
32.5244 21.3863 17.0717 -0.412219 1.7195 -0.0464862
34.7972 19.8715 16.1585 -0.387866 -2.25702 -0.83045
32.5952 20.3812 14.3737 0.156568 0.798838 -0.834643
34.343 22.5326 15.1552 1.00386 1.63079 0.361612
11.4416 24.5304 18.4216 -0.43357 -2.49939 -2.46708
13.7145 23.0156 17.5084 0.349533 0.0379131 -0.0227051
11.5124 23.5253 15.7236 0.941862 0.196817 -2.06202
13.2602 25.6767 16.5051 1.17961 0.477036 2.31566
15.4623 25.1671 18.2899 0.33478 -0.558415 -1.1864
17.7352 23.6523 17.3767 0.686904 -0.860929 -0.646601
15.5331 24.1619 15.5919 -1.74264 -0.554805 0.177973
17.2809 26.3134 16.3734 -1.25808 0.61475 -1.28098
17.8059 22.6471 14.6787 1.8861 -0.193997 -0.46827
15.0789 26.823 14.5886 -1.18098 0.926709 1.86388
19.483 25.8037 18.1582 -0.963226 0.923594 1.72703
21.7559 24.2889 17.245 -1.08314 0.716275 -0.918878
19.5538 24.7986 15.4602 -0.118668 0.726725 1.16289
21.8267 23.2838 14.547 -0.124205 2.01614 1.23583
23.5037 26.4403 18.0265 0.128415 -0.88125 -0.3274
24.0287 22.7741 16.3318 0.114076 -0.952961 0.692855
25.7766 24.9256 17.1133 -1.31781 -1.28885 -0.506608
23.5745 25.4352 15.3285 1.0077 -1.93823 -1.31696
25.8474 23.9204 14.4153 0.946291 -0.00877317 1.92235
30.2515 22.9011 17.9849 -2.82285 0.686418 -1.64625
28.0495 23.4108 16.2001 -0.612834 -2.04077 -1.58414
29.7973 25.5622 16.9816 -1.30577 1.08287 -1.20357
27.5952 26.0719 15.1968 1.40078 0.649383 0.00300488
29.8681 24.5571 14.2836 -1.44947 -0.49746 0.836023
34.2722 23.5377 17.8532 -0.237792 -0.534817 0.362073
32.0702 24.0474 16.0684 0.08235 2.75301 -0.337049
33.818 26.1988 16.8499 0.0781844 0.946422 0.72071
31.6159 26.7085 15.0651 -0.440036 -2.26003 0.987831
15.0081 27.8282 17.2866 -0.963122 0.431023 0.430424
16.7559 29.9796 18.0681 0.0695849 0.942295 -0.792099
16.8267 28.9745 15.3701 0.35641 -0.11439 1.24755
19.0288 28.4648 17.1549 -0.93936 -1.42348 0.988765
20.7767 30.6162 17.9364 -0.702494 -0.0256282 0.296578
21.3017 26.95 16.2417 1.45696 -0.628914 -0.965405
19.0996 27.4597 14.4569 -0.996261 -1.15249 -0.784737
20.8474 29.6111 15.2384 0.80902 1.22642 1.25013
23.0495 29.1014 17.0232 1.9702 -1.53905 -1.73543
25.3224 27.5867 16.11 -0.411552 -0.17513 -1.87447
23.1203 28.0963 14.3252 -0.783393 -0.601794 2.18572
24.8681 30.2478 15.1067 -0.379867 0.614644 0.0274523
27.5245 27.077 17.8948 -1.71025 -1.07974 0.723086
27.0702 29.7381 16.8915 0.895237 0.776829 0.145721
29.3431 28.2233 15.9783 0.63717 -2.20923 1.44068
31.5452 27.7136 17.7631 1.33816 0.150455 -0.106798
18.5746 31.1259 16.1516 -0.751654 -0.262299 1.46749
20.3224 33.2773 16.9331 2.35803 1.66457 1.18635
24.7974 31.2529 17.8047 0.631579 -0.029375 1.76653
22.5953 31.7626 16.0199 -0.50129 -1.02341 -0.146561
16.0564 8.70499 19.8269 -1.11504 -0.806577 0.664555
18.3292 7.19019 18.9137 -1.46168 0.857766 -0.022833
15.9856 9.71011 22.5249 -0.913715 0.292735 -0.308322
18.2584 8.19532 21.6117 0.465818 1.63756 -0.481492
20.0771 9.34163 19.6952 -0.412015 -0.12882 0.658909
22.3499 7.82683 18.782 -0.503126 2.64447 0.449415
20.5313 6.68053 20.6985 -0.0640764 1.031 0.977797
22.2791 8.83196 21.48 -1.08075 -2.10085 -0.294892
7.0357 13.759 20.7817 2.59195 -1.65383 -1.76264
9.30855 12.2442 19.8685 -2.3467 -2.9993 0.361212
9.23778 13.2494 22.5665 -1.79109 -0.733328 0.649142
11.5814 10.7294 18.9553 0.777292 -1.18676 1.38487
13.3293 12.8809 19.7368 -1.01594 0.681679 0.0673536
11.5106 11.7346 21.6533 2.36142 -1.57729 -0.334507
13.2585 13.886 22.4348 -0.905986 0.431695 0.38934
13.7835 10.2198 20.7401 -1.01307 -0.330189 -0.125121
15.6021 11.3661 18.8236 -0.736406 0.329582 2.05921
17.35 13.5175 19.6051 0.883087 -0.0102402 0.490327
15.5313 12.3712 21.5216 0.522469 1.18659 -0.191772
17.8042 10.8564 20.6084 0.858712 -0.215074 -1.16116
19.6228 12.0027 18.6919 -0.228464 0.089513 2.05166
19.5521 13.0079 21.3899 -0.546883 0.371637 -0.496758
21.8249 11.4931 20.4767 1.84301 1.13446 -1.09142
20.0063 10.3468 22.3932 1.66601 -1.61342 -0.945639
23.6436 12.6394 18.5602 -0.614525 -0.814929 -0.000650751
23.5728 13.6445 21.2582 -0.654381 1.49804 0.817185
24.0978 9.97827 19.5635 -0.193978 -1.25293 -0.440509
25.8456 12.1297 20.345 -2.03987 -1.21467 -0.321432
24.027 10.9834 22.2615 -0.363053 0.380574 1.5212
6.58147 16.4201 19.7784 1.46311 0.474212 0.568005
8.85433 14.9053 18.8652 0.946861 -0.750356 1.19358
6.51069 17.4253 22.4764 -0.600256 -2.155 -0.770652
8.78355 15.9105 21.5632 0.799223 -0.0968746 0.147376
10.6022 17.0568 19.6467 0.0200144 -0.509454 0.548662
12.875 15.542 18.7335 -1.7964 0.368969 -0.166075
10.5314 18.0619 22.3447 -0.858248 -0.0405133 0.0104251
11.0564 14.3957 20.65 0.598949 -0.86776 0.179219
12.8043 16.5471 21.4315 -0.968843 -1.01756 0.480601
14.6229 17.6934 19.515 -1.69591 -1.17275 1.24345
16.8958 16.1786 18.6018 -0.45027 0.298467 2.12306
15.0771 15.0323 20.5183 -1.46062 -2.34635 -1.34531
16.825 17.1838 21.2998 0.351782 0.637351 -0.427874
17.2792 14.5226 22.3031 0.806635 -0.262028 -0.872835
18.6436 18.3301 19.3833 -0.271013 -0.815703 -0.198011
19.0978 15.669 20.3866 -1.1649 -0.464778 -1.21612
20.8457 17.8204 21.1681 0.480488 -0.215857 1.52616
21.3707 14.1542 19.4734 -0.37355 -1.95845 0.0655453
21.2999 15.1593 22.1714 0.180708 0.417773 -0.415146
23.1186 16.3056 20.2549 -0.640524 0.373041 -2.10107
25.3914 14.7908 19.3417 -0.686558 -0.7848 0.464626
25.3206 15.7959 22.0397 -0.738635 -0.787892 0.587483
27.1393 16.9422 20.1232 1.96501 -1.4225 -1.47772
29.4121 15.4275 19.21 0.507245 -1.25529 -1.12157
27.5935 14.2811 21.1265 -2.6835 0.158778 -0.251838
29.3413 16.4326 21.908 -0.944509 1.87716 -1.20217
31.16 17.5789 19.9915 -1.03699 3.18899 -2.45385
6.05647 20.0864 21.4731 1.11834 0.431626 1.02591
7.80433 22.2378 22.2546 0.924407 0.200772 -0.0163671
8.32933 18.5716 20.5599 -1.29072 1.17815 0.968405
10.0772 20.723 21.3414 -0.00633842 0.581843 0.221981
6.12725 19.0812 18.7751 -0.199227 1.35007 1.12749
7.8751 21.2327 19.5566 0.67905 -0.524439 1.77548
12.35 19.2082 20.4282 2.10365 -0.322554 0.571364
14.0979 21.3596 21.2097 0.900898 0.503748 -0.886326
10.148 19.7179 18.6434 1.03605 0.950284 -0.0916789
11.8958 21.8693 19.4249 0.0840029 -0.785358 1.40341
16.3708 19.8449 20.2965 1.16768 -0.398291 0.367149
18.1186 21.9963 21.078 -1.16896 0.380208 0.528261
15.9165 22.506 19.2932 0.529135 -0.68036 0.816785
14.5521 18.6985 22.213 -0.656167 -3.52973 -2.74804
20.3915 20.4815 20.1648 0.00772239 0.90337 -0.82455
18.5728 19.3352 22.0813 -0.581476 0.611124 -0.255437
22.6643 18.9667 19.2516 -1.16557 -0.561214 -1.16393
24.4122 21.1181 20.0331 0.594446 0.22073 1.80787
22.5936 19.9718 21.9496 0.0721004 0.941961 -1.59758
24.3414 22.1233 22.7311 0.945674 -2.42148 -3.03991
24.8664 18.457 21.0364 0.525051 -0.2556 0.728136
26.685 19.6033 19.1199 -0.822297 -0.12297 1.79899
28.4329 21.7548 19.9014 0.278748 -0.533107 -0.145838
26.6143 20.6085 21.8179 2.476 0.341339 -0.0973312
28.8871 19.0937 20.9047 1.49928 -0.199953 -0.328514
30.635 21.2451 21.6862 -0.340224 0.36169 -0.617274
30.7058 20.24 18.9882 -1.53414 0.974558 1.45977
32.4536 22.3914 19.7697 -0.542256 1.50994 -0.520667
34.7265 20.8766 18.8565 -1.17999 -0.185022 2.13942
32.9078 19.7303 20.773 -0.156673 0.280958 -2.11005
34.6557 21.8818 21.5545 -1.10762 -0.950081 0.447632
31.0892 18.584 22.6895 0.0964789 0.123336 -0.86363
9.62296 23.3841 20.3381 0.92006 0.0875326 0.971574
11.825 22.8744 22.1229 -1.39442 -0.343086 0.523513
11.3708 25.5355 21.1195 3.53334 -0.697915 0.423142
13.6437 24.0208 20.2064 0.736309 0.687986 1.14831
13.1894 26.6819 19.2031 -0.529814 -0.858546 -0.498463
15.8458 23.5111 21.9911 -0.76959 2.10537 -2.37691
17.5936 25.6625 22.7726 -0.611375 0.0408957 -0.181783
15.3915 26.1722 20.9878 1.11578 -0.101461 -0.0601506
17.6644 24.6574 20.0747 -1.08994 -0.563062 0.365694
19.8665 24.1477 21.8594 -0.159291 0.259451 1.64521
21.6143 26.2992 22.6409 1.12136 -0.491622 -1.12363
22.1393 22.6329 20.9463 -0.713609 -0.0299637 -1.77939
19.4122 26.8088 20.8561 -0.410759 -0.142774 2.87662
19.9372 23.1426 19.1615 -0.0964265 -0.970101 -1.97986
21.6851 25.294 19.943 -1.35742 -0.778846 -0.694676
23.8872 24.7844 21.7277 1.56285 0.119751 -0.872843
26.16 23.2696 20.8146 0.463678 0.626065 1.56804
23.958 23.7792 19.0298 -0.558533 1.55593 -0.681587
25.7058 25.9307 19.8113 -0.788822 -0.404821 -0.600442
27.9079 25.421 21.596 -0.155588 -0.512508 -0.64042
30.1808 23.9062 20.6829 0.253659 0.939255 1.30295
27.9787 24.4159 18.8981 1.10618 0.427701 -1.03757
29.7265 26.5673 19.6796 0.0676445 1.75996 2.02298
28.3621 22.7599 22.5994 2.23044 -2.29659 -1.41777
31.9286 26.0577 21.4643 0.269956 -0.10866 0.859872
34.2015 24.5429 20.5512 0.651368 0.2923 -1.28321
31.9994 25.0525 18.7664 1.08271 -0.381926 0.760298
32.3828 23.3965 22.4676 0.923076 -0.21455 -0.0803293
13.1187 27.687 21.901 0.373674 0.711182 0.423781
14.8665 29.8384 22.6825 1.48528 0.995406 0.403694
17.1394 28.3236 21.7693 -0.430823 0.201306 -0.0859254
14.9373 28.8333 19.9845 -0.407425 -2.57559 1.2151
16.6852 30.9847 20.766 -0.182675 -0.513672 1.14361
17.2102 27.3185 19.0714 1.83308 1.06775 1.6426
18.8872 30.4751 22.5508 1.34341 -1.18848 -2.1749
21.1601 28.9603 21.6376 -0.354138 2.05849 0.111436
18.958 29.4699 19.8528 1.45198 -0.528775 -2.05779
21.2309 27.9551 18.9396 -0.599125 0.551673 1.98895
25.635 26.9358 22.5092 0.0804319 -0.191077 -0.375462
23.433 27.4455 20.7244 -0.0139014 0.780261 1.35738
25.1808 29.5969 21.5059 -0.00588618 -0.244766 2.01724
22.9787 30.1066 19.7211 -0.207534 -1.26419 -2.11486
25.2516 28.5918 18.8079 0.717287 -0.54164 0.960869
29.6558 27.5724 22.3775 -1.64218 0.157662 -1.03064
27.4537 28.0821 20.5927 -1.48579 -1.25976 0.181975
29.2015 30.2335 21.3742 0.0633645 -1.69786 -0.618837
26.9994 30.7432 19.5894 -2.39213 1.34354 0.538933
29.2723 29.2284 18.6762 -0.310817 0.578357 0.326089
33.6765 28.2091 22.2458 0.986526 -0.0515768 0.175681
31.4744 28.7188 20.461 0.761827 -0.191179 0.333954
33.7472 27.204 19.5479 0.633064 2.05876 -1.85363
18.433 33.1362 21.5475 -0.0887468 -0.878143 1.39956
20.1809 35.2876 22.329 0.457562 0.274816 -0.83659
20.7059 31.6214 20.6343 0.112801 0.384819 -0.740606
18.5038 32.131 18.8495 -1.79117 1.7133 0.445196
20.2517 34.2825 19.631 0.718196 -0.436672 -0.979857
22.908 31.1117 22.4191 -0.162194 -0.846484 0.138623
22.4537 33.7728 21.4158 1.37569 0.136947 -1.26178
24.7266 32.258 20.5026 -0.724971 2.26604 -0.578492
22.5245 32.7677 18.7178 0.0814704 0.142174 0.673881
26.9287 31.7483 22.2874 0.810692 0.551339 0.862663
18.1877 9.20045 24.3097 -0.273687 -2.26834 0.196567
20.4605 7.68565 23.3965 -0.744506 1.60789 1.21392
22.2084 9.83709 24.178 -0.627873 -0.148008 -0.135336
20.3897 8.69078 26.0945 -0.877403 -0.214761 0.89899
11.4399 12.7397 24.3513 -0.197374 -0.139721 3.1961
13.7127 11.2249 23.4381 0.739088 0.699804 1.77736
11.3691 13.7448 27.0492 -1.67574 -1.27149 -1.82898
13.6419 12.23 26.1361 -0.115963 1.3303 0.475731
15.4606 13.3763 24.2196 -0.72405 1.08402 -2.02141
17.7334 11.8615 23.3064 2.28791 -1.26627 1.10171
15.9148 10.7152 25.2229 0.781134 -0.726288 -1.68553
17.6626 12.8667 26.0044 0.866124 0.822165 1.06674
18.1169 10.2056 27.0077 0.265543 0.141635 0.679904
19.4813 14.013 24.0879 -1.92416 0.688687 0.237902
21.7541 12.4982 23.1747 -0.877064 -0.560742 -0.681021
19.9355 11.3519 25.0912 1.45619 -0.433863 -1.26916
21.6834 13.5033 25.8727 0.843108 0.390139 -0.256469
22.1376 10.8422 26.876 0.531511 1.11236 1.16691
25.7749 13.1348 23.043 -1.04443 0.0596799 -1.89634
23.9562 11.9885 24.9595 0.82744 -0.341026 1.75807
6.96492 14.7642 23.4797 -1.11727 1.36501 -0.443093
8.71277 16.9156 24.2612 0.870789 0.697445 1.43375
6.89414 15.7693 26.1776 1.9814 -0.374196 -1.52384
8.642 17.9207 26.9591 0.552719 -0.0690923 -0.329226
9.167 14.2545 25.2645 0.53043 0.610415 -0.0954414
10.9856 15.4008 23.348 -1.87944 1.02807 0.613035
12.7335 17.5522 24.1295 1.76633 -0.801952 -1.28839
10.9149 16.4059 26.0459 -0.589578 -1.16202 -1.34053
13.1877 14.8911 25.1328 0.190687 1.20308 -1.08729
15.0063 16.0374 23.2163 -1.13066 -0.272532 -0.0519869
16.7542 18.1889 23.9978 -0.635617 2.3442 -0.97829
14.9356 17.0426 25.9142 -0.899825 0.0798786 -1.10915
17.2084 15.5278 25.0011 2.00002 -0.916243 0.225709
15.3898 14.3815 26.9175 -0.160626 -2.31531 1.48965
19.0271 16.6741 23.0846 0.229395 2.53706 -1.39401
18.9563 17.6792 25.7825 1.7303 0.6996 0.541861
21.2291 16.1644 24.8694 -0.405197 -0.0752304 -0.437523
19.4105 15.0181 26.7858 -1.38583 1.78337 0.58224
23.0478 17.3107 22.9529 0.813133 -0.637935 -0.62089
22.977 18.3159 25.6508 -1.07909 -0.920984 -0.831666
23.502 14.6496 23.9562 -0.622248 -0.691 -0.798038
25.2499 16.8011 24.7376 -0.0723207 0.0960726 -0.77258
23.4312 15.6548 26.6541 1.77738 -1.8867 0.00221967
25.7041 14.14 25.741 -2.34434 -1.86555 -1.68196
27.0685 17.9474 22.8212 -1.88401 -1.55874 -1.19681
27.5227 15.2863 23.8245 0.474305 -1.94552 -0.625118
29.2706 17.4377 24.6059 0.711584 -0.274414 -1.07471
27.4519 16.2914 26.5224 -0.534842 1.48457 2.62417
5.98569 21.0915 24.171 -0.824422 -2.18901 0.190236
8.25855 19.5767 23.2579 -0.280031 -1.38703 -0.716698
10.0064 21.7281 24.0393 -0.61984 -2.52325 -1.63417
6.43992 18.4304 25.1744 -0.415989 -0.130586 -0.895737
8.18777 20.5818 25.9558 0.0407004 -1.05422 1.53435
12.2793 20.2133 23.1262 -0.502861 1.56587 -0.714004
14.0271 22.3648 23.9076 -0.0995148 0.191072 -1.10253
10.4606 19.067 25.0426 2.24214 -0.233701 0.00980911
12.2085 21.2185 25.8241 -0.910762 0.804781 -1.10728
12.6627 18.5574 26.8274 -0.0840259 -0.487794 -0.301308
16.3 20.85 22.9945 -2.68616 -0.210205 -1.71541
14.4813 19.7037 24.9109 -0.615596 1.19954 1.91372
16.2292 21.8551 25.6924 -0.578276 0.360848 0.729931
16.6834 19.194 26.6957 1.8739 -1.02871 -1.71902
20.3207 21.4866 22.8628 1.37645 0.115197 -0.849406
18.5021 20.3403 24.7792 1.13523 1.28453 1.53871
20.2499 22.4917 25.5607 1.16985 1.26561 0.458043
20.7749 18.8255 23.8661 -0.119528 -1.8151 -0.796801
20.7041 19.8306 26.564 -0.855755 -2.45541 2.95706
22.5228 20.977 24.6475 -0.958893 1.42412 0.931234
24.7956 19.4622 23.7344 -2.00424 0.165545 -0.451951
26.5435 21.6136 24.5158 -0.620185 -0.696015 0.423597
24.7249 20.4673 26.4323 -0.30628 0.807713 1.83783
28.8163 20.0988 23.6027 -0.481501 -1.44268 -0.611553
30.5642 22.2502 24.3841 0.00488222 -0.722068 -0.00106218
26.9977 18.9525 25.5191 -2.47585 1.87081 -1.18103
28.7456 21.1039 26.3006 -0.0909692 -0.664072 -1.42791
32.8371 20.7354 23.471 -1.03838 -0.412511 -1.79968
31.0184 19.5891 25.3874 0.453872 -0.734708 -0.416433
32.7663 21.7406 26.1689 -0.329934 0.618512 -1.22394
9.55218 24.3892 23.036 1.85009 -0.73849 -0.312577
7.73355 23.2429 24.9525 -0.167772 2.35596 -1.1485
9.4814 25.3944 25.734 0.845583 0.278381 0.289298
9.93563 22.7333 26.7373 -1.16505 0.249754 1.39768
11.3 26.5407 23.8175 -0.177917 1.65099 -1.53574
13.5729 25.0259 22.9043 0.831193 -0.211029 -0.114579
11.7543 23.8796 24.8208 0.238581 1.63941 -0.162514
13.5021 26.031 25.6023 -1.33374 0.951421 0.787746
13.9563 23.3699 26.6056 0.73491 -0.591297 -0.95724
15.775 24.5162 24.6891 0.53238 -0.180626 1.62722
17.5228 26.6676 25.4706 -0.0111844 1.23284 2.08028
18.0478 23.0014 23.7759 1.51558 -0.152066 -1.58148
17.9771 24.0065 26.4739 -1.87983 -2.29308 1.70178
19.7957 25.1528 24.5574 -1.19189 -0.651635 0.632447
22.0685 23.6381 23.6442 -1.63649 1.42969 1.66624
21.9978 24.6432 26.3422 -0.886899 -0.173066 0.437363
23.8164 25.7895 24.4257 -0.165137 -1.09084 0.597594
26.0893 24.2747 23.5125 -0.220627 0.138468 -1.95688
24.2706 23.1284 25.429 -1.07726 -0.623076 0.140211
26.0185 25.2798 26.2105 0.905737 0.580248 1.72973
27.8371 26.4261 24.294 -1.69642 -0.596041 1.08236
30.11 24.9113 23.3808 -1.2528 0.279608 1.17967
28.2913 23.765 25.2973 -0.640298 -0.359209 1.52777
30.0392 25.9165 26.0788 -0.148887 -0.991193 0.280663
30.4934 23.2554 27.0821 -0.904279 1.28442 -0.813461
34.1307 25.548 23.2491 1.28653 -0.521181 -0.591425
32.3121 24.4017 25.1656 0.34852 -1.0167 -2.74606
34.5849 22.8869 24.2524 -0.362381 -1.77856 -0.151449
13.0479 28.6921 24.599 -1.67679 1.36253 0.400436
11.2293 27.5458 26.5155 -0.35448 0.19693 -0.166129
14.7957 30.8435 25.3805 0.436504 0.537661 -1.06826
15.3208 27.1773 23.6858 0.765587 0.0298864 0.577219
17.0686 29.3287 24.4673 0.0804929 -0.145075 1.14326
15.25 28.1824 26.3838 0.957889 -1.18314 -0.492437
19.3415 27.814 23.5541 1.00041 0.572187 1.11485
21.0893 29.9654 24.3356 -1.45663 -0.586756 -2.17018
19.2707 28.8191 26.2521 -1.02383 1.92661 0.484193
21.0185 30.9705 27.0336 1.22829 -0.0842546 -0.448985
21.5435 27.3043 25.3389 -0.402424 0.658427 0.731205
23.3622 28.4506 23.4224 0.810727 2.05259 -0.316685
25.11 30.602 24.2039 0.727215 -0.852592 1.69326
23.2914 29.4557 26.1204 0.781929 1.26404 -0.953096
25.5643 27.9409 25.2072 -3.23897 -1.18524 0.181662
27.3829 29.0872 23.2907 -2.00679 -0.23043 -1.98449
27.3121 30.0924 25.9887 -0.874265 -0.756766 0.211674
29.585 28.5776 25.0755 -0.736067 1.31319 1.52839
27.7663 27.4313 26.992 0.879957 0.316812 1.50747
31.4036 29.7239 23.159 -1.81705 2.05849 0.337798
31.8578 27.0628 24.1623 1.04097 0.82762 -1.51549
16.5436 32.995 26.162 1.04412 1.09044 0.302479
16.6144 31.9899 23.464 -0.970158 -0.443144 1.91466
18.8165 31.4802 25.2488 0.403956 0.0671589 -0.39637
20.5643 33.6316 26.0303 -1.05984 1.06721 -1.00107
18.3622 34.1413 24.2455 -0.729041 0.0523394 0.405402
20.6351 32.6265 23.3323 -0.99622 0.0726836 1.29014
22.383 34.7779 24.1138 -0.287865 -1.11048 0.7617
22.8372 32.1168 25.1171 0.0319901 0.377944 1.17653
24.585 34.2683 25.8986 -0.486111 -1.13742 -0.0990328
24.6558 33.2631 23.2006 -1.05103 -0.786974 1.39971
25.0393 31.6072 26.9019 1.52404 0.606286 -0.423946
26.8579 32.7535 24.9854 1.66142 -0.575269 -0.0290012
29.1307 31.2387 24.0722 -0.55367 0.519424 -1.97556
20.319 9.6959 28.7925 0.136435 -1.05882 1.83619
13.5712 13.2352 28.834 -0.262479 1.07443 0.598011
15.844 11.7204 27.9209 1.02779 2.14058 1.62513
17.5919 13.8718 28.7023 -0.0827195 0.77311 -1.29482
15.7732 12.7255 30.6188 1.30473 0.830062 0.262339
18.0461 11.2107 29.7056 1.25372 1.04909 0.704669
19.8647 12.357 27.7891 0.298184 0.640624 -0.816683
19.794 13.3621 30.4871 -0.041583 1.12657 -0.320461
22.0668 11.8473 29.5739 0.496927 0.643355 -1.44147