ITEM: TIMESTEP
0
ITEM: NUMBER OF ATOMS
6
ITEM: BOX BOUNDS ss ss ss
1.8380563943791138e+01 2.2409436056208861e+01
1.8557807085059487e+01 2.2232192914940512e+01
1.8540276409135906e+01 2.2249723590864093e+01
ITEM: ATOMS x y z vx vy vz
18.3846 20.0767 20.4609 0.800973 0.898446 0.337761
20.1325 22.2281 21.2423 1.04744 -0.258199 -0.17362
20.6575 18.5619 19.5477 1.82991 -2.21527 0.386753
22.4054 20.7133 20.3291 -0.654766 0.530075 -0.393989
20.2033 21.223 18.5444 -1.22396 0.957572 0.726079
20.5867 19.567 22.2456 -1.7996 0.0873715 -0.882984
ITEM: TIMESTEP
1000
ITEM: NUMBER OF ATOMS
6
ITEM: BOX BOUNDS ss ss ss
1.8380563943791138e+01 2.2409436056208861e+01
1.8557807085059487e+01 2.2232192914940512e+01
1.8540276409135906e+01 2.2249723590864093e+01
ITEM: ATOMS x y z vx vy vz
18.6144 20.005 20.2708 -7.20417 -0.622838 -3.64505
20.3651 22.0085 20.9894 2.79987 1.50377 0.363314
20.7419 18.8009 19.8121 3.71638 2.17817 -1.90717
22.0719 20.7988 20.5032 -2.94262 -1.57291 -2.8074
20.0428 21.1337 18.9533 1.68389 -1.99726 3.5799
20.5338 19.6231 21.8413 1.94665 0.511057 4.41641
ITEM: TIMESTEP
2000
ITEM: NUMBER OF ATOMS
6
ITEM: BOX BOUNDS ss ss ss
1.8658082151869291e+01 2.2100563583495706e+01
1.8841124154387163e+01 2.1869325060818831e+01
1.8607191306909360e+01 2.2919776395922728e+01
ITEM: ATOMS x y z vx vy vz
19.3137 19.6594 20.6359 4.24975 -1.58484 -0.737442
19.7413 22.1696 21.5708 -0.735797 3.00875 0.0474652
20.8032 19.2163 18.2816 -0.242262 -4.05835 0.482831
21.3676 19.7844 20.8709 -1.89676 -2.18135 -0.529061
20.4753 21.066 18.2403 -0.907474 4.7637 0.194335
20.6688 20.4744 22.7705 -0.467454 0.0520954 0.541871
ITEM: TIMESTEP
3000
ITEM: NUMBER OF ATOMS
6
ITEM: BOX BOUNDS ss ss ss
1.8455035993712748e+01 2.2579490810215503e+01
1.8808306678221328e+01 2.2152913366335827e+01
1.8799042365459531e+01 2.2144313835112722e+01
ITEM: ATOMS x y z vx vy vz
18.5482 20.2501 20.2001 0.826107 -1.82909 -2.72567
20.0094 22.011 20.9922 2.02969 -1.40163 1.10407
20.4388 18.8563 19.8659 -2.40811 0.428985 4.8089
22.4628 19.8638 20.5312 -2.59622 2.30259 -1.00675
20.3985 21.48 18.9838 1.01869 -0.384423 3.19006
20.5123 19.9088 21.7968 1.12985 0.883572 -5.37062
ITEM: TIMESTEP
4000
ITEM: NUMBER OF ATOMS
6
ITEM: BOX BOUNDS ss ss ss
1.8889028449352594e+01 2.1704265579458252e+01
1.8538359269502156e+01 2.2648427239249848e+01
1.8840733509625679e+01 2.1742942573760924e+01
ITEM: ATOMS x y z vx vy vz
19.4757 20.7003 21.1412 2.24955 -2.50684 -0.826702
20.3228 22.8217 20.0545 1.28132 -1.37071 -2.48114
20.1704 18.5195 19.5705 -3.05176 -2.60656 -3.2767
21.8451 21.0288 21.0703 -1.37266 3.24331 0.597365
20.6099 21.0018 18.7019 0.537726 3.00154 3.88403
19.9461 18.298 21.8316 0.355815 0.239264 2.10315
ITEM: TIMESTEP
5000
ITEM: NUMBER OF ATOMS
6
ITEM: BOX BOUNDS ss ss ss
1.8846262682699773e+01 2.1597859089727521e+01
1.8648345167623418e+01 2.2174489087043913e+01
1.8513184778230169e+01 2.2228297210849011e+01
ITEM: ATOMS x y z vx vy vz
19.1679 21.142 20.867 0.0656394 4.01299 0.277913
21.7495 21.6062 20.093 0.0599829 -2.62891 1.48187
19.5805 18.2115 19.7083 3.96386 -0.393717 -1.41352
20.3114 21.353 22.4856 0.189084 -0.407443 -1.40158
20.1003 20.6122 18.4138 -3.76065 -0.054609 -0.637722
21.4603 19.4452 20.8023 -0.517924 -0.528308 1.69304
ITEM: TIMESTEP
6000
ITEM: NUMBER OF ATOMS
6
ITEM: BOX BOUNDS ss ss ss
1.9049928061030975e+01 2.1620925169568704e+01
1.8868180609583483e+01 2.1762329115372975e+01
1.9207267013282085e+01 2.1812015645595210e+01
ITEM: ATOMS x y z vx vy vz
19.2539 21.7959 21.0143 1.02711 1.64758 2.64316
21.1968 21.7245 19.5273 -1.45539 1.59278 -2.86279
21.7538 19.0751 19.8147 2.3669 1.92271 3.15593
21.5004 20.3545 21.5209 -0.500521 -4.33302 -0.991298
19.5603 20.2552 19.0126 0.190771 0.190292 -5.4021
19.1049 19.1648 21.4803 -1.62887 -1.02034 3.4571
ITEM: TIMESTEP
7000
ITEM: NUMBER OF ATOMS
6
ITEM: BOX BOUNDS ss ss ss
1.9213363831701844e+01 2.1692211331874393e+01
1.8474666930149009e+01 2.1783766850264104e+01
1.8661743063691254e+01 2.2351846950048650e+01
ITEM: ATOMS x y z vx vy vz
19.7598 21.3086 21.0185 0.038803 -0.665122 1.3609
21.1553 21.8818 18.3461 -0.0901116 1.03925 0.628974
21.3079 19.8722 19.7935 3.59137 -1.3208 -2.08241
21.0791 19.6329 22.9506 -0.708858 -1.29408 0.587486
19.216 20.9 18.6284 -2.46604 -0.00929372 -2.76456
19.8519 18.7743 21.6329 -0.365157 2.25003 2.26961
ITEM: TIMESTEP
8000
ITEM: NUMBER OF ATOMS
6
ITEM: BOX BOUNDS ss ss ss
1.9219464385482517e+01 2.1463288412269790e+01
1.8816257057165622e+01 2.1801033475511616e+01
1.8826988143393475e+01 2.1824602812534049e+01
ITEM: ATOMS x y z vx vy vz
19.2154 21.7116 21.1222 -0.169909 -2.26572 -2.36788
21.2753 21.7282 19.7397 2.57762 3.1647 -1.51611
20.8636 18.8052 19.4357 -2.09238 -0.487151 0.262552
21.4318 20.7027 21.8793 -0.364113 -0.227338 1.66484
19.5189 20.6902 18.8083 -1.29871 2.29353 -0.70765
20.065 18.732 21.3848 1.34749 -2.47803 2.66425
ITEM: TIMESTEP
9000
ITEM: NUMBER OF ATOMS
6
ITEM: BOX BOUNDS ss ss ss
1.8862480762632664e+01 2.1967847931955284e+01
1.8510815696329779e+01 2.2622644885918508e+01
1.8827483560404286e+01 2.1829561718867044e+01
ITEM: ATOMS x y z vx vy vz
18.987 20.8968 20.9012 3.47603 -0.343188 -2.04111
20.45 22.7876 20.3601 -2.77146 0.40401 1.1485
19.7269 18.3983 19.5606 -1.64714 0.916218 2.16685
22.0008 20.5908 20.8056 2.29282 0.00208925 2.13578
20.8416 20.6081 19.0199 -0.671458 -0.695224 -1.73931
20.3638 19.0883 21.7226 -0.678785 -0.283905 -1.67071
ITEM: TIMESTEP
10000
ITEM: NUMBER OF ATOMS
6
ITEM: BOX BOUNDS ss ss ss
1.9133874387804877e+01 2.1357104404731601e+01
1.8557011380366109e+01 2.2669907927422138e+01
1.8987216354930670e+01 2.1605198621463998e+01
ITEM: ATOMS x y z vx vy vz
19.0103 20.4745 20.8721 -1.06707 -1.85137 -0.394124
20.3482 22.6044 20.0846 -1.42895 -0.179208 -0.384792
18.9937 19.1141 19.3497 -2.86348 0.752637 -1.72141
21.724 21.1768 21.347 2.87184 -1.77752 -1.27596
21.302 20.2758 19.1855 1.97746 1.94859 1.01652
20.9918 18.7244 21.5311 0.510203 1.10687 2.75976
ITEM: TIMESTEP
11000
ITEM: NUMBER OF ATOMS
6
ITEM: BOX BOUNDS ss ss ss
1.8904001608525714e+01 2.1851383744065821e+01
1.8600381484497433e+01 2.2088881554328726e+01
1.9064203608534218e+01 2.1810130142012934e+01
ITEM: ATOMS x y z vx vy vz
19.4508 20.8263 21.7423 -2.10202 1.41719 -0.841727
20.0156 21.8829 19.5832 -1.24124 -2.18054 2.68816
18.9371 19.4635 19.2023 1.62266 0.842012 2.73603
21.7894 21.1531 21.7125 -1.00967 -0.879096 -0.756766
21.6877 20.368 19.427 4.61965 0.818689 -3.7659
20.4893 18.6762 20.7027 -1.88939 -0.0182537 -0.059796
ITEM: TIMESTEP
12000
ITEM: NUMBER OF ATOMS
6
ITEM: BOX BOUNDS ss ss ss
1.8904001608525714e+01 2.1851383744065821e+01
1.8600381484497433e+01 2.2088881554328726e+01
1.9064203608534218e+01 2.1810130142012934e+01
ITEM: ATOMS x y z vx vy vz
19.0434 20.7966 21.7672 1.9609 1.11014 -0.332019
20.0624 22.1834 19.5633 0.383471 1.91819 -0.652765
19.6193 19.6461 19.5521 -0.324609 -2.45178 -1.62881
21.2843 21.0121 21.6581 -0.886048 -0.8046 1.08052
21.8376 20.3888 18.8557 -1.50254 1.02325 0.734734
20.5232 18.343 20.9736 0.368826 -0.795198 0.798341
ITEM: TIMESTEP
13000
ITEM: NUMBER OF ATOMS
6
ITEM: BOX BOUNDS ss ss ss
1.8904001608525714e+01 2.1851383744065821e+01
1.8600381484497433e+01 2.2088881554328726e+01
1.9064203608534218e+01 2.1810130142012934e+01
ITEM: ATOMS x y z vx vy vz
19.1674 20.8517 21.5851 1.54451 1.09709 0.587007
19.9271 22.17 19.4123 1.37212 -3.65316 -0.708767
19.1948 19.8096 19.1466 -1.70847 -1.55835 -1.20926
21.7441 20.6554 21.8841 0.763537 -1.16592 1.58345
21.7208 20.2686 19.5132 -0.853848 4.17394 0.800749
20.6158 18.6146 20.8288 -1.11784 1.10639 -1.05317
ITEM: TIMESTEP
14000
ITEM: NUMBER OF ATOMS
6
ITEM: BOX BOUNDS ss ss ss
1.8959323699909749e+01 2.1823531091115374e+01
1.8420600324816458e+01 2.2073659529870792e+01
1.9010536130793216e+01 2.2155539960528369e+01
ITEM: ATOMS x y z vx vy vz
19.7445 21.2773 21.3731 -0.913381 -0.771049 1.98035
19.2556 22.0918 18.9651 -0.180773 -0.0999735 -1.64862
19.2682 19.8337 19.0583 -0.584452 1.21199 0.0758159
21.9249 20.0637 22.1388 0.836592 1.99396 -2.00721
21.6797 20.605 19.8105 2.11822 -0.218531 1.66303
20.4972 18.4986 21.0242 -1.2762 -2.11639 -0.0633639
ITEM: TIMESTEP
15000
ITEM: NUMBER OF ATOMS
6
ITEM: BOX BOUNDS ss ss ss
1.8939711805521728e+01 2.1759373522413462e+01
1.8561443804573823e+01 2.2000643017991035e+01
1.9193237417005840e+01 2.1694186802655075e+01
ITEM: ATOMS x y z vx vy vz
19.0717 20.5708 21.5268 2.16047 -0.0279179 -1.7843
20.5155 21.8332 19.8096 -1.93798 2.2237 0.431772
18.9032 19.999 18.8864 -0.720059 0.858493 -1.27911
21.5928 21.2371 21.9269 -0.107965 -0.380311 0.810159
21.4268 19.883 19.0711 -0.499863 -1.75302 -0.251735
20.86 18.8469 21.1492 1.10539 -0.920949 2.07322
ITEM: TIMESTEP
16000
ITEM: NUMBER OF ATOMS
6
ITEM: BOX BOUNDS ss ss ss
1.8925702945378202e+01 2.1744713293153936e+01
1.8703629754192846e+01 2.2162529697812719e+01
1.8843207620617314e+01 2.1616559784533379e+01
ITEM: ATOMS x y z vx vy vz
19.1122 20.1063 21.3733 -0.238771 -1.3973 -0.0424607
20.3924 21.947 19.7627 -0.574115 2.53478 -0.68758
18.8661 20.5603 18.6072 0.0741239 0.192253 0.321027
21.7119 21.2161 21.641 0.842202 0.374913 -0.381784
21.1743 19.8254 19.3797 0.593419 -0.767222 -0.502907
21.1131 18.7149 21.6061 -0.696858 -0.937423 1.2937
ITEM: TIMESTEP
17000
ITEM: NUMBER OF ATOMS
6
ITEM: BOX BOUNDS ss ss ss
1.8925702945378202e+01 2.1744713293153936e+01
1.8703629754192846e+01 2.2162529697812719e+01
1.8843207620617314e+01 2.1616559784533379e+01
ITEM: ATOMS x y z vx vy vz
19.2957 20.1235 21.3197 -0.953434 -0.65284 1.38848
20.3867 21.9667 19.576 -0.60544 2.38191 0.169295
18.761 20.6505 18.7528 0.745275 -0.901551 -0.953286
21.4705 21.268 21.7405 1.3747 1.39531 0.579907
21.3905 19.739 19.4636 -0.083623 -1.79032 -0.23816
21.0656 18.6223 21.5174 -0.477483 -0.432509 -0.946236
ITEM: TIMESTEP
18000
ITEM: NUMBER OF ATOMS
6
ITEM: BOX BOUNDS ss ss ss
1.8960895120928626e+01 2.1807042869738744e+01
1.8527901447378525e+01 2.2208688078798566e+01
1.9160779582745661e+01 2.1814792473204268e+01
ITEM: ATOMS x y z vx vy vz
19.0269 21.3342 21.6018 -1.30068 1.38336 -1.54747
20.1691 22.0936 19.5553 -0.571625 2.0051 -1.11031
19.2655 19.8148 19.6156 -1.261 -1.17438 1.62976
21.2442 20.4636 21.7069 1.70851 -2.75942 1.85469
21.8316 20.3086 19.1686 0.459554 -0.228808 0.146393
20.8328 18.3552 20.7218 0.965241 0.774147 -0.973051
ITEM: TIMESTEP
19000
ITEM: NUMBER OF ATOMS
6
ITEM: BOX BOUNDS ss ss ss
1.8960895120928626e+01 2.1807042869738744e+01
1.8527901447378525e+01 2.2208688078798566e+01
1.9160779582745661e+01 2.1814792473204268e+01
ITEM: ATOMS x y z vx vy vz
18.973 21.3854 21.4655 -0.721579 -0.156568 0.593948
20.2459 22.2366 19.8755 -1.9483 0.110341 -0.943121
19.3236 19.7229 19.7075 -0.931694 1.19652 -1.42445
21.2843 20.542 21.525 2.90735 -1.19582 0.483131
21.7363 20.1996 18.9985 1.00485 -0.719891 0.918541
20.8069 18.2835 20.798 -0.310621 0.765419 0.371947
ITEM: TIMESTEP
20000
ITEM: NUMBER OF ATOMS
6
ITEM: BOX BOUNDS ss ss ss
1.8960895120928626e+01 2.1807042869738744e+01
1.8527901447378525e+01 2.2208688078798566e+01
1.9160779582745661e+01 2.1814792473204268e+01
ITEM: ATOMS x y z vx vy vz
19.0598 20.7143 21.8319 1.06514 -2.41181 -1.09733
20.2657 22.1014 19.7847 1.41754 -2.51342 -2.00528
19.2693 19.8435 19.3359 -3.27597 1.33618 -0.902531
21.4862 20.9822 21.3727 1.78477 1.50536 1.83371
21.808 20.0906 19.1083 -0.656415 1.91351 1.21699
20.481 18.6381 20.9366 -0.335077 0.170188 0.954433
ITEM: TIMESTEP
21000
ITEM: NUMBER OF ATOMS
6
ITEM: BOX BOUNDS ss ss ss
1.8960895120928626e+01 2.1807042869738744e+01
1.8527901447378525e+01 2.2208688078798566e+01
1.9160779582745661e+01 2.1814792473204268e+01
ITEM: ATOMS x y z vx vy vz
19.3346 21.0196 21.5176 -0.411812 -0.422584 0.912921
20.0135 22.2051 19.659 1.46358 0.825139 -0.924985
19.0809 19.6488 19.2723 -1.41813 0.117951 1.66082
21.7303 20.9296 21.7429 -1.57661 1.60385 0.511539
21.5453 19.9803 19.3101 1.1035 -1.03867 -0.197787
20.6653 18.5867 20.868 0.839473 -1.08569 -1.96251
ITEM: TIMESTEP
22000
ITEM: NUMBER OF ATOMS
6
ITEM: BOX BOUNDS ss ss ss
1.8960895120928626e+01 2.1807042869738744e+01
1.8527901447378525e+01 2.2208688078798566e+01
1.9160779582745661e+01 2.1814792473204268e+01
ITEM: ATOMS x y z vx vy vz
19.0114 20.8292 21.8678 -0.736751 0.504987 0.0937025
20.1967 21.8944 19.6563 -0.536977 1.43713 0.854276
19.2636 19.8403 19.2784 0.926693 0.987994 0.317862
21.532 20.8717 21.5032 -0.906281 1.05337 -0.723491
21.8297 20.2455 18.8967 0.0174639 -2.09922 -0.186263
20.5366 18.6889 21.1676 1.23585 -1.88426 -0.356087
ITEM: TIMESTEP
23000
ITEM: NUMBER OF ATOMS
6
ITEM: BOX BOUNDS ss ss ss
1.8960895120928626e+01 2.1807042869738744e+01
1.8527901447378525e+01 2.2208688078798566e+01
1.9160779582745661e+01 2.1814792473204268e+01
ITEM: ATOMS x y z vx vy vz
19.0219 21.1105 21.6593 0.171487 -0.131713 0.669445
20.2126 22.1725 19.6056 0.879862 -1.77454 -0.257759
19.1413 19.7113 19.6314 -0.329163 0.0612722 0.0518928
21.388 20.6282 21.7266 -0.853677 -0.570986 1.17544
21.5089 20.2434 18.9949 0.200971 0.622105 -1.8177
21.0973 18.5041 20.7523 -0.0694807 1.79387 0.178675
ITEM: TIMESTEP
24000
ITEM: NUMBER OF ATOMS
6
ITEM: BOX BOUNDS ss ss ss
1.8960895120928626e+01 2.1807042869738744e+01
1.8527901447378525e+01 2.2208688078798566e+01
1.9160779582745661e+01 2.1814792473204268e+01
ITEM: ATOMS x y z vx vy vz
18.9761 20.8453 21.7439 1.89024 0.307962 -0.244208
20.3985 21.9339 19.6817 -0.757896 -0.634215 -1.5427
18.995 19.6994 19.58 0.241649 0.1218 -0.23
21.4818 20.8398 21.6622 -0.538013 -0.918168 1.32822
21.7415 20.3085 18.8106 -0.488265 1.11224 0.459219
20.777 18.7431 20.8915 -0.347718 0.0103845 0.229469
ITEM: TIMESTEP
25000
ITEM: NUMBER OF ATOMS
6
ITEM: BOX BOUNDS ss ss ss
1.8960895120928626e+01 2.1807042869738744e+01
1.8527901447378525e+01 2.2208688078798566e+01
1.9160779582745661e+01 2.1814792473204268e+01
ITEM: ATOMS x y z vx vy vz
19.1069 20.9631 21.4655 0.679753 -0.681945 0.206623
20.2571 22.2714 19.684 -0.282258 0.594422 0.948891
19.1219 19.4553 19.5184 1.73454 -0.277737 -0.878238
21.5696 20.829 21.6454 0.451112 1.19326 -1.71568
21.6035 20.3066 19.1742 -0.594246 -0.151255 0.635989
20.7109 18.5446 20.8825 -1.9889 -0.676749 0.802417
ITEM: TIMESTEP
26000
ITEM: NUMBER OF ATOMS
6
ITEM: BOX BOUNDS ss ss ss
1.8960895120928626e+01 2.1807042869738744e+01
1.8527901447378525e+01 2.2208688078798566e+01
1.9160779582745661e+01 2.1814792473204268e+01
ITEM: ATOMS x y z vx vy vz
19.0609 20.8694 21.5724 0.223335 -1.61582 1.15653
20.0478 22.0044 19.7504 0.1338 -1.43896 1.29178
19.1377 19.8024 19.1079 0.414929 0.914752 -0.777605
21.7994 20.8307 21.5632 0.174039 2.52518 -1.2268
21.7307 20.1189 19.2836 0.715986 -2.00299 0.629405
20.5934 18.7442 21.0925 -1.66209 1.61785 -1.07331
ITEM: TIMESTEP
27000
ITEM: NUMBER OF ATOMS
6
ITEM: BOX BOUNDS ss ss ss
1.8960895120928626e+01 2.1807042869738744e+01
1.8527901447378525e+01 2.2208688078798566e+01
1.9160779582745661e+01 2.1814792473204268e+01
ITEM: ATOMS x y z vx vy vz
19.077 20.5359 21.6175 0.178539 0.598814 -1.3673
20.123 22.1173 19.6697 -0.538515 0.0331642 0.34737
19.1715 20.1544 19.1486 -0.554359 1.21122 0.33634
21.6727 21.0738 21.4418 -0.733323 -0.747837 -0.817478
21.8185 19.6855 19.3225 -0.025676 -0.422244 1.09521
20.5073 18.8031 21.1699 1.67333 -0.67312 0.405855
ITEM: TIMESTEP
28000
ITEM: NUMBER OF ATOMS
6
ITEM: BOX BOUNDS ss ss ss
1.8960895120928626e+01 2.1807042869738744e+01
1.8527901447378525e+01 2.2208688078798566e+01
1.9160779582745661e+01 2.1814792473204268e+01
ITEM: ATOMS x y z vx vy vz
19.08 20.6329 21.5929 -0.516986 1.6646 -1.05074
20.2217 22.062 19.7129 -0.239059 -1.4612 -0.299119
19.1895 19.8198 19.1973 -1.25765 -1.35127 0.732448
21.6264 21.1685 21.3754 0.911884 -2.40094 1.6264
21.7363 20.0302 19.3425 0.046687 1.54813 0.212608
20.5161 18.6565 21.149 1.05513 2.00068 -1.2216
ITEM: TIMESTEP
29000
ITEM: NUMBER OF ATOMS
6
ITEM: BOX BOUNDS ss ss ss
1.8960895120928626e+01 2.1807042869738744e+01
1.8527901447378525e+01 2.2208688078798566e+01
1.9160779582745661e+01 2.1814792473204268e+01
ITEM: ATOMS x y z vx vy vz
19.0621 20.8314 21.4916 -0.175391 -0.138741 -0.824292
20.3053 22.025 19.7188 1.1608 -0.285306 -0.622423
19.1428 19.4607 19.4034 -0.970425 -0.396522 2.04477
21.6519 20.9121 21.6771 -0.507591 -0.191308 -0.233216
21.6846 20.3463 19.0771 0.718732 1.88592 -0.00368502
20.5233 18.7946 21.0019 -0.226124 -0.874043 -0.361157
ITEM: TIMESTEP
30000
ITEM: NUMBER OF ATOMS
6
ITEM: BOX BOUNDS ss ss ss
1.8960895120928626e+01 2.1807042869738744e+01
1.8527901447378525e+01 2.2208688078798566e+01
1.9160779582745661e+01 2.1814792473204268e+01
ITEM: ATOMS x y z vx vy vz
19.1563 20.781 21.6281 0.0113349 -1.79547 0.697255
20.2097 22.0865 19.6231 0.559942 0.623467 0.493082
19.1374 19.7216 19.3918 -0.780938 0.202635 0.146399
21.3411 20.9995 21.6837 -0.323355 0.935542 -2.5571
21.6554 20.17 19.1666 1.1872 -0.730345 1.46933
20.8701 18.6115 20.8766 -0.654184 0.76417 -0.248968
ITEM: TIMESTEP
31000
ITEM: NUMBER OF ATOMS
6
ITEM: BOX BOUNDS ss ss ss
1.8960895120928626e+01 2.1807042869738744e+01
1.8527901447378525e+01 2.2208688078798566e+01
1.9160779582745661e+01 2.1814792473204268e+01
ITEM: ATOMS x y z vx vy vz
19.1644 20.5047 21.7744 0.152395 -0.346804 -1.02605
19.9746 21.9625 19.8895 -0.543895 -0.358253 1.88256
19.2557 19.855 19.0358 1.55558 -0.595411 -1.17606
21.549 21.2039 21.58 1.86286 1.09887 -0.76095
21.6861 20.0307 19.139 -1.39064 0.351719 0.115221
20.7401 18.8131 20.9512 -1.63629 -0.150117 0.965276
ITEM: TIMESTEP
32000
ITEM: NUMBER OF ATOMS
6
ITEM: BOX BOUNDS ss ss ss
1.8960895120928626e+01 2.1807042869738744e+01
1.8527901447378525e+01 2.2208688078798566e+01
1.9160779582745661e+01 2.1814792473204268e+01
ITEM: ATOMS x y z vx vy vz
19.1222 20.4921 21.6166 0.1776 1.69218 0.520872
19.8305 22.0505 20.031 0.022325 1.23776 0.966913
19.4098 19.7336 18.9994 0.587954 -1.45633 0.160006
21.7036 21.0285 21.4867 -2.09715 -1.06128 0.0286353
21.5963 20.292 19.1209 0.188549 -0.635114 -0.541279
20.7076 18.7733 21.1154 1.12072 0.222784 -1.13515
ITEM: TIMESTEP
33000
ITEM: NUMBER OF ATOMS
6
ITEM: BOX BOUNDS ss ss ss
1.8960895120928626e+01 2.1807042869738744e+01
1.8527901447378525e+01 2.2208688078798566e+01
1.9160779582745661e+01 2.1814792473204268e+01
ITEM: ATOMS x y z vx vy vz
19.0073 20.4018 21.6618 0.664565 0.155126 0.289761
20.0641 22.101 19.7816 1.30208 -0.403973 -0.896807
19.2253 19.7277 19.362 -0.376034 -0.241096 0.909148
21.4753 20.8511 21.5579 -1.55667 0.949929 1.77591
21.7018 20.5542 19.0685 -0.622032 -0.378741 0.0712872
20.8962 18.7342 20.9382 0.588092 -0.0812441 -2.1493
ITEM: TIMESTEP
34000
ITEM: NUMBER OF ATOMS
6
ITEM: BOX BOUNDS ss ss ss
1.8960895120928626e+01 2.1807042869738744e+01
1.8527901447378525e+01 2.2208688078798566e+01
1.9160779582745661e+01 2.1814792473204268e+01
ITEM: ATOMS x y z vx vy vz
19.1911 20.2945 21.588 0.554937 -1.27412 1.01182
19.957 21.9741 19.7213 -0.125409 -0.642353 0.446014
18.9804 19.8152 19.2868 0.150823 0.536648 -1.38919
21.5008 21.0745 21.7669 0.466696 1.21016 -0.775017
21.7485 20.4612 19.3086 0.408646 -0.130799 0.287442
20.9923 18.7506 20.6984 -1.45569 0.300468 0.418934
ITEM: TIMESTEP
35000
ITEM: NUMBER OF ATOMS
6
ITEM: BOX BOUNDS ss ss ss
1.8960895120928626e+01 2.1807042869738744e+01
1.8527901447378525e+01 2.2208688078798566e+01
1.9160779582745661e+01 2.1814792473204268e+01
ITEM: ATOMS x y z vx vy vz
19.1106 20.24 21.6836 -0.411179 -0.443937 -1.08925
19.7316 22.0522 20.0555 -0.748595 1.08128 0.592764
19.2964 19.8577 19.1016 1.00844 -0.399723 0.233287
21.5982 20.9863 21.4382 1.3999 -0.485161 -1.02749
21.7755 20.4511 19.1766 -0.131624 1.17631 -0.707933
20.8577 18.7827 20.9144 -1.11694 -0.928769 1.99862
ITEM: TIMESTEP
36000
ITEM: NUMBER OF ATOMS
6
ITEM: BOX BOUNDS ss ss ss
1.8960895120928626e+01 2.1807042869738744e+01
1.8527901447378525e+01 2.2208688078798566e+01
1.9160779582745661e+01 2.1814792473204268e+01
ITEM: ATOMS x y z vx vy vz
19.0256 20.4279 21.5454 -1.39241 0.234676 -0.576073
19.7088 22.05 20.1282 0.539183 -0.347972 -1.09381
19.4071 19.726 19.1054 -1.33877 -0.294298 0.905925
21.6547 20.9052 21.6285 1.11874 -0.734496 1.18423
21.5851 20.5389 19.1183 -0.126897 0.546404 0.294038
20.9887 18.722 20.8443 1.20016 0.595686 -0.714313
ITEM: TIMESTEP
37000
ITEM: NUMBER OF ATOMS
6
ITEM: BOX BOUNDS ss ss ss
1.8960895120928626e+01 2.1807042869738744e+01
1.8527901447378525e+01 2.2208688078798566e+01
1.9160779582745661e+01 2.1814792473204268e+01
ITEM: ATOMS x y z vx vy vz
19.1014 20.2773 21.6192 0.545122 -0.201131 0.725232
19.9539 22.0211 20.0015 -1.03688 0.540905 -0.972391
19.1971 19.6736 19.2035 -1.50377 1.50101 0.0916583
21.3884 20.9386 21.8479 -1.12747 -0.0606489 -0.100481
21.6324 20.6072 19.0542 1.34717 -1.20674 0.753255
21.0967 18.8522 20.6437 1.77583 -0.573393 -0.497273
ITEM: TIMESTEP
38000
ITEM: NUMBER OF ATOMS
6
ITEM: BOX BOUNDS ss ss ss
1.9175494506628144e+01 2.1803061365786220e+01
1.8621656239710806e+01 2.2164836465808474e+01
1.9181672591459971e+01 2.1678081064279933e+01
ITEM: ATOMS x y z vx vy vz
19.1918 19.9768 21.7456 -0.311286 -0.0391725 -0.00658271
19.7981 22.1137 19.9737 -1.61142 -0.889795 0.60321
19.3433 19.9593 19.1859 0.209109 1.50674 -1.24117
21.311 21.1668 21.6334 1.23925 0.235437 0.0223114
21.7191 20.517 19.1764 0.561903 -0.369543 -0.732037
21.0067 18.6364 20.655 -0.0875519 -0.443666 1.35427
ITEM: TIMESTEP
39000
ITEM: NUMBER OF ATOMS
6
ITEM: BOX BOUNDS ss ss ss
1.9175494506628144e+01 2.1803061365786220e+01
1.8621656239710806e+01 2.2164836465808474e+01
1.9181672591459971e+01 2.1678081064279933e+01
ITEM: ATOMS x y z vx vy vz
19.1095 20.0519 21.661 -0.0300389 1.21134 -0.163932
19.7523 22.0086 20.2295 -0.235272 0.664279 0.432605
19.4354 19.722 18.9279 -0.0798039 -1.28405 -1.19573
21.5855 21.0981 21.6065 0.0973838 -2.03106 0.821033
21.666 20.7323 19.1809 -0.604957 0.838449 -0.967943
20.8214 18.757 20.7642 0.852688 0.601048 1.07397
ITEM: TIMESTEP
40000
ITEM: NUMBER OF ATOMS
6
ITEM: BOX BOUNDS ss ss ss
1.9175494506628144e+01 2.1803061365786220e+01
1.8621656239710806e+01 2.2164836465808474e+01
1.9181672591459971e+01 2.1678081064279933e+01
ITEM: ATOMS x y z vx vy vz
18.9896 20.1199 21.5094 -0.302222 -0.633406 0.83817
19.8439 22.1425 20.1983 1.26506 0.209259 -1.70674
19.4095 19.5933 19.1653 -0.0718172 0.716649 0.665544
21.4027 20.9408 21.6839 -0.960423 0.284198 1.68186
21.6033 20.9026 19.1512 -0.711073 0.381821 -0.767876
21.121 18.6708 20.6619 0.780475 -0.958521 -0.710958
ITEM: TIMESTEP
41000
ITEM: NUMBER OF ATOMS
6
ITEM: BOX BOUNDS ss ss ss
1.9175494506628144e+01 2.1803061365786220e+01
1.8621656239710806e+01 2.2164836465808474e+01
1.9181672591459971e+01 2.1678081064279933e+01
ITEM: ATOMS x y z vx vy vz
19.1182 19.9819 21.577 1.70661 -1.12977 0.817701
19.7953 22.0607 20.1498 -0.401266 0.169496 0.00730497
19.1984 19.7131 19.1621 -0.00730107 0.435139 -1.49627
21.3187 21.0843 21.8103 -0.221404 0.956435 0.0994231
21.8422 20.7299 19.2591 0.367028 -0.666452 0.181261
21.0971 18.8002 20.4116 -1.44367 0.235149 0.390583
ITEM: TIMESTEP
42000
ITEM: NUMBER OF ATOMS
6
ITEM: BOX BOUNDS ss ss ss
1.9175494506628144e+01 2.1803061365786220e+01
1.8621656239710806e+01 2.2164836465808474e+01
1.9181672591459971e+01 2.1678081064279933e+01
ITEM: ATOMS x y z vx vy vz
19.0929 19.8846 21.5465 -0.955071 0.187265 -0.25737
19.5267 22.0315 20.32 -0.598362 0.21763 0.670709
19.4584 19.8921 19.0002 1.86632 -0.275304 0.636332
21.491 21.1716 21.5947 0.838982 -0.0833017 -0.826559
21.8041 20.7404 19.3349 -0.339022 1.01168 -0.6862
20.9968 18.6498 20.5737 -0.812847 -1.05797 0.463088
ITEM: TIMESTEP
43000
ITEM: NUMBER OF ATOMS
6
ITEM: BOX BOUNDS ss ss ss
1.9175494506628144e+01 2.1803061365786220e+01
1.8621656239710806e+01 2.2164836465808474e+01
1.9181672591459971e+01 2.1678081064279933e+01
ITEM: ATOMS x y z vx vy vz
18.9435 19.9929 21.4788 -0.226341 -0.00583842 -0.869291
19.6032 21.986 20.386 1.40747 0.784635 0.139766
19.5044 19.7279 19.0306 -1.67561 -2.09349 0.24759
21.4946 20.9273 21.7213 -0.219281 -0.538042 0.392212
21.7264 20.9455 19.1918 -0.0151041 0.303828 0.719367
21.0979 18.7904 20.5616 0.728861 1.5489 -0.629643
ITEM: TIMESTEP
44000
ITEM: NUMBER OF ATOMS
6
ITEM: BOX BOUNDS ss ss ss
1.9175494506628144e+01 2.1803061365786220e+01
1.8621656239710806e+01 2.2164836465808474e+01
1.9181672591459971e+01 2.1678081064279933e+01
ITEM: ATOMS x y z vx vy vz
19.0817 19.8981 21.4921 -0.771981 -0.278898 -0.102545
19.8064 22.0564 20.1924 0.0536733 -0.514127 0.246505
19.2559 19.7284 19.0833 -0.287247 0.507033 1.2764
21.2743 20.9084 21.9386 -0.53418 1.31264 -1.02457
21.6158 20.9217 19.2656 1.02759 -0.485698 0.975375
21.3359 18.857 20.3979 0.512147 -0.540952 -1.37116
ITEM: TIMESTEP
45000
ITEM: NUMBER OF ATOMS
6
ITEM: BOX BOUNDS ss ss ss
1.9175494506628144e+01 2.1803061365786220e+01
1.8621656239710806e+01 2.2164836465808474e+01
1.9181672591459971e+01 2.1678081064279933e+01
ITEM: ATOMS x y z vx vy vz
19.1883 19.7093 21.5687 0.56783 0.163689 -1.03657
19.5612 22.0333 20.2878 -0.968374 -0.524583 1.62541
19.4764 19.9736 19.0183 0.281829 -0.433408 -1.00365
21.2428 20.9881 21.7675 1.3151 1.17843 -1.39587
21.786 20.9385 19.2382 0.260162 -0.155586 1.20835
21.1153 18.7272 20.4894 -1.45655 -0.228544 0.602337
ITEM: TIMESTEP
46000
ITEM: NUMBER OF ATOMS
6
ITEM: BOX BOUNDS ss ss ss
1.9175494506628144e+01 2.1803061365786220e+01
1.8621656239710806e+01 2.2164836465808474e+01
1.9181672591459971e+01 2.1678081064279933e+01
ITEM: ATOMS x y z vx vy vz
19.1866 19.8213 21.5913 -0.657722 0.831836 -0.173133
19.5054 21.9278 20.4079 0.641244 -0.401931 0.259801
19.584 19.8644 18.7406 0.339778 -0.74196 1.2702
21.482 20.9712 21.7697 -0.687318 -0.555362 0.657123
21.5375 21.0354 19.312 0.0260305 0.658227 -1.19982
21.0745 18.7499 20.5485 0.337987 0.20919 -0.814166
ITEM: TIMESTEP
47000
ITEM: NUMBER OF ATOMS
6
ITEM: BOX BOUNDS ss ss ss
1.9175494506628144e+01 2.1803061365786220e+01
1.8621656239710806e+01 2.2164836465808474e+01
1.9181672591459971e+01 2.1678081064279933e+01
ITEM: ATOMS x y z vx vy vz
19.1237 19.7263 21.5046 0.857115 -0.664671 0.36769
19.6749 22.0988 20.3031 1.22482 1.68878 -0.714477
19.4444 19.7929 19.1101 -0.124465 -0.469078 -0.119878
21.1997 20.8202 21.8705 -1.28291 -0.152911 0.940835
21.5757 21.1165 19.188 -1.21127 -1.09712 0.456046
21.3517 18.8152 20.3937 0.536711 0.695005 -0.930216
ITEM: TIMESTEP
48000
ITEM: NUMBER OF ATOMS
6
ITEM: BOX BOUNDS ss ss ss
1.9175494506628144e+01 2.1803061365786220e+01
1.8621656239710806e+01 2.2164836465808474e+01
1.9181672591459971e+01 2.1678081064279933e+01
ITEM: ATOMS x y z vx vy vz
19.2046 19.6899 21.4968 0.846434 -0.553702 0.737705
19.6071 21.9351 20.3604 -0.120197 -1.28181 0.606393
19.302 19.8687 18.9632 1.79336 0.999896 -0.72684
21.2757 20.9747 21.9207 -0.137429 0.951786 -0.0124461
21.6554 20.9782 19.2974 -0.101333 0.561662 -1.3616
21.3251 18.9234 20.3315 -2.28084 -0.677829 0.756791
ITEM: TIMESTEP
49000
ITEM: NUMBER OF ATOMS
6
ITEM: BOX BOUNDS ss ss ss
1.9175494506628144e+01 2.1803061365786220e+01
1.8621656239710806e+01 2.2164836465808474e+01
1.9181672591459971e+01 2.1678081064279933e+01
ITEM: ATOMS x y z vx vy vz
19.1548 19.6829 21.4814 0.573553 0.81939 0.256484
19.3052 21.8412 20.5234 -0.496148 1.0431 0.292861
19.5568 19.9364 18.967 1.43217 -0.859095 -0.485142
21.5205 21.0052 21.6445 0.059285 -0.377609 -0.83471
21.6563 21.1314 19.2875 -1.22155 0.550635 1.00966
21.1765 18.7729 20.4662 -0.347309 -1.17642 -0.239148
ITEM: TIMESTEP
50000
ITEM: NUMBER OF ATOMS
6
ITEM: BOX BOUNDS ss ss ss
1.9175494506628144e+01 2.1803061365786220e+01
1.8621656239710806e+01 2.2164836465808474e+01
1.9181672591459971e+01 2.1678081064279933e+01
ITEM: ATOMS x y z vx vy vz
19.1017 19.7689 21.522 0.0220758 -0.0542286 -0.295038
19.4327 21.8979 20.4107 1.92596 -0.528774 -0.196954
19.4242 19.7445 19.0082 -1.47719 -0.480028 0.719381
21.4765 20.7882 21.7515 -1.57516 0.214332 1.42765
21.5726 21.2443 19.3675 0.26391 0.542231 -0.9099
21.3624 18.9261 20.31 0.840406 0.306468 -0.745138
