ITEM: TIMESTEP
0
ITEM: NUMBER OF ATOMS
711
ITEM: BOX BOUNDS ss ss ss
7.2787747770626323e+00 3.3511225222937348e+01
6.0802830656066282e+00 3.4709716934393356e+01
5.8976989091847249e+00 3.4892301090815280e+01
ITEM: ATOMS x y z vx vy vz
19.3845 11.562 9.82488 0.86486 0.222839 -1.69044
18.9303 14.2231 8.82158 0.0596367 -2.25984 -0.289315
23.4052 12.1986 9.69318 -0.416816 -2.33623 -0.745552
21.2031 12.7083 7.90839 1.29665 0.231653 -0.798546
16.6574 15.7379 9.73477 -0.75266 -0.679678 2.29837
18.476 16.8842 7.81827 -0.232234 -0.733538 0.535268
20.2947 18.0305 5.90178 0.443845 0.907647 -0.653378
20.6781 16.3745 9.60307 0.827778 -1.62475 -0.794088
22.951 14.8597 8.68988 -0.310261 -0.278745 -0.843645
24.6988 17.0111 9.47137 0.97344 0.377999 -1.06131
20.7489 15.3694 6.90508 0.364089 -0.923482 0.0386857
22.4967 17.5208 7.68657 -0.896525 0.131103 -1.72308
13.9303 19.9138 9.64466 1.14331 -1.02828 -1.27522
15.7489 21.0601 7.72816 0.192987 0.49471 -2.6013
16.2032 18.399 8.73146 0.268215 0.478399 1.04074
17.951 20.5504 9.51295 1.04126 -1.86441 -0.392436
20.2239 19.0356 8.59976 0.0651763 -0.472163 -0.469743
18.0218 19.5453 6.81497 1.0532 -0.953047 0.0875065
19.7697 21.6967 7.59646 -0.847258 -2.27499 0.189515
21.9717 21.187 9.38125 -0.274951 -0.20024 -0.377761
24.2446 19.6722 8.46806 0.0377019 -1.88329 -0.9122
22.0425 20.1819 6.68327 -0.607723 0.00731383 -1.65083
23.7904 22.3333 7.46476 -0.63997 -2.21898 -0.80776
25.9925 21.8237 9.24955 -0.955169 0.284692 -0.0325904
11.2032 24.0896 9.55454 1.13363 0.350626 0.404183
13.4761 22.5749 8.64135 -0.845172 0.465797 1.25048
15.2239 24.7263 9.42284 0.204762 -0.00861135 0.555904
17.4968 23.2115 8.50965 -2.13618 0.16234 2.02947
19.2447 25.3629 9.29114 -0.437473 0.886573 -1.48748
21.5175 23.8481 8.37795 -0.187866 2.27477 -1.15777
23.2654 25.9996 9.15944 0.828535 0.196335 0.273844
27.7403 23.9751 10.031 2.10895 1.00337 1.39898
25.5382 24.4848 8.24625 -0.317289 -1.44943 -0.761168
25.0132 28.151 9.94093 -0.370369 0.115733 -0.189379
27.2861 26.6362 9.02774 -0.655206 -2.5857 -1.68683
15.7472 9.26934 13.6579 0.647697 0.568596 -1.37683
19.7679 9.90599 13.5262 2.23702 -1.28805 2.39779
13.0201 13.4452 13.5677 -1.45371 0.173755 -1.08187
15.293 11.9304 12.6546 -0.331567 0.178335 -0.405583
17.0408 14.0819 13.436 0.237216 0.439125 0.0741359
17.5658 10.4157 11.7414 -0.62465 1.26185 0.643097
19.3137 12.5671 12.5229 0.2245 1.56029 -0.380182
17.1116 13.0768 10.7381 0.100751 -0.592904 -0.762034
23.7886 10.5426 13.3945 -0.87814 0.570413 -1.19158
21.5866 11.0523 11.6097 0.70266 0.809251 -0.478844
23.3344 13.2037 12.3912 1.54461 2.04763 1.25034
21.1323 13.7134 10.6064 -0.301147 2.32243 1.04487
25.5365 12.6941 14.1759 -0.698619 -0.269455 0.941297
27.8094 11.1793 13.2628 1.12122 -0.454607 0.883704
25.6073 11.6889 11.478 -1.27058 1.00812 -1.08119
27.3551 13.8404 12.2595 1.37778 0.0758299 0.00911142
29.5572 13.3307 14.0442 0.673379 1.98907 -1.73986
10.293 17.6211 13.4776 2.60114 -0.474698 0.513087
12.5659 16.1063 12.5645 1.68 0.285285 2.15163
14.3138 18.2578 13.3459 1.20691 0.394838 0.911844
14.8388 14.5915 11.6513 -1.53035 0.274448 -1.05601
14.3845 17.2526 10.648 0.842981 1.1541 1.35999
16.5866 16.743 12.4328 1.51779 -1.78523 1.51586
18.8595 15.2282 11.5196 0.239492 1.20419 0.948083
18.4053 17.8893 10.5163 -0.346607 0.538715 0.130858
21.0616 14.7185 13.3043 -0.697816 -2.26638 -0.19583
22.8094 16.87 14.0858 1.44078 -0.318349 0.470782
20.6073 17.3796 12.3011 -1.06587 -1.11992 -0.388587
22.8802 15.8648 11.3879 0.855006 -1.30178 -0.773876
24.628 18.0163 12.1694 -1.16053 -1.8956 -1.20186
25.0823 15.3552 13.1726 1.68266 -0.954164 0.810054
26.8301 17.5066 13.9541 -0.967203 -0.644995 -0.255898
29.103 15.9918 13.0409 1.15006 1.50414 1.04681
25.153 14.35 10.4747 1.86192 -0.0274755 0.201568
26.9009 16.5015 11.2562 0.102567 -2.67784 1.36545
30.8508 18.1432 13.8224 -0.486458 2.56264 0.680608
7.56597 21.797 13.3875 -0.43157 -2.37563 1.04391
9.83882 20.2822 12.4743 0.161224 2.05737 -0.822404
11.5867 22.4337 13.2558 1.18034 0.617132 0.278762
12.1117 18.7674 11.5612 -0.717153 -0.331876 1.57555
13.8595 20.9189 12.3426 2.39736 1.59755 1.28676
11.6575 21.4285 10.5578 0.0259164 -0.551461 0.459685
15.6782 22.0652 10.4261 0.758659 0.20535 -0.0806639
16.0616 20.4092 14.1274 -1.74027 -0.570251 0.216559
18.3345 18.8944 13.2142 1.8897 -0.213145 -0.42824
20.0823 21.0459 13.9957 -0.114601 0.709281 1.1969
16.1324 19.4041 11.4294 -0.466264 -1.09673 -0.0452983
17.8803 21.5555 12.2109 0.229631 -0.325379 1.52774
20.1531 20.0407 11.2977 -2.19253 0.143052 -0.555575
22.3552 19.5311 13.0825 -0.122012 1.99578 1.27189
24.103 21.6825 13.864 1.01304 -1.96104 -1.29048
21.901 22.1922 12.0792 -0.0596781 0.677751 -1.52405
22.426 18.5259 10.3846 1.68507 -0.243058 -0.62427
24.1738 20.6774 11.166 -0.364165 0.388854 -0.524508
26.3759 20.1677 12.9508 0.949708 -0.0339432 1.95359
28.1238 22.3191 13.7323 1.40677 0.625692 0.0251985
28.6488 18.6529 12.0377 0.92245 -0.84937 -0.933864
26.4467 19.1626 10.2529 0.260142 2.26163 -1.88352
28.1945 21.314 11.0343 1.16895 0.0266341 -1.82291
30.3966 20.8043 12.8191 0.877689 0.176215 -0.0964156
9.31382 23.9485 14.169 0.409424 1.12536 -3.1398
9.3846 22.9433 11.471 -1.26825 0.134328 0.36722
11.1325 25.0948 12.2525 -0.325687 -0.306508 -0.238447
13.3345 24.5851 14.0373 -0.563181 0.595835 0.489745
15.6074 23.0703 13.1241 -3.28034 -1.1314 0.413268
13.4053 23.58 11.3393 -0.0413597 -1.54711 -0.991834
15.1532 25.7314 12.1208 1.07277 1.13624 -0.17059
12.9511 26.2411 10.336 -0.454562 2.71609 0.688312
17.3552 25.2217 13.9056 1.58715 1.60642 -1.59759
19.6281 23.707 12.9924 1.45755 -0.0625769 3.53408
17.426 24.2166 11.2076 -0.351069 -1.26515 -0.483624
19.1739 26.3681 11.9891 0.00412666 0.754878 -0.066482
19.6989 22.7018 10.2944 0.880989 -0.999047 2.79637
21.376 25.8584 13.7739 1.65353 -0.732761 2.28828
23.6488 24.3436 12.8607 -1.07372 -1.35039 0.126387
21.4467 24.8533 11.0759 -0.469132 -1.4507 -0.034397
23.7196 23.3385 10.1627 0.512081 1.05262 -0.923564
25.3967 26.495 13.6422 -0.354459 2.54718 -0.336526
25.9217 22.8288 11.9475 -0.197701 3.46989 -0.575328
27.6695 24.9802 12.729 0.198347 0.558205 -0.182347
25.4675 25.4899 10.9442 0.764619 0.424541 0.140223
32.1445 22.9558 13.6006 -1.45429 -0.512682 0.838435
29.9424 23.4654 11.8158 1.83677 -1.24236 0.533048
31.6902 25.6169 12.5973 -0.904974 -0.131529 1.15083
29.4882 26.1265 10.8125 0.736167 -1.86185 0.203387
12.8803 27.2462 13.034 0.44767 -1.62895 -1.26467
14.6282 29.3976 13.8155 0.99457 0.858594 -0.894174
14.6989 28.3925 11.1175 -1.72443 1.04204 1.41524
16.901 27.8829 12.9023 -1.55853 0.386268 1.94205
18.6489 30.0343 13.6838 1.19387 -0.522174 1.25394
16.4468 30.544 11.899 1.85442 -0.54865 -1.17148
16.9718 26.8777 10.2043 1.86834 -0.545923 -0.89691
18.7197 29.0292 10.9858 0.898587 0.349476 -1.07861
20.9217 28.5195 12.7706 1.40032 -0.983641 -2.60306
23.1946 27.0047 11.8574 0.403253 -0.861705 -0.517046
20.9925 27.5144 10.0726 -0.531832 -0.712485 1.86621
22.7404 29.6658 10.8541 -0.55286 -0.00853276 1.61351
24.9425 29.1561 12.6389 -0.248873 0.334349 -2.19316
27.2153 27.6413 11.7257 0.53388 1.5836 -0.186617
29.4174 27.1317 13.5105 0.86437 0.873817 -0.312504
18.1947 32.6954 12.6805 -1.25215 -0.143855 -0.4404
22.6696 30.6709 13.5521 -1.70041 0.631321 2.81881
20.4675 31.1806 11.7673 0.256468 0.446092 -0.873447
11.6557 9.63783 16.4875 0.870951 1.96097 -0.139885
13.9286 8.12303 15.5744 0.138163 -0.288618 -0.196717
13.8578 9.12816 18.2723 -1.15457 -0.495633 -1.12605
17.9493 8.75967 15.4427 -0.106437 -0.600877 -0.482392
16.1307 7.61336 17.3592 -0.36441 -1.99458 0.158698
17.8785 9.7648 18.1406 -0.62943 0.33981 -2.01718
20.1514 8.25001 17.2274 -0.61397 -0.840644 0.0719538
21.97 9.39632 15.311 -0.799472 -0.176487 1.90846
24.1721 8.88665 17.0957 -0.114005 1.27487 -0.0788959
25.9907 10.033 15.1793 -0.278431 -0.527097 -1.35624
28.1928 9.52329 16.964 -1.07475 -1.01661 0.564953
9.38286 11.1526 17.4007 -1.39647 -0.676617 -1.99695
11.1307 13.3041 18.1822 0.0956025 0.289823 1.3452
8.92864 13.8137 16.3974 0.764466 0.646961 1.2573
11.2015 12.2989 15.4842 0.555244 -0.72656 0.927485
13.4036 11.7893 17.269 0.78955 -0.94577 1.86437
15.1514 13.9407 18.0505 1.72673 -0.667292 0.133227
15.6764 10.2745 16.3558 -1.94866 -0.327087 -1.81453
13.4744 10.7841 14.5711 1.55571 2.08769 0.765081
15.2222 12.9356 15.3525 -0.0705379 -1.01964 -1.87696
17.4243 12.4259 17.1373 -0.492115 0.424325 -1.813
19.6971 10.9111 16.2241 -1.59212 0.0707828 -0.880353
17.4951 11.4208 14.4394 -0.890683 -1.33862 1.70487
19.2429 13.5722 15.2208 -0.532726 1.50545 -0.582993
21.445 13.0625 17.0056 -1.76495 1.97415 0.481842
23.7179 11.5478 16.0924 0.304693 -0.586055 -0.0454436
21.5158 12.0574 14.3077 1.57628 -1.65008 1.05997
23.2636 14.2089 15.0891 -0.211458 -0.715185 2.7274
21.8992 10.4014 18.0089 -0.683882 -0.809571 0.530218
25.4657 13.6992 16.8739 0.281765 0.88848 1.39717
27.7386 12.1844 15.9607 0.883816 1.48107 0.0572986
25.9199 11.0381 17.8772 -2.2136 -0.372972 1.29365
30.0114 10.6696 15.0476 -0.512521 1.45472 -0.41408
31.7593 12.821 15.829 0.684302 0.236963 -1.18468
29.9407 11.6747 17.7455 -0.403921 -0.0917884 -0.831191
8.40364 17.48 18.0921 0.405574 0.675104 0.52275
10.6765 15.9652 17.1789 1.14644 -0.14224 0.0403997
8.47441 16.4748 15.3941 -0.464786 0.594762 -1.37986
10.7473 14.96 14.4809 0.412371 0.73617 0.765908
12.4243 18.1166 17.9604 -0.399297 0.161703 0.00719418
12.9494 14.4504 16.2657 -1.06302 -0.608243 0.468602
14.6972 16.6018 17.0472 -0.381085 -0.186678 2.97426
12.4951 17.1115 15.2624 0.874361 1.8336 0.704046
14.768 15.5967 14.3492 1.1576 0.766761 -0.245502
19.1721 14.5773 17.9188 -1.37983 -0.505829 -0.539364
16.9701 15.087 16.134 -1.33043 -0.827301 -0.598087
18.7179 17.2384 16.9155 0.016422 0.734053 1.44831
16.5158 17.7481 15.1307 -2.13853 0.834834 0.601219
18.7887 16.2333 14.2175 1.02521 -1.24157 -0.0370168
23.1929 15.214 17.7871 0.625743 2.35081 -2.78784
20.9908 15.7236 16.0023 -0.761029 -0.456047 -0.509187
22.7386 17.8751 16.7838 -1.45641 -1.3108 0.266489
27.2136 15.8506 17.6554 0.300258 -0.159409 0.946306
25.0115 16.3603 15.8706 1.12721 0.386631 -0.967181
27.2844 14.8455 14.9574 -0.114484 -1.35 1.44085
29.0322 16.9969 15.7389 -0.803319 -1.28109 -1.06913
29.4864 14.3358 16.7422 -0.214399 -0.404402 0.126944
31.2343 16.4873 17.5237 0.661899 -0.846647 1.06695
33.5071 14.9725 16.6105 -0.293223 -0.630629 -1.33592
31.3051 15.4821 14.8257 0.569574 0.225378 0.319103
33.0529 17.6336 15.6072 -2.49976 0.572143 0.840484
7.94941 20.1411 17.0888 -0.232924 -0.642312 0.4118
9.69727 22.2925 17.8703 -1.59009 0.0480736 -0.959049
10.2223 18.6263 16.1756 3.05415 -0.766257 0.424027
8.02019 19.1359 14.3908 0.462016 0.372419 -2.46534
9.76805 21.2874 15.1723 0.153659 0.127387 1.11052
11.9701 20.7777 16.9571 0.454477 0.875278 0.255222
14.243 19.2629 16.0439 -0.842057 -1.86188 0.269362
15.9908 21.4143 16.8254 0.348163 0.0428315 -0.0020121
12.0409 19.7726 14.2591 0.94621 0.185101 -2.01993
13.7888 21.924 15.0406 1.18635 0.466477 2.35407
16.4451 18.7532 17.8287 -0.322235 2.01737 0.199309
18.2637 19.8995 15.9122 0.165958 0.197989 0.734988
20.0116 22.051 16.6937 0.686133 -0.859867 -0.631854
20.4658 19.3899 17.697 0.0266262 -0.29093 2.10132
24.4865 20.0265 17.5653 0.0962479 -1.74835 -0.542415
20.5366 18.3848 14.999 -0.390829 -0.610262 1.8635
22.2844 20.5362 15.7805 -0.643652 -0.26245 0.673883
24.5573 19.0214 14.8673 0.704688 -0.166808 1.00901
26.7593 18.5117 16.6521 0.089971 1.72095 2.08857
28.5072 20.6632 17.4336 0.786928 -0.23094 0.390696
26.3051 21.1728 15.6488 0.111258 -0.959076 0.705323
28.578 19.658 14.7356 -2.28397 -2.06354 1.23427
32.9821 18.6387 18.3052 -1.53764 0.972707 1.47358
30.7801 19.1484 16.5204 1.73886 -0.950611 0.733061
32.5279 21.2998 17.3019 -2.82656 0.681925 -1.64184
30.3258 21.8095 15.5171 0.417359 0.0829588 0.0921151
32.5987 20.2947 14.6039 -0.589966 0.484842 1.67939
7.49519 22.8022 16.0855 0.488854 0.521086 -1.18022
9.24304 24.9536 16.867 2.73731 -0.900488 1.36228
11.5159 23.4388 15.9538 2.19937 1.19052 0.213573
11.0617 26.0999 14.9505 -1.18179 0.935596 1.66251
13.718 22.9291 17.7386 -0.433738 -2.49262 -2.45046
13.2638 25.5902 16.7353 -1.37145 1.7217 -0.149104
15.5366 24.0754 15.8221 -0.956033 0.421344 0.459823
17.7387 23.5658 17.6069 0.335579 -0.553086 -1.1741
17.2845 26.2269 16.6036 0.0797359 0.933969 -0.771151
17.8095 22.5606 14.9089 -1.25312 0.601218 -1.25105
19.5573 24.7121 15.6904 -0.931939 -1.43783 1.01322
21.7594 24.2024 17.4752 -0.963221 0.927095 1.73639
23.5073 26.3538 18.2567 -0.596628 0.555776 1.99112
24.0323 22.6876 16.562 -1.08511 0.715591 -0.909778
21.8302 23.1973 14.7772 1.46455 -0.646596 -0.940616
23.578 25.3487 15.5587 1.98042 -1.55659 -1.71871
25.7801 24.8391 17.3435 0.129662 -0.882377 -0.325204
28.053 23.3243 16.4303 -1.31967 -1.29433 -0.502571
25.8509 23.8339 14.6455 -0.405239 -0.195515 -1.85587
27.5988 25.9854 15.427 0.904845 0.758173 0.158633
30.2551 22.8146 18.2151 0.785057 -1.16771 0.381967
29.8008 25.4757 17.2118 -1.71026 -1.08413 0.720762
32.0737 23.9609 16.2986 -0.622468 -2.03745 -1.60151
29.8716 24.4706 14.5138 0.644688 -2.23444 1.45669
10.9909 27.105 17.6485 -1.31321 0.395092 -0.200942
15.0116 27.7417 17.5168 -1.82389 0.328357 0.44524
12.8095 28.2513 15.732 0.699299 1.03206 -0.00260633
14.5574 30.4028 16.5135 -1.64388 0.400131 0.496404
15.0824 26.7365 14.8188 0.620252 -0.0803617 0.895048
16.7595 29.8931 18.2983 0.117377 0.764969 -0.910797
19.0323 28.3783 17.3851 -1.78042 1.70655 0.45979
16.8302 28.888 15.6003 0.710735 -0.801359 -1.03108
19.1031 27.3732 14.6871 1.1816 -0.715373 -0.177038
20.7802 30.5297 18.1666 0.733264 -0.444336 -0.973887
21.3052 26.8635 16.4719 -0.692689 -0.0378689 0.313039
23.053 29.0149 17.2534 0.0941256 0.130995 0.683255
20.851 29.5246 15.4686 0.522934 -1.61736 0.513035
23.1238 28.0098 14.5554 0.202124 0.0953149 -1.13193
27.528 26.9905 18.125 0.721218 -0.54156 0.956754
25.3259 27.5002 16.3402 0.642832 -0.044709 1.77883
27.0738 29.6516 17.1217 -0.0655694 -0.371442 -0.683232
24.8717 30.1613 15.3369 -1.71058 0.244236 -1.5918
27.1445 28.6465 14.4237 -1.03642 -1.95811 -0.381314
31.5487 27.6271 17.9933 -0.30745 0.576302 0.316018
29.3466 28.1368 16.2085 -1.30961 2.56861 0.84791
31.6195 26.622 15.2953 0.453885 -0.0646771 0.267918
16.3052 32.5542 17.295 -0.628739 -1.19605 -0.912471
18.0531 34.7056 18.0765 0.492125 -0.472923 1.26339
18.5781 31.0394 16.3818 -1.20094 0.951415 1.81776
20.326 33.1908 17.1633 0.339938 -0.089653 1.19349
16.376 31.5491 14.597 -0.568855 0.885159 0.739509
18.1239 33.7005 15.3785 -0.722394 0.697371 0.558103
22.5988 31.6761 16.2501 -1.01576 -1.13264 -0.838527
20.3967 32.1857 14.4653 -0.899217 -0.36534 0.752433
24.8009 31.1664 18.0349 1.69751 1.6167 0.0392071
13.787 10.1333 20.9703 -2.60052 -0.516069 1.44818
16.0599 8.61849 20.0571 0.942829 0.230342 1.68452
18.3327 7.1037 19.1439 -0.0887624 -1.08279 0.458665
20.0806 9.25513 19.9254 -1.48475 0.87841 0.00187641
18.262 8.10882 21.8419 0.454062 1.65274 -0.437333
22.3535 7.74034 19.0122 0.400691 -1.09887 -2.59113
24.1013 9.89177 19.7937 1.2358 0.548488 -0.105262
20.5348 6.59403 20.9287 -0.0781547 1.04165 1.02519
22.2827 8.74547 21.7102 -1.09351 -2.09195 -0.255988
24.5555 7.23067 20.797 -1.7896 1.07511 1.0316
26.3742 8.37698 18.8805 0.122676 0.0766588 -0.75774
26.3034 9.38211 21.5785 0.118403 0.573721 0.254342
9.31208 12.1577 20.0987 -0.641657 -3.55518 -2.66326
11.5849 10.643 19.1855 0.36528 0.611444 -0.339131
11.5142 11.6481 21.8835 -0.130491 -0.781349 0.122374
13.3328 12.7944 19.967 -0.566591 0.586113 -0.173955
15.6057 11.2796 19.0538 0.494408 -0.245581 1.61115
15.5349 12.2847 21.7518 -1.03202 -0.302541 -0.104488
17.3535 13.431 19.8353 0.0878543 0.914142 -1.52265
19.6264 11.9162 18.9221 0.539321 -0.288448 0.807036
17.8077 10.7699 20.8386 -1.13594 -0.783343 0.687856
19.5556 12.9214 21.6201 0.841669 -0.190417 -1.14682
21.3742 14.0677 19.7036 2.49411 0.309918 -0.0265438
23.6471 12.5529 18.7904 1.97213 -1.4469 -1.42119
21.8285 11.4066 20.7069 -0.43201 -0.108099 0.676791
23.5763 13.558 21.4884 1.82711 1.15717 -1.08244
27.6678 13.1895 18.6587 0.332211 0.617216 0.975856
25.8492 12.0432 20.5752 -0.531578 2.677 0.446626
27.597 14.1946 21.3567 -0.219984 -1.2228 -0.451464
28.122 10.5284 19.662 -1.01097 -0.458727 -1.702
28.0512 11.5335 22.36 -0.270719 1.34157 -0.785536
31.6885 13.8262 18.527 0.0553393 -1.01529 1.59356
29.8699 12.6798 20.4435 -0.332211 -1.82502 -0.05977
8.85786 14.8188 19.0954 -0.995289 0.983687 -0.836252
10.6057 16.9703 19.8769 1.07542 -0.170611 0.892614
8.78708 15.824 21.7934 0.560645 -0.210832 1.72139
11.0599 14.3092 20.8802 -2.6712 -0.231908 -1.63717
12.8786 15.4555 18.9637 -0.420758 -1.22591 0.0611416
14.6264 17.6069 19.7452 -2.75982 -1.78713 -0.225438
12.8078 16.4606 21.6617 1.53631 -0.172801 -1.51053
15.0807 14.9458 20.7485 1.39519 0.0906819 -0.77584
16.8993 16.0921 18.832 2.4522 -1.0922 -0.449584
18.6471 18.2436 19.6135 0.340263 -1.86677 0.262042
16.8285 17.0973 21.53 -1.61814 1.40721 1.73454
19.1014 15.5825 20.6168 0.964354 -2.45125 -2.97362
20.92 16.7288 18.7003 0.989418 -1.46357 -1.64262
20.8492 17.7339 21.3983 -0.200758 0.111801 -1.89708
23.1221 16.2191 20.4851 2.25053 -2.32934 -1.35551
21.3034 15.0728 22.4016 -0.562941 0.397712 -0.489265
24.9407 17.3654 18.5686 0.263427 1.24595 0.600438
28.9614 18.0021 18.4369 1.01962 -0.101359 0.254124
25.3949 14.7043 19.5719 1.50818 -0.222389 -0.278415
27.1428 16.8557 20.3534 -0.330706 0.340651 -0.57483
25.3242 15.7094 22.2699 -0.670219 1.52199 0.820384
29.4157 15.341 19.4402 0.498235 -1.25664 -1.10772
31.1635 17.4924 20.2217 -1.04513 3.19234 -2.44854
33.4364 15.9776 19.3085 -1.14926 0.290712 1.44936
29.3449 16.3461 22.1382 -2.06527 -1.18359 -0.339695
31.6177 14.8313 21.225 1.97743 -0.305378 -1.50997
33.3656 16.9827 22.0065 0.549713 0.000903853 -0.321746
8.33286 18.4851 20.7901 -1.29788 1.19685 0.994953
10.0807 20.6365 21.5716 -0.0102242 0.600956 0.240483
7.87863 21.1462 19.7868 -0.320167 -1.07708 0.86142
10.1515 19.6314 18.8736 1.52031 0.960488 0.495236
12.3536 19.1217 20.6584 0.924536 -0.711313 1.18475
14.1014 21.2732 21.4399 -0.000917585 -0.469288 0.531874
11.8993 21.7828 19.6551 -0.935039 -0.478369 2.00008
14.1722 20.268 18.7419 1.37863 -1.22835 -2.09097
15.9201 22.4195 19.5234 -0.960811 0.0348078 1.36962
14.5557 18.612 22.4432 -1.1713 -0.671877 0.697874
16.3743 19.7584 20.5267 -2.15859 -0.357789 -0.289228
18.1221 21.9098 21.3082 -1.82725 0.41933 -0.203964
18.1929 20.9047 18.6102 -0.127945 -0.889152 0.21911
18.5764 19.2487 22.3115 -0.14335 -1.11454 0.657577
20.395 20.395 20.395 1.09823 1.60987 -1.78572
22.6679 18.8802 19.4818 -1.26616 -0.515626 -1.86936
24.4157 21.0316 20.2633 0.22954 0.814816 -1.0385
22.2136 21.5413 18.4785 0.846083 0.506772 0.938354
22.5971 19.8853 22.1798 -1.67563 -0.622416 1.13734
26.6886 19.5168 19.3501 -0.949974 0.00290858 1.03706
28.4364 21.6683 20.1316 1.77697 -0.436421 -0.335104
26.2343 22.178 18.3468 -0.484492 0.539769 0.959933
24.8699 18.3705 21.2666 -1.2335 0.249971 1.23672
26.6178 20.522 22.0481 1.06441 0.799368 -1.46814
28.8907 19.0072 21.1349 0.935853 -0.235162 -0.0448364
30.7093 20.1535 19.2184 0.284329 1.28522 0.745519
32.4571 22.3049 19.9999 1.2607 0.607545 1.25817
30.6385 21.1586 21.9164 1.3018 -0.541136 -0.563777
32.9114 19.6438 21.0032 -0.161885 0.282752 -2.11186
7.35363 24.8124 21.4815 -0.366007 -0.0358753 0.879469
9.62649 23.2976 20.5683 -1.19401 -0.261991 2.14052
11.3743 25.449 21.3498 -0.226278 1.40597 1.08737
7.42441 23.8073 18.7835 0.09139 0.146902 -1.5463
9.17227 25.9587 19.565 -1.05739 0.317419 -0.543191
11.4451 24.4439 18.6518 1.19042 2.37948 -0.617333
11.8286 22.7879 22.3531 -1.39731 -0.323843 0.534864
15.8493 23.4246 22.2214 2.08668 -0.28131 0.547187
13.6472 23.9343 20.4366 -0.691534 0.0184548 0.482129
15.3951 26.0857 21.2181 -0.955967 0.204695 0.495879
15.4658 25.0806 18.5201 -0.527881 -0.849465 -0.487578
19.87 24.0612 22.0897 -1.7245 -1.12278 1.19935
17.6679 24.5709 20.3049 -0.24967 -1.14845 0.833316
19.9408 23.0561 19.3917 -1.01536 -0.828673 1.47386
19.4866 25.7172 18.3884 1.83734 1.07538 1.6499
22.1429 22.5464 21.1765 -0.479669 0.345678 2.08171
23.8907 24.6979 21.958 -0.298077 -0.768523 -0.24875
21.6886 25.2075 20.1732 -0.758512 -0.581269 0.269205
23.9615 23.6927 19.26 -1.15112 -0.084748 0.618982
26.1636 23.1831 21.0448 -1.19334 0.593462 0.539477
27.9114 25.3345 21.8263 -1.19308 -0.516907 -1.22091
25.7093 25.8442 20.0415 -2.10025 1.45837 -0.240493
27.9822 24.3294 19.1283 -0.753851 0.448856 0.0584228
30.1843 23.8197 20.9131 0.228882 -1.24156 0.744829
31.9321 25.9712 21.6946 0.0477089 -0.0999852 -0.386961
29.7301 26.4808 19.9098 1.31147 2.02951 -0.467798
32.0029 24.966 18.9966 0.724587 2.12036 -0.563373
9.10149 26.9638 22.263 -1.1531 -0.421679 -1.45975
10.9201 28.1102 20.3465 0.529219 -1.10597 1.08839
13.1222 27.6005 22.1313 0.65493 -0.469218 1.7285
12.668 30.2616 21.128 1.25985 -1.03545 -0.78144
13.193 26.5954 19.4333 -1.45038 -0.0971624 -3.19112
14.9408 28.7468 20.2148 1.30517 0.0606476 1.76671
12.7388 29.2565 18.43 -2.66414 -0.58385 0.366094
17.1429 28.2371 21.9996 -0.838423 -2.08971 -0.324518
19.4158 26.7223 21.0864 -0.336096 -0.322927 0.239051
17.2137 27.232 19.3016 -0.403206 -2.56706 1.22004
18.9615 29.3834 20.0831 -0.176082 -0.50246 1.14107
21.1636 28.8738 21.8679 1.05945 0.437498 0.853679
23.4365 27.359 20.9547 -1.00947 -0.290773 0.817633
21.2344 27.8686 19.1699 1.4581 -0.521585 -2.06106
22.9823 30.0201 19.9514 0.119957 0.393706 -0.75016
25.1843 29.5104 21.7362 -0.33518 -1.47715 0.305334
27.4572 27.9956 20.823 0.828261 -0.0954578 0.159326
25.2551 28.5053 19.0382 -0.202521 -1.26072 -2.12359
29.2051 30.147 21.6045 -0.0578947 -1.17284 -0.792459
31.4779 28.6323 20.6913 -0.0639486 -1.59164 -0.323385
29.2758 29.1419 18.9065 -2.38867 1.34615 0.527049
14.4158 32.413 21.9095 -0.452907 1.69466 -0.13654
14.4866 31.4079 19.2115 0.0536562 2.71228 -0.399696
16.6887 30.8982 20.9963 0.178765 0.535341 -0.995347
18.4365 33.0497 21.7778 -0.436912 -2.27581 -0.941664
16.2345 33.5593 19.993 0.0516692 0.905069 0.651555
18.5073 32.0445 19.0798 0.967576 1.59855 0.279068
20.2552 34.196 19.8613 1.28782 -0.150522 -0.314387
20.7094 31.5349 20.8646 -0.0798917 -0.866324 1.38984
22.4573 33.6863 21.6461 0.469065 0.288537 -0.855628
24.7301 32.1715 20.7329 1.38611 0.146541 -1.27918
22.528 32.6812 18.9481 4.42179 -0.969408 0.407491
27.003 30.6567 19.8197 -0.718217 2.27344 -0.593323
15.9891 9.62362 22.7551 -0.924777 0.310774 -0.26601
18.1912 9.11395 24.5399 -0.543179 -1.38431 1.959
20.3933 8.60428 26.3247 -0.166961 0.493147 0.296247
20.464 7.59916 23.6267 -1.06954 1.89004 -0.28623
22.2119 9.75059 24.4082 0.596464 3.02619 -0.288635
22.7369 6.08436 22.7135 -0.247635 1.08259 0.691032
24.4848 8.2358 23.495 -0.18394 0.327684 -0.816038
22.6661 7.08949 25.4115 1.32265 0.0829565 0.574046
24.414 9.24092 26.193 1.0194 -0.354124 -0.129622
9.24131 13.1629 22.7967 0.16378 0.0217312 0.475856
9.17053 14.168 25.4947 0.526209 0.64075 -0.0589304
11.4434 12.6532 24.5815 -0.204085 -0.114033 3.23741
13.262 13.7995 22.665 2.34722 -1.5467 -0.316046
13.7162 11.1384 23.6683 0.731305 0.722198 1.81945
15.4641 13.2898 24.4498 -0.730898 1.10766 -1.98996
13.6455 12.1435 26.3663 0.296187 -1.95764 -1.96216
15.9183 10.6287 25.4531 -0.760729 1.0972 0.17308
17.737 11.7751 23.5366 2.28176 -1.24865 1.13782
19.4848 13.9265 24.3181 -1.93172 0.7089 0.265863
20.0098 10.2603 22.6234 1.65746 -1.60009 -0.909284
17.6662 12.7802 26.2346 -0.293594 -2.23479 0.204246
19.939 11.2654 25.3214 -0.766685 1.64073 1.22446
21.7577 12.4117 23.4049 -0.8856 -0.545602 -0.651849
24.0305 10.8969 22.4917 -0.373022 0.392507 1.55425
21.6869 13.4168 26.1029 -0.64777 -0.115744 -0.133354
23.9598 11.902 25.1897 1.28504 0.411021 -0.0387382
25.7784 13.0483 23.2732 -1.05279 0.0722583 -1.87362
25.7076 14.0535 25.9712 -0.885358 -0.512169 -1.48063
26.2326 10.3872 24.2765 0.390668 -1.29395 0.0997633
27.9805 12.5387 25.058 0.698561 1.43014 -1.33211
29.7991 13.685 23.1415 0.438934 0.362924 -0.695405
10.5349 17.9754 22.5749 0.0187996 1.20476 2.16743
8.7163 16.8291 24.4914 0.867746 0.725458 1.4648
10.9892 15.3143 23.5782 -1.80696 -0.698006 0.666447
10.9184 16.3194 26.2762 -0.592571 -1.13227 -1.31248
12.737 17.4657 24.3597 -1.89321 1.06582 0.6229
15.0099 15.9509 23.4465 -0.920792 0.46492 0.401009
13.1912 14.8046 25.363 0.186489 1.23083 -1.05704
14.9391 16.9561 26.1445 -0.90277 0.10759 -1.08633
16.7577 18.1024 24.228 -1.14347 -0.238989 -0.0481027
17.2827 14.4362 22.5333 0.50701 1.21645 -0.178604
19.0306 16.5876 23.3148 0.793601 -0.232485 -0.867656
17.212 15.4413 25.2313 1.99768 -0.893389 0.251665
18.9598 17.5927 26.0128 1.72991 0.724749 0.560678
23.0513 17.2242 23.1831 0.167452 0.444805 -0.414992
21.2327 16.0779 25.0996 -0.409279 -0.05475 -0.417547
22.9805 18.2294 25.8811 -1.08156 -0.900306 -0.819434
23.5055 14.5631 24.1864 -0.628385 -0.675053 -0.776375
27.072 17.8609 23.0514 -0.752362 -0.764977 0.583077
25.2534 16.7146 24.9679 -0.0758069 0.113609 -0.758304
27.5262 15.1998 24.0547 0.469414 -1.93374 -0.608722
29.2741 17.3512 24.8362 0.709078 -0.260283 -1.06611
31.547 15.8364 23.923 -2.26952 2.16877 0.609183
33.2948 17.9878 24.7045 -0.0283428 -1.91454 0.176199
29.7283 14.6901 25.8395 0.849248 0.790207 -1.82494
7.80786 22.1513 22.4848 -0.162698 1.64995 -1.49058
8.26208 19.4902 23.4881 0.000135117 -1.06632 0.805057
10.0099 21.6416 24.2696 2.56132 -1.59478 -1.80364
8.1913 20.4953 26.1861 -0.434647 -2.01712 -2.28817
10.4642 18.9805 25.2729 2.24245 -0.205563 0.0322433
12.2828 20.1268 23.3564 -0.99253 1.90004 0.562576
14.0307 22.2783 24.1379 1.2637 -0.111623 -0.378806
12.212 21.132 26.0544 -0.910959 0.834722 -1.09321
14.4849 19.6172 25.1412 1.75785 -0.764852 -1.28756
16.3035 20.7635 23.2247 -0.37897 0.640219 0.789307
20.3242 21.4001 23.093 -3.21762 -1.20811 0.233882
16.2327 21.7686 25.9227 -0.623919 1.23926 1.90988
18.5056 20.2538 25.0095 -0.645828 2.38089 -0.982604
20.2534 22.4052 25.791 1.12871 1.32124 1.52913
24.3449 22.0368 22.9613 -0.712273 1.28936 1.57634
20.7784 18.739 24.0963 0.218051 2.5699 -1.39669
22.5263 20.8905 24.8778 -0.128987 -1.78504 -0.806375
24.7992 19.3757 23.9646 0.802599 -0.610884 -0.62832
26.547 21.5271 24.7461 -2.01499 0.194199 -0.466646
28.8199 20.0123 23.8329 -1.89653 -1.53557 -1.21015
27.0012 18.866 25.7494 -2.47921 1.89078 -1.17451
28.7491 21.0174 26.5309 -0.0901069 -0.645347 -1.42901
30.5677 22.1637 24.6144 -0.490645 -1.41849 -0.631798
31.0927 18.4975 22.9197 -2.70726 0.191947 -0.27745
32.8406 20.6489 23.7012 -0.964607 1.91271 -1.236
31.022 19.5026 25.6177 0.453329 -0.720052 -0.414676
32.7698 21.6541 26.3992 -0.328963 0.63524 -1.23029
7.28285 25.8175 24.1795 1.09791 0.481532 0.993616
9.55571 24.3027 23.2663 -1.66067 1.36216 0.439841
11.3036 26.4542 24.0478 0.456611 0.537508 -1.03751
7.73708 23.1564 25.1828 0.242582 1.65513 -0.143834
9.48493 25.3079 25.9643 -1.32889 0.967475 0.799827
13.5764 24.9394 23.1346 0.832385 -0.190755 -0.111181
11.7578 23.7931 25.0511 0.769252 -0.0355752 0.100597
13.5056 25.9445 25.8326 -0.887449 0.0217525 -0.0438787
15.7785 24.4297 24.9194 -0.38642 0.398331 1.04301
17.5971 25.576 23.0029 0.885081 0.546615 -0.919154
18.0514 22.9149 24.0062 0.808575 1.24727 -0.903838
19.7992 25.0664 24.7877 1.5535 0.589871 -0.381646
21.6179 26.2127 22.8712 1.14371 -0.346746 0.314897
22.0721 23.5516 23.8745 -0.848719 -0.778351 0.25651
23.8199 25.703 24.656 0.937504 -2.8638 0.534365
22.0013 24.5567 26.5725 1.16554 1.30321 0.440136
24.2742 23.0419 25.6593 -0.966885 1.45786 0.915724
26.0928 24.1882 23.7428 -0.450817 -0.343594 0.453377
27.8406 26.3396 24.5243 -0.202513 0.968501 -0.794599
28.3657 22.6734 22.8296 -0.570595 -2.96113 -0.414698
26.022 25.1933 26.4408 -1.08318 -0.590167 0.116618
28.2949 23.6785 25.5276 -0.627577 -0.667177 0.40224
30.1135 24.8248 23.6111 0.255125 1.51713 0.450503
32.3864 23.31 22.6979 -1.77487 0.743804 -0.160184
30.0427 25.83 26.3091 -0.645525 -0.329165 1.49995
32.3156 24.3152 25.3959 -0.00166476 -0.696342 -0.0281956
9.03071 27.969 24.961 0.905991 0.2514 -0.0569601
10.7786 30.1204 25.7424 1.83465 -0.687743 -0.360831
10.8493 29.1153 23.0445 0.669572 -0.62669 2.30494
13.0514 28.6056 24.8293 1.06693 1.09167 0.326984
15.3243 27.0908 23.9161 0.768905 0.0512841 0.573798
14.8701 29.7519 22.9128 0.898327 0.144193 0.9165
17.0721 29.2422 24.6976 0.0854099 -0.122908 1.13291
19.345 27.7275 23.7844 -0.784649 2.15052 -2.41841
18.8908 30.3886 22.7811 0.997343 1.02966 -0.183228
17.5264 26.5811 25.7009 -2.40293 -2.90504 0.256561
19.2742 28.7326 26.4823 0.547413 -0.770761 0.0670049
21.0929 29.8789 24.5659 -0.624116 0.0852045 -0.228828
23.3657 28.3641 23.6527 -1.19274 0.433334 0.468738
21.5471 27.2178 25.5692 0.715347 -1.08151 1.2606
23.2949 29.3692 26.3506 -1.07723 0.789445 -0.0654477
25.1136 30.5155 24.4342 -0.180025 0.313392 1.57923
25.6386 26.8493 22.7395 -0.0169221 0.952934 -0.883231
27.3864 29.0007 23.521 -0.736686 0.0197227 -1.84629
25.5678 27.8544 25.4375 -0.799328 0.433039 1.9301
27.3156 30.0059 26.2189 0.823727 0.0938462 0.352472
29.6593 27.4859 22.6078 0.570613 0.266622 1.74602
31.4071 29.6374 23.3893 0.441916 0.673221 1.49857
29.5885 28.4911 25.3058 -0.290642 0.189676 1.91713
31.8614 26.9763 24.3926 1.8525 1.94785 -0.758986
14.7993 30.757 25.6107 1.41288 0.573049 0.454779
12.5972 31.2667 23.826 0.0552684 -0.362458 -0.54158
18.82 31.3937 25.479 0.411331 0.090425 -0.415438
16.6179 31.9034 23.6943 3.51601 -0.641005 0.360192
22.8407 32.0303 25.3473 0.991226 0.617867 1.0615
20.6386 32.54 23.5626 0.0466707 -0.70654 1.30573
22.9115 31.0252 22.6494 -0.115089 2.34323 0.135433
24.6593 33.1766 23.4308 -1.08414 -1.15875 0.980893
26.8614 32.667 25.2156 1.10389 -0.437402 -1.19937
29.1343 31.1522 24.3025 1.54389 0.170483 -0.946384
26.9322 31.6618 22.5177 -0.0646268 -1.5891 -0.328408
18.1204 10.1191 27.2379 -1.76778 0.675263 0.692295
20.3225 9.6094 29.0227 1.48762 -1.53274 0.460052
22.5953 8.09461 28.1095 -0.218189 -0.534503 1.47541
11.3726 13.6583 27.2795 -0.267835 -0.95431 0.648967
13.5747 13.1487 29.0643 0.29295 0.658903 -0.786876
15.8475 11.6339 28.1511 0.524605 1.12704 1.2004
17.5954 13.7853 28.9326 -0.636471 1.48027 -0.0727368
19.8683 12.2705 28.0194 0.743707 1.6873 -1.6613
18.0496 11.1242 29.9359 0.764989 -0.261921 0.11276
19.7975 13.2756 30.7174 0.0587794 -1.26951 0.397845
22.1411 10.7557 27.1062 -0.267434 0.983394 -0.260572