ITEM: TIMESTEP
0
ITEM: NUMBER OF ATOMS
75
ITEM: BOX BOUNDS ss ss ss
1.4453177870709407e+01 2.6605536809239936e+01
1.4132439128071283e+01 2.6670506702219733e+01
1.5156514136067265e+01 2.5633486155794714e+01
ITEM: ATOMS x y z vx vy vz
18.4593 17.2063 15.9997 -1.29105 -0.783555 -1.97377
17.0778 18.1813 19.7482 -1.29382 0.45868 0.603031
16.3811 15.4159 20.1678 0.270226 1.21232 0.839929
16.1099 16.5869 17.5506 1.39226 0.414937 1.38215
21.5333 16.9018 18.7142 -2.12063 -0.467419 -1.92661
21.2622 18.0728 16.097 -0.48339 0.268562 -1.9328
18.7304 16.0353 18.6169 1.05469 -1.73041 -1.72264
20.8366 14.1365 19.1338 0.298869 -0.33385 1.148
20.5654 15.3075 16.5166 1.14514 -0.341823 0.397482
24.3361 17.7684 18.8115 -0.761801 -0.211517 -1.70201
23.6394 15.003 19.2311 0.287742 -0.762482 0.0885086
23.3683 16.174 16.6139 0.337561 0.749386 1.62855
17.7745 20.9466 19.3287 1.53746 0.422407 0.53472
17.5033 22.1175 16.7115 -1.34306 1.10908 0.948918
15.154 21.4982 18.2623 -2.95357 -2.0704 -0.408592
16.8066 19.3522 17.131 -1.21912 -0.802967 -1.29363
14.4573 18.7328 18.6819 0.928024 1.43621 -0.103666
20.395 20.395 20.395 1.95997 -0.895811 -0.273165
20.1239 21.566 17.7778 -0.141107 1.60093 -1.60248
22.3096 22.3486 19.4861 -1.1004 0.952045 -0.935317
22.23 19.6672 18.2947 2.263 -0.488442 0.700916
21.9589 20.8381 15.6775 1.04815 0.329635 -0.880253
19.4271 18.8006 18.1973 1.11747 0.418326 1.29639
19.156 19.9716 15.5801 -1.44434 -0.895513 -2.24712
24.4157 20.4498 20.003 -0.535603 0.206973 2.38488
24.1446 21.6208 17.3858 -0.26634 -1.05878 -0.123456
24.065 18.9393 16.1943 1.7596 -0.120014 -0.74427
26.3303 22.4035 19.0941 0.254068 -1.54366 0.980095
26.2507 19.722 17.9027 -0.867078 -0.338702 2.12642
16.9354 23.691 19.0589 -1.84064 -1.38499 1.19101
19.8527 22.7369 15.1606 -1.67396 1.22188 0.460958
19.5559 23.1394 20.1252 0.877277 -0.351375 -0.135113
19.2848 24.3103 17.508 0.883586 -0.161934 0.592011
22.0384 23.5196 16.8689 1.19582 -0.356737 0.911864
18.7169 25.8837 19.8554 -0.18139 0.128557 1.66946
21.4705 25.093 19.2163 0.814355 -1.12145 1.85667
24.2242 24.3023 18.5773 0.369006 -2.16841 0.296882
17.3489 17.0103 22.3654 0.15846 0.766443 -1.08225
14.7284 17.5619 21.2991 -0.393448 -0.648229 -1.61251
20.9373 18.0531 25.6294 1.02064 0.499298 1.19578
19.9694 16.4587 23.4318 -0.936824 2.20333 -2.42177
19.6983 17.6297 20.8145 -0.690158 -0.0829449 -0.0802518
21.8044 15.7309 21.3314 0.044035 -0.355886 -0.182914
19.0016 14.8644 21.2341 -1.56186 -0.632527 -0.531053
22.7723 17.3253 23.5291 0.867222 -0.809305 1.40067
24.6073 16.5974 21.4287 -0.063939 0.860045 -0.660841
18.3168 18.6047 24.5631 0.362568 0.524789 -1.05079
18.0456 19.7756 21.9459 1.09184 1.04913 0.405435
15.6962 19.1563 23.4968 -0.0386374 0.298624 1.29232
15.4251 20.3272 20.8795 -0.518254 -1.39797 -0.0932669
17.4777 21.3491 24.2933 -2.45524 -0.423662 -0.390515
14.8572 21.9006 23.2269 0.52658 0.154982 1.80971
20.6661 19.224 23.0122 0.889133 0.182116 0.060713
20.0982 20.7975 25.3596 -0.175655 0.63862 0.25788
19.8271 21.9684 22.7424 -1.58953 -0.423916 0.565906
22.5011 18.4962 20.9119 -0.051338 -0.619879 0.692321
22.8519 20.0067 24.7205 -0.0293406 -0.211262 1.39901
22.5807 21.1777 22.1033 0.394782 -0.0526208 -0.270155
24.7665 21.9604 23.8117 1.7078 -0.740901 0.174338
24.6869 19.2789 22.6202 1.08301 1.63367 -1.7569
26.6015 21.2325 21.7113 1.84069 -0.609514 -0.170802
26.5219 18.551 20.5199 0.0278445 -0.302844 -0.122846
17.2065 22.52 21.6761 -2.0253 0.339903 -0.306865
14.586 23.0716 20.6097 0.462913 0.520991 1.53637
16.6386 24.0934 24.0234 -0.279094 -0.643441 -0.788638
16.3675 25.2644 21.4062 -1.79876 0.00696901 -1.22347
19.2591 23.5418 25.0898 1.0901 -0.439234 0.328541
18.988 24.7128 22.4726 -1.34242 0.327509 0.485773
22.0128 22.7511 24.4507 1.08409 -0.595267 -1.13677
21.7417 23.9221 21.8335 0.827275 2.06764 -0.285992
21.1737 25.4955 24.1809 -2.04776 2.09104 0.379752
20.9026 26.6664 21.5637 0.591791 2.42492 -3.13634
24.4953 23.1313 21.1945 2.56063 -1.26707 -0.458834
23.9274 24.7047 23.5419 0.158354 1.26538 0.642331
23.6562 25.8757 20.9246 -1.06916 -0.13862 1.10298
ITEM: TIMESTEP
1000
ITEM: NUMBER OF ATOMS
75
ITEM: BOX BOUNDS ss ss ss
1.5136302411628906e+01 2.5778158882064009e+01
1.4778133137462243e+01 2.6086813553284426e+01
1.5229506748319123e+01 2.5674208757285609e+01
ITEM: ATOMS x y z vx vy vz
18.2949 17.2638 16.2493 1.02163 -1.48162 1.05129
17.4967 18.3348 20.076 2.3852 2.24423 0.163307
16.7067 15.6367 20.3315 0.994089 -1.18318 -1.27966
16.4179 16.9222 17.9217 0.373944 -0.426063 1.20824
21.4257 17.0594 18.9264 0.504952 1.80047 2.57738
21.2859 18.0945 16.1062 -2.01345 -0.889663 0.244774
18.682 15.9353 18.6066 0.903804 1.32649 -0.390457
20.8596 14.3989 18.9292 -1.78257 0.828128 -0.785272
20.3274 15.6394 16.5702 -0.0952519 0.0671681 0.683808
24.5446 17.7574 18.9747 -1.11099 0.310403 2.3396
23.6219 15.2254 19.4221 0.581065 -0.0115618 -0.509586
23.0688 16.3241 17.0204 3.02019 0.958893 1.09425
17.8913 21.1248 19.1044 -0.0122384 0.723085 1.3271
17.5481 22.159 16.4914 0.528568 -1.63722 1.25849
15.2408 21.367 18.1211 0.218614 0.690854 1.37092
16.978 19.5694 17.122 2.48307 -0.17185 2.16089
15.1322 18.9072 18.8756 -0.809791 0.381807 2.28373
20.3519 20.3705 20.3351 -0.0503037 0.510158 0.390646
19.9633 21.6766 17.4687 -0.596803 -0.691203 -0.578295
22.087 22.6486 19.0244 -0.520987 -1.19609 2.23156
22.0553 19.8423 17.9736 -1.27804 0.404482 1.88173
21.7491 21.1097 15.4894 -1.51256 -0.78922 0.0595777
19.3112 18.9005 18.1079 -1.53866 -0.309713 -0.224758
19.2171 20.0509 15.5226 -0.873864 -0.921347 4.50725
24.0754 20.8315 19.7843 -5.11596 1.4748 1.21283
23.9604 21.6234 17.0732 0.345222 -1.81278 -0.541155
23.936 18.8164 16.6123 -0.713843 0.47064 2.16754
25.7241 22.5746 18.5844 0.27657 1.14197 -0.282083
25.873 19.7582 17.9035 -1.17605 -0.0641201 -0.776685
17.0338 23.699 18.7758 0.128196 -0.497516 2.61511
19.6825 23.0752 14.8964 0.479397 -1.93752 -0.344965
19.5396 23.2457 19.7014 -0.245967 -1.65663 2.71566
19.2721 24.377 17.3596 -1.11754 0.046606 2.06273
21.7941 23.5164 16.6654 2.45373 1.7787 1.18321
18.9772 25.9105 19.8744 -0.121535 -0.518515 1.12931
21.5707 25.244 18.9307 0.288914 -1.33757 2.07238
24.0458 24.4814 18.1402 0.526287 -0.238794 0.399909
17.4944 17.1935 22.5037 1.20611 2.16137 -1.61065
15.0199 17.6206 21.2723 -0.946747 1.38972 -0.847529
20.7645 17.4587 25.7399 1.19924 -0.981068 0.754493
19.9593 16.3674 23.5778 -1.44424 1.19528 0.150511
20.0412 17.5736 21.2387 -0.393462 1.05037 -2.9635
21.8994 15.7628 21.303 1.88266 2.61044 -0.401824
19.1499 15.0313 21.2096 -0.144026 -0.138575 -0.589007
22.5649 17.114 23.8091 -2.34863 1.25015 -3.92067
24.7426 16.8365 21.4051 1.83259 0.300113 0.522798
18.2757 18.7032 24.7607 0.407516 -0.441736 -2.02813
18.1768 19.7249 22.4241 0.260447 0.94617 -2.97281
15.6924 19.2342 23.2772 -1.32443 0.587257 -1.41913
15.4257 20.3683 20.9539 1.15677 0.81478 -1.1397
17.594 21.3077 24.5052 2.66438 0.933961 -1.89688
15.242 21.8295 23.1885 0.216142 -0.835815 -1.48256
20.8437 19.1915 23.3476 1.85671 1.69746 0.0652836
20.0842 20.4216 25.4363 -2.02816 1.00223 -3.26374
19.8303 21.8226 22.8545 1.9892 1.49714 -0.518062
22.709 18.4801 21.2498 -0.861511 1.02311 -0.0492271
22.6931 19.6201 25.0636 0.622049 -0.899694 -0.776545
22.8774 21.0556 22.57 -1.64971 -0.694222 -0.0280042
24.5167 21.4294 24.6383 0.130125 1.13153 0.639564
24.5374 19.0475 23.2719 -2.56634 -0.428314 -0.732081
25.5912 21.4925 21.9748 -1.49269 2.12868 -0.796791
25.8513 19.1613 20.8137 -1.69554 0.629573 -1.2375
17.3536 22.3028 21.5561 3.09017 -1.88949 -0.991766
14.751 22.8753 20.2187 -0.929854 -1.28451 -0.719138
16.8823 23.8776 23.7894 0.402493 0.160561 -0.172569
16.7615 24.8991 21.1036 3.58315 -1.25976 0.66322
19.3297 23.456 24.7911 1.03067 0.494856 -1.09721
19.1359 24.5632 22.4137 1.85875 -1.16207 -3.36582
21.8905 22.3035 24.8308 -1.1893 -1.80943 -1.00937
21.6969 23.7394 21.5013 0.0272812 -3.65015 -1.52551
21.5287 24.9405 23.785 -3.06521 -1.36544 -1.82231
20.8924 26.4627 21.4953 -0.481015 0.852517 1.57274
24.7389 23.6137 20.6634 -1.58024 -1.20276 0.507121
23.9492 23.4481 23.1558 1.61639 -2.82247 -1.70351
23.3953 25.823 20.8598 0.281181 -0.37849 -0.474498
ITEM: TIMESTEP
2000
ITEM: NUMBER OF ATOMS
75
ITEM: BOX BOUNDS ss ss ss
1.5136302411628906e+01 2.5778158882064009e+01
1.4778133137462243e+01 2.6086813553284426e+01
1.5229506748319123e+01 2.5674208757285609e+01
ITEM: ATOMS x y z vx vy vz
18.675 17.4795 16.0616 -0.577603 0.888922 1.00012
17.3825 18.3369 19.9992 4.4547 2.80158 -0.118471
16.3022 15.8384 20.3773 -0.906475 0.906826 0.785941
16.5176 17.0011 17.7021 1.37067 -0.735673 0.822404
21.5204 17.2329 18.8187 -1.401 0.679914 1.39638
21.1235 18.1811 15.9384 -1.36363 1.04328 3.33085
18.8341 16.3585 18.6546 2.17287 -1.87494 -1.35672
20.8409 14.5441 19.2301 -1.08403 2.56885 -0.448732
20.7053 15.7649 16.8187 -1.26424 0.438746 -0.59337
24.3965 17.6906 18.808 3.46688 1.73023 1.04856
23.202 15.235 19.4875 -0.519312 -1.53963 -1.2585
23.0312 16.4157 16.901 -1.87966 0.54332 -0.192128
17.9597 20.8281 19.2938 -1.22932 -0.983193 2.28377
17.7019 22.2152 16.7693 -1.16625 -1.83713 1.52751
15.2773 21.3192 18.2932 0.125855 -0.628008 -0.907669
17.0639 19.5402 17.1743 -1.79436 0.0688673 -1.97579
15.0042 18.9292 18.731 0.478906 -0.671506 3.5168
20.6439 20.4767 20.3792 -1.43277 -0.646656 0.434431
20.2631 21.8403 17.6255 1.21997 1.55296 2.46252
22.3699 22.5373 19.3013 -0.660973 0.836735 -0.451773
22.3187 19.6549 18.1783 2.39116 -1.65295 0.855874
21.9499 20.8284 15.9583 3.00804 -0.358276 0.0385687
19.7183 19.1615 18.0888 -1.28665 -0.937791 -0.0408924
19.3263 20.2931 15.6193 -0.505836 -1.64835 -2.30302
24.3391 20.3876 19.8999 0.266046 -0.351622 -0.814455
23.9106 21.6742 17.1308 3.09777 -1.22824 3.32955
23.8987 18.6801 16.1597 1.28287 -0.520092 -0.920412
25.8597 22.322 18.7345 -0.0120146 -1.02665 2.24618
25.7019 19.6315 17.9107 0.525993 2.63775 0.686009
16.8329 23.5307 19.0116 3.24109 -0.630156 -1.20804
20.065 22.953 15.0829 1.26372 2.60143 -1.84661
19.4239 23.1763 20.0086 0.207127 -0.623562 -0.184579
19.3987 24.144 17.7142 1.43795 2.71879 1.35393
22.1212 23.6218 16.7396 -1.95793 1.37643 2.07786
18.4029 25.5194 20.0012 -0.785081 1.93441 -0.838291
21.4661 25.0019 19.0819 2.22766 0.675716 -2.19275
23.9422 24.4616 18.3336 -2.86839 -1.96477 0.32385
17.2551 17.078 22.7791 1.58943 1.07319 -0.992283
15.0608 17.7998 21.2968 0.322245 0.919937 0.559914
21.1157 17.9478 25.6531 1.3724 1.82853 -1.03261
20.0532 16.6132 23.6529 -1.94753 0.758983 -0.618942
20.0993 17.5356 21.1728 -2.50166 -0.0531012 -1.41812
21.4539 15.4568 21.5231 0.250207 -1.30207 0.198478
18.6386 15.3498 21.2738 -0.125986 0.856521 0.24147
22.501 17.1602 23.2993 0.321784 -2.10344 2.37682
24.3881 16.5073 21.4289 -1.32116 -1.18105 1.47073
18.6343 18.5821 24.7951 1.0319 0.339353 -0.417492
18.3804 19.5348 22.1513 -1.55061 0.486974 0.262017
15.7917 19.1718 23.417 0.709642 0.879168 -0.0316931
15.8246 20.3793 20.9571 -2.13309 -1.62907 0.549542
17.3927 21.076 24.2319 -0.304191 0.742952 -2.75418
15.1087 21.8143 23.152 1.66158 -0.373985 1.0331
20.8627 19.3239 23.1166 -3.29257 -1.58347 -2.22614
20.1869 20.6354 25.3409 1.01536 -2.25985 0.493337
19.7056 21.9008 22.6647 0.981886 -0.323724 -0.531664
22.6414 18.5424 20.9048 -0.480922 -1.29512 -0.335302
22.8619 19.8944 24.7073 2.19365 1.51974 1.35544
22.8478 21.2342 22.0817 0.224237 1.23468 1.32781
24.5174 22.0476 23.8455 -0.306448 2.39995 -2.95512
24.4611 19.0808 22.8618 1.76142 3.57538 -1.16646
25.9611 20.9739 21.9373 -2.05975 -0.395074 -2.69508
25.9681 18.6857 20.7294 -1.71347 0.544524 -1.46116
17.4 22.3116 21.5332 1.23297 -1.38623 -1.61872
14.7943 22.6161 20.4784 -2.13233 0.241591 0.730215
16.7586 23.7521 23.7153 -1.28034 -1.02579 0.975533
16.2904 24.7633 21.2928 0.666651 -1.1345 -2.07468
19.2797 23.5414 24.741 0.750196 -1.01067 0.333717
18.9399 24.7961 22.4308 1.08344 0.938026 0.568448
21.8286 22.5516 24.3322 -0.175645 -1.1445 -2.45703
21.6548 23.5957 21.7732 -3.74367 -1.62762 2.03644
21.1558 25.0959 23.8358 -3.0328 -1.27724 0.687597
20.8299 26.2623 21.3524 2.15443 -0.216537 -1.01177
24.5142 23.2806 20.9713 -0.0966999 -1.90917 -1.44864
23.6359 24.3199 23.2807 0.139639 -0.288048 -1.91872
23.3396 25.6055 20.8951 -0.807976 -0.964805 2.09628
ITEM: TIMESTEP
3000
ITEM: NUMBER OF ATOMS
75
ITEM: BOX BOUNDS ss ss ss
1.4710908849887888e+01 2.6565765236104095e+01
1.4594750188512361e+01 2.6446953954705215e+01
1.5266349489126425e+01 2.5300780175527731e+01
ITEM: ATOMS x y z vx vy vz
18.2881 17.084 16.2942 1.76085 -1.42939 -1.33774
16.6674 15.484 20.2043 0.755757 0.122956 -0.0980425
16.1735 16.5472 17.9274 -0.641913 -0.0702058 -0.355771
18.8401 15.9509 18.7029 -1.22446 -2.9293 1.01295
21.5966 17.1131 18.9506 0.3593 -3.54784 2.6628
21.2775 18.1606 16.0644 2.18254 -0.327179 -0.69948
21.218 14.5542 19.0441 -0.464831 -1.52072 1.48248
20.6083 15.7635 16.4477 -0.338069 -0.559547 -0.896078
24.5226 17.8869 18.7978 1.0388 2.05484 0.426017
23.5554 15.5985 19.3365 -0.255324 -0.525938 -0.103331
23.2441 16.6069 16.7501 -1.13101 0.935012 2.24444
17.1701 18.134 19.688 -0.241857 3.9513 -1.01363
17.3745 20.9028 19.3208 -0.318815 1.06881 0.392069
17.4465 21.9463 16.8197 0.110978 2.38058 1.3063
15.216 21.6198 18.2015 0.309901 -0.977842 -0.0101509
16.7341 19.3979 17.0632 0.610857 -0.666844 0.546805
14.724 19.1034 18.8535 -2.08837 1.33748 -1.21698
20.1119 20.2399 20.3348 1.41803 -0.616942 -1.16475
19.9321 21.453 17.77 -2.51657 -1.55045 2.56916
22.2332 19.6748 18.2388 -0.618397 -0.673888 -3.11327
21.8091 21.0743 15.8178 -0.519632 1.32846 -1.65734
19.3406 18.6937 18.1674 -1.20106 -2.14424 -0.0124457
19.1115 20.0332 15.7539 3.46054 0.819632 -0.698743
24.2527 20.5338 19.8121 2.75765 -0.240645 0.808424
24.1682 21.6898 17.1003 0.785511 -1.61509 0.237298
23.977 19.1894 16.3974 -2.57935 0.842795 -2.39741
26.0456 22.32 19.1335 0.202575 -1.68016 0.450814
25.9453 19.8711 17.8052 -0.336726 -2.72689 0.982296
17.0103 23.7571 18.6257 0.253543 0.958044 0.0852518
22.2645 22.415 19.4713 -0.124944 0.719674 0.200104
19.6733 22.662 15.4909 0.377422 1.52053 -1.03889
19.5907 23.0667 20.1005 -2.02272 0.180772 1.1762
19.2897 24.1294 17.6176 1.82372 2.10037 -1.32833
22.0292 23.5424 16.8344 0.340183 3.45428 -3.86472
18.8532 25.6707 19.7034 -0.0185518 -1.16428 -2.53835
21.3918 24.9473 19.2785 -0.334145 3.02682 2.50382
24.2845 24.0237 18.6649 0.112444 3.41608 -0.742183
17.3593 16.9829 22.359 -0.23097 -2.59499 0.488295
15.0982 17.5959 21.0668 0.436997 -0.505802 0.0412963
20.5886 18.1229 25.5317 -1.45576 2.16807 0.650792
19.8142 16.4546 23.4992 0.751165 -2.16771 0.52184
19.6709 17.5603 20.8031 0.611629 1.60235 1.83049
21.8075 15.768 21.4986 0.627297 0.824638 0.503928
19.3448 14.9479 21.1427 0.421729 0.484743 -0.323317
22.4578 17.3327 23.4366 1.50836 1.4974 -0.341189
24.5989 16.8962 21.4162 1.02456 0.0761998 1.08439
18.2712 18.6614 24.5425 -1.44909 0.162826 2.12651
17.8584 19.6222 22.0386 0.0422461 -0.591205 0.373145
15.7987 19.3493 23.616 0.14817 0.429332 1.57153
15.3745 20.2274 21.0966 -1.49051 -2.3673 -1.8081
17.634 21.3634 24.5161 0.141413 2.03911 2.23974
15.283 22.0428 23.2694 0.0464475 -1.48114 -1.06513
17.5214 22.4484 21.3612 -0.87731 -1.44123 -0.0477614
20.5961 19.2381 22.8144 2.05638 -1.11817 -1.52837
20.0748 20.9184 25.2829 2.3124 -0.00385738 -0.992076
19.7006 21.9794 22.731 -1.71859 -1.73544 1.20431
22.4308 21.0338 22.2923 0.496562 -1.05296 0.269959
22.719 18.5922 20.7407 -0.0446563 -2.24502 -0.809029
22.3568 19.6682 24.9123 0.736901 -1.21192 3.28788
24.7273 21.4923 24.08 -2.05457 -0.314134 1.33174
24.3728 19.3161 22.7343 -0.819346 -2.54752 -1.68827
26.1244 21.3917 21.8365 -1.26161 -0.479103 -2.84476
26.1666 18.8456 20.6281 -2.32349 1.56113 -2.23605
14.988 22.743 20.4154 1.84386 1.94326 -2.1064
16.9495 23.687 23.7743 -1.04578 -0.461457 1.63536
16.5924 24.8403 21.2265 -2.35825 3.38008 -0.821528
19.7086 23.6868 24.8114 2.24339 0.85601 2.43766
19.0977 24.7738 22.414 4.40829 -2.84267 -0.118084
22.1679 22.7299 24.357 -0.401871 0.758394 -1.69459
21.7115 23.8322 21.8605 -0.125821 -0.352353 0.901354
21.5788 25.5153 23.7042 -1.27903 -0.401434 1.00884
21.1503 26.312 21.301 -1.16755 2.63216 0.370416
24.3864 22.9939 21.3389 1.5113 0.47393 2.85582
24.0095 24.2648 23.5239 -0.911848 -0.689714 -2.8107
23.5625 25.5528 21.0661 -2.0369 0.464456 -0.299545
ITEM: TIMESTEP
4000
ITEM: NUMBER OF ATOMS
75
ITEM: BOX BOUNDS ss ss ss
1.4808530223636303e+01 2.6298263673895892e+01
1.4439131281784936e+01 2.6298364211649787e+01
1.5162435604549380e+01 2.5376992095047701e+01
ITEM: ATOMS x y z vx vy vz
18.4234 17.3095 16.4236 -0.253384 -0.194 -0.521112
16.2814 15.8283 20.3398 -1.39464 1.46493 1.78633
15.9562 16.856 17.9265 -0.120493 -1.97625 -0.86453
18.5994 16.1585 18.7169 0.412431 -1.35281 0.986648
21.4246 16.9551 18.8189 -0.408825 1.3367 0.674245
21.2952 18.1065 16.0361 -2.42617 -0.528093 1.16602
20.808 14.3973 19.2405 2.04612 -1.2283 -1.13538
20.6734 15.5172 16.7036 0.93281 0.875007 -0.301173
24.3604 17.3897 18.7394 -2.59493 0.832147 0.318285
23.251 14.8509 19.2037 0.0911219 -0.702937 -0.100334
23.1006 16.3799 16.5167 0.948938 -1.08023 -2.12332
16.9095 18.35 19.9052 -0.399921 -1.12985 -0.0628232
17.9988 21.0029 19.2431 1.19148 0.91824 -0.16021
17.4851 22.103 16.4942 2.1135 -1.01985 -1.2107
15.282 21.5135 18.0287 0.523574 -2.04941 -0.0473643
16.9908 19.4603 17.2305 1.13396 1.51077 1.64827
14.6063 18.8954 18.7141 -2.36827 0.241805 1.4369
20.366 21.6198 17.6472 0.747275 0.758248 -0.511436
22.5707 19.666 18.1789 0.76597 -1.44345 1.74482
22.0651 20.6571 15.5476 2.40787 1.07777 1.3638
19.6467 18.8632 18.1568 -1.82063 1.28463 1.59602
19.2428 19.9368 15.753 -2.12037 1.84293 -0.527597
24.1284 20.6157 20.1673 0.24544 -0.395631 -0.964926
24.1529 21.8264 17.3441 -0.917848 2.50962 1.99165
24.1991 19.0029 16.1507 1.65498 1.55144 -1.59955
26.0581 19.9404 18.3226 0.759353 0.543336 -1.41036
16.866 23.6745 19.1179 1.14552 1.61458 -0.0318054
18.4559 25.5421 20.0984 1.95351 1.40405 2.00892
22.5225 22.719 19.302 -1.96367 -0.369516 -0.917962
19.7164 22.6019 15.374 1.81675 -0.180924 -3.09641
19.6626 23.1111 20.2574 -1.99212 -0.971227 -1.50683
19.254 24.0938 17.4845 -1.94066 0.626682 -0.539063
22.1164 23.4141 16.7148 -3.03403 -0.0580837 -2.99123
21.2554 25.0719 19.0394 0.799008 -0.75989 0.605212
25.9817 22.6029 19.0814 -0.600782 0.699792 0.905948
24.1576 24.4341 18.1187 0.370064 -2.00428 2.13593
17.5016 17.1901 22.3791 1.46732 -0.996576 -0.738987
14.7261 17.6307 21.1139 -1.7137 -0.770473 -0.737447
21.0535 18.0656 25.274 1.88339 -0.736948 -2.47241
20.0618 16.53 23.3288 -1.42585 0.0445722 0.882753
19.9791 17.6445 20.8941 -0.960784 -0.592365 -1.60018
21.7598 15.5817 21.4747 0.0493864 -2.02609 -0.234534
18.9696 15.1131 21.0235 1.37812 0.493277 -0.731139
22.7959 17.3239 23.5009 0.55038 -0.151204 0.113568
24.3083 16.4576 21.3861 0.372825 2.18894 2.85982
26.0628 18.611 20.5005 -0.475007 -0.622913 -0.947144
18.6237 18.773 24.313 -2.50796 2.52989 1.49056
18.1557 19.9417 21.709 1.15983 -3.96063 -2.60706
15.9883 19.2343 23.0649 -0.0401867 -1.42124 -0.161889
15.3766 20.537 20.6361 0.769505 -0.197169 -0.998755
17.5545 21.188 24.4349 -1.17518 -1.17621 -1.09219
15.1724 21.8123 23.1294 0.576421 0.915805 -0.0816241
21.0004 20.6061 20.4966 1.84405 0.351183 3.00318
20.7894 19.3721 22.8574 0.195469 -0.535978 -0.263643
20.1551 20.8226 25.4327 -2.56289 0.20176 1.81451
19.7656 22.0386 23.2061 -0.215279 -2.30056 -0.634078
22.8334 21.4466 22.2783 -1.46295 -0.450875 -0.968895
22.7132 18.4088 21.0045 -1.00447 -1.36715 1.79125
22.8454 19.8817 24.6988 -1.46997 1.64666 0.185572
24.7502 21.837 23.8924 1.9614 -1.61521 2.10138
24.6548 19.3408 23.0317 -0.770276 1.39443 -0.112992
26.2658 20.816 21.7032 0.29595 2.28495 1.84636
17.192 22.4559 21.6115 -0.249198 0.0701614 1.77803
14.5565 22.974 20.5479 -0.220323 -0.786192 1.81759
16.4852 23.7128 24.0078 0.60279 5.27745 2.78561
16.2934 24.8147 21.4815 -1.80443 0.536141 0.101561
18.6321 24.6089 22.6986 1.23266 -0.0265187 -0.19726
19.4256 23.445 25.2538 2.58438 -0.67583 -1.67759
21.9462 22.6916 24.6115 0.222338 -0.287595 -0.372059
21.6416 23.68 21.9098 1.67813 -0.931654 -0.922808
21.127 25.3134 24.0591 0.543659 0.86101 -2.42444
21.0321 26.3186 21.5314 0.222994 -3.5929 0.35037
24.7064 23.0934 21.1101 -2.58273 0.0281165 -0.586424
23.5921 24.4982 23.4036 -0.513875 0.576731 -1.22494
23.267 25.3458 20.4956 3.86115 2.17328 -0.878507
ITEM: TIMESTEP
5000
ITEM: NUMBER OF ATOMS
75
ITEM: BOX BOUNDS ss ss ss
1.5021887765456967e+01 2.6424951059282584e+01
1.4589965353564306e+01 2.6628448849799181e+01
1.5274915699755097e+01 2.5332312122699747e+01
ITEM: ATOMS x y z vx vy vz
18.4607 17.3802 15.9894 -2.63643 -1.89543 0.632698
16.5995 15.7919 20.2175 -0.784603 0.504625 -0.784763
16.4661 16.7391 17.3946 -1.25624 -0.592291 0.101561
18.7902 15.9638 18.653 1.90589 -1.75556 0.924055
17.2783 18.2733 19.712 -1.36455 0.118155 0.322429
21.426 17.0378 18.8702 -3.57668 2.74005 0.300906
21.215 18.3579 16.0168 -1.2844 0.817038 1.94564
20.9485 14.5244 19.3156 -1.91741 -0.339692 1.05215
20.5056 15.9067 16.6671 1.98308 -1.43257 -0.928067
24.298 17.8153 18.8332 0.216853 -3.75462 -0.965492
23.4267 15.4415 19.405 1.41487 0.0989944 0.416786
23.1838 16.4178 17.0475 2.23033 -0.57985 -0.352659
17.6506 20.8685 19.0049 0.677214 0.147216 -1.20032
17.331 22.0822 16.3304 3.12537 -1.02026 1.65832
15.3019 21.4719 18.1663 -0.410711 -2.69748 0.330264
16.6157 19.3483 16.7689 2.77402 2.63716 1.36516
14.9466 18.8351 18.6441 -0.826229 0.76635 -0.400625
20.0152 21.6457 17.7127 1.61477 -0.20509 0.825512
22.0846 19.7632 18.3991 -0.0867822 1.77602 -0.676481
21.837 20.9947 15.7091 -0.570324 0.392817 -0.837029
19.3601 18.9228 18.0293 -0.811897 -0.890995 -0.267816
19.1078 20.1082 15.6563 2.3363 2.46893 2.79567
21.9091 22.2633 19.5567 1.20965 -1.54354 0.340949
20.1417 20.2125 20.5682 0.700843 1.31109 -0.777577
24.1023 20.5206 20.0207 -0.849802 1.05404 -1.28637
24.0083 21.7241 17.3553 -0.967366 0.519521 0.638974
23.7288 19.1179 16.3183 -0.347891 -2.49265 1.07369
25.7523 19.7311 17.8692 0.531916 -0.373549 0.0853247
26.2052 22.1124 18.9895 1.35022 0.11757 -0.30962
16.9982 23.417 18.6224 -1.54693 0.660851 1.03245
19.3676 25.7457 20.0435 0.258109 1.60554 0.648308
19.9729 22.751 15.4041 -2.41986 0.368547 0.00412061
19.3142 23.3094 20.0081 -1.83208 -1.2504 1.27908
19.4868 24.2135 17.2761 -1.15227 -2.76128 -1.14372
22.1353 23.6542 16.7979 -0.386281 1.89076 -0.715175
21.6407 24.943 19.2319 1.80999 0.411827 1.80892
23.9471 23.7276 18.9485 -1.04248 1.68306 -0.949935
17.5347 17.0669 22.4599 1.26209 -0.630987 0.803154
15.1774 17.8589 21.4196 0.728115 -0.918723 0.959647
18.7057 18.5434 24.6502 0.0130929 -0.697111 -3.75545
20.9408 18.2896 25.6389 1.12341 1.90851 -0.545529
20.1161 16.5585 23.435 0.267113 0.918294 -0.97531
19.5884 17.4435 20.7988 1.59536 2.24755 0.876327
21.7278 15.7264 21.6599 1.68302 4.24511 -2.08728
18.8317 14.9206 21.2127 0.0952797 2.04963 0.509961
22.4295 18.3423 20.8767 -1.23257 -0.0823309 2.31588
22.5963 17.6229 23.5688 -1.99731 -0.297844 1.12327
24.536 17.0011 21.5341 -1.60804 -1.2846 -2.5372
17.7539 19.7451 22.2845 1.20954 -0.687765 0.875434
16.0024 18.9059 24.0077 1.02091 -0.0888216 0.458974
15.1738 20.4314 20.6711 0.697789 1.78441 -2.9793
17.5293 21.2213 24.5991 -0.592156 -0.0204517 -1.05528
15.2873 21.292 23.0016 -0.350515 -0.143511 -0.969189
17.3288 22.1939 21.6729 2.63444 -0.374898 0.118857
20.6643 19.1838 22.9438 -1.39447 -0.648421 0.0224157
20.1701 20.9026 25.0772 0.417903 0.368593 -3.26321
19.7914 21.7383 22.602 -0.0787134 2.65301 -1.40585
22.4264 21.014 22.4551 1.45409 -2.60293 -1.68082
22.1205 22.5661 24.6464 -0.536299 -0.785996 0.466974
26.2545 19.0693 20.4611 0.220984 -2.71658 -0.491316
22.9499 20.1068 24.775 1.9968 0.22107 2.39067
24.7129 21.9941 23.5499 -0.581039 0.614344 0.105728
24.744 19.3927 22.5493 -1.68031 1.62351 -0.116211
26.5615 21.1788 21.6019 -2.6624 1.99727 3.10269
14.8089 23.0334 20.9034 0.573201 -0.783128 0.014016
16.539 23.7786 23.5015 -1.87271 -0.480601 1.64931
16.8649 24.7778 21.1211 0.115519 1.40584 0.803639
19.1447 24.8107 22.5234 -0.559526 -0.833064 -0.0649121
19.0195 23.4033 24.7836 -1.69867 0.167137 -0.133749
21.693 23.8803 21.8078 0.4018 0.36986 -0.243291
21.2645 25.1193 24.0348 0.0158998 -3.45425 -0.479196
21.2022 26.5703 21.5318 -0.679789 -1.11917 0.60793
24.3042 22.8059 21.3108 2.15724 0.35316 -0.187683
23.6582 24.5204 23.5518 -0.745564 -0.575855 -1.50127
23.9108 25.4812 20.848 0.518261 -2.20517 -0.720157
ITEM: TIMESTEP
6000
ITEM: NUMBER OF ATOMS
75
ITEM: BOX BOUNDS ss ss ss
1.4939563767969860e+01 2.6393447196731788e+01
1.4226687975926934e+01 2.6149587735618596e+01
1.4825797008997299e+01 2.5370104634148198e+01
ITEM: ATOMS x y z vx vy vz
16.3265 17.3733 17.7031 0.199862 2.13541 -0.71838
18.8317 16.2052 18.4228 -0.788609 -0.307667 -1.38038
17.3584 18.4319 19.8634 -1.67847 0.650218 -0.353833
18.6903 17.3218 15.9194 1.77272 0.335945 0.733248
21.4038 17.0369 18.6675 2.60901 0.355282 1.20684
21.3036 18.0624 15.854 -0.147578 -2.5096 -0.299963
20.9726 14.5861 19.3544 0.393058 2.06745 0.212025
20.6746 15.7212 16.6939 -0.965251 1.13016 -0.521717
24.3144 17.7128 18.9281 -0.0164081 4.09219 0.557422
23.5097 15.1397 19.301 -0.351991 2.61433 0.793507
23.3118 16.3906 16.8651 -1.67292 -2.5644 -0.827214
17.7661 21.0927 19.222 1.46472 -2.25247 1.88219
17.5971 22.1352 16.712 -1.75906 0.0834261 -0.327326
15.2642 21.4019 18.2187 -0.723428 -0.408653 -1.37804
17.0117 19.6023 17.1759 -0.814548 -1.44103 -0.535431
14.8485 18.9417 19.0453 -0.936449 -0.942214 0.501396
15.3355 20.3478 21.2209 -1.51052 -0.336918 -0.574678
20.2251 21.6465 17.5541 -1.60874 1.68081 1.22992
22.2398 19.6796 18.3029 1.85549 1.35082 -0.545017
22.0935 20.7392 15.514 -0.582363 0.248106 3.15688
19.5561 18.8976 18.0093 -0.648783 -0.963303 -1.5932
19.3087 19.8729 15.4627 -1.2117 -0.454408 -1.64346
20.2082 20.4831 20.5076 2.02187 -1.30465 0.236519
24.0565 20.472 19.9698 0.804412 -0.889029 1.13913
23.8239 21.9006 17.3805 2.01132 -0.209296 1.36335
23.9268 19.2488 16.4539 2.06789 0.87868 1.8549
25.8157 19.878 18.4901 1.43016 -0.669352 -1.95839
25.8469 22.5166 19.2241 1.43033 -2.96732 -0.803441
16.7469 23.7589 18.7869 0.600649 1.16105 -2.31622
18.6037 25.8076 19.3996 -1.50043 0.801474 1.61673
20.0194 22.5985 15.2209 -2.09574 2.445 1.27352
19.4099 23.109 20.0714 -0.415779 3.03139 -1.07054
19.2378 24.2263 17.3884 -0.0767522 -2.13365 0.542669
22.1726 23.5173 16.7134 -1.67754 1.21344 3.54017
21.3395 25.1625 18.923 -0.689537 1.19151 -1.60094
21.9651 22.1868 19.5323 -1.72182 1.45092 -1.11825
24.0335 24.2357 18.9261 -1.25309 -1.96279 -1.61004
23.0181 25.6851 21.1052 0.142675 1.62147 -0.561045
16.9401 15.7994 20.2094 0.93304 -1.14602 -0.55731
17.3881 16.9624 22.5836 -1.25391 0.583317 0.567563
15.1452 17.5559 21.3883 -0.549664 1.48287 1.1599
20.9997 18.0687 25.7383 0.976137 -0.504722 -0.329685
19.8598 16.3848 23.3898 1.17971 -1.12696 -2.21631
19.5865 17.5331 20.8048 -1.45407 -1.38196 -0.42652
21.778 15.6929 21.5139 1.32538 0.383444 -0.833958
19.247 14.9827 21.0863 0.243079 -0.275112 0.846586
22.6602 17.4172 23.681 -2.10073 -1.20347 1.757
24.3226 16.486 21.4472 0.972581 0.67758 0.66904
18.5147 18.6587 24.6333 0.169587 1.05866 1.94709
18.1862 19.7514 22.1643 -2.70194 0.460875 -1.51189
15.8564 19.3024 23.53 0.564493 -3.22618 -0.481112
17.4511 21.0289 24.3337 1.25437 0.54562 -0.495095
15.1545 22.4764 23.3365 1.30364 3.56405 1.03237
22.5191 18.2812 20.9995 -0.591434 -2.39734 0.0502187
20.6932 18.9686 22.9746 0.452213 0.498784 0.303111
20.0891 20.625 24.9901 -3.1013 0.414726 -0.642502
19.8541 21.9479 22.8208 0.913271 -2.90963 -0.793459
22.4317 20.9216 22.0499 0.590518 -0.436998 -0.329856
26.3893 18.419 20.6202 -0.176191 -1.56925 1.49309
22.6217 19.988 24.5388 1.47009 0.638506 0.368519
24.3766 21.7618 23.6754 0.768919 -1.94884 1.60561
24.6778 18.9567 22.705 -0.118248 -1.26913 -0.234081
26.3549 20.9047 21.1389 -0.243295 1.15375 1.59463
17.2818 22.3518 21.5415 0.149574 -2.68956 -0.110174
14.8071 22.8558 20.5769 0.187789 -0.938708 0.492847
17.2135 23.8439 24.1036 1.38209 0.255912 -0.318207
16.548 24.7376 21.2849 -0.470595 -0.863228 -0.797122
22.0412 22.7477 24.5022 -0.744177 -0.587848 -0.478787
19.0092 24.7312 22.6066 3.0883 -0.355317 -0.834974
19.5162 23.4296 24.9647 0.22722 -0.226215 -0.299656
21.6435 23.667 21.9158 -1.23692 0.423384 -1.78819
21.5891 25.6125 23.6049 1.66705 0.794798 -0.97334
20.5563 26.1555 21.2491 0.680197 0.775579 0.351546
24.1443 23.0371 21.3584 -0.517188 1.65566 -0.515698
24.0094 24.4537 23.4593 0.803799 1.46664 0.62589
ITEM: TIMESTEP
7000
ITEM: NUMBER OF ATOMS
75
ITEM: BOX BOUNDS ss ss ss
1.4757496417807554e+01 2.6562166205343594e+01
1.4227996061381672e+01 2.6039282626743024e+01
1.5375970185295429e+01 2.5310255946295570e+01
ITEM: ATOMS x y z vx vy vz
16.1932 16.8044 17.6319 -1.27367 -1.38452 -0.0826082
17.0925 18.2758 19.9441 -0.933639 -2.41544 0.575747
16.4868 15.7075 20.3592 0.097054 -0.768907 -0.49855
18.5254 16.0956 18.7779 0.754106 1.76932 1.45984
18.2593 17.1513 16.2199 -0.850245 -0.830032 1.28915
21.5478 17.1934 18.806 -1.07329 0.160637 -0.373396
21.0901 18.2983 15.7705 1.19468 -0.318729 0.100739
20.9117 14.5069 19.3268 -0.430325 1.22644 0.666458
20.4623 15.9419 16.8987 1.12367 -1.82497 1.9201
24.2364 17.7783 18.9249 1.11643 1.639 0.702578
23.2852 15.154 19.3529 -0.056841 -0.108316 -2.00189
23.201 16.9766 16.7001 1.75518 -2.06928 -1.09229
18.0054 20.7862 19.1687 0.585652 -1.63023 0.0574259
17.783 22.1782 16.6298 -0.107849 -1.15071 0.644954
15.6757 21.5245 18.1444 2.23361 -1.58512 -1.297
16.7716 19.3787 16.9515 -0.669965 2.26197 -0.845377
14.6427 18.6924 18.8105 0.532303 3.29114 0.725044
20.4108 21.4455 17.7019 -0.385544 -1.20554 1.40735
22.373 19.537 17.8413 0.710602 -0.810696 -2.44579
22.0098 20.8298 15.2932 0.941262 -0.215966 -1.26554
19.3376 18.7558 18.2185 -0.0441322 0.895652 -0.868775
19.0717 19.9992 15.8341 3.15768 1.52912 -2.67943
22.3316 22.5134 19.5236 0.698416 -1.89441 -0.565282
24.2355 20.4103 19.9789 1.04642 -1.44114 -1.56313
24.2434 21.6957 17.054 -1.60004 0.568705 -2.02676
24.0556 19.1895 15.6103 -0.294694 -0.771598 -0.989619
25.5317 19.5717 17.6346 -2.08238 1.22543 -0.507211
17.0479 23.7341 18.9837 0.128269 -0.059774 -3.2384
18.9339 25.5092 19.8535 0.469708 2.16248 -2.25257
19.9834 22.7381 15.4658 1.40713 1.08289 -0.11803