ITEM: TIMESTEP
0
ITEM: NUMBER OF ATOMS
766
ITEM: BOX BOUNDS ss ss ss
5.8949179899150534e+00 3.4997721854705361e+01
5.1086396713431954e+00 3.5686307009184226e+01
7.3049038748199644e+00 3.3485096924138581e+01
ITEM: ATOMS x y z vx vy vz
19.7681 8.62558 10.4405 2.64772 0.947927 1.2384
13.2064 11.8038 10.9576 -0.623691 -0.702398 0.395089
15.5558 12.4232 9.40673 0.10174 0.0372589 -0.838299
17.6619 10.5244 9.92359 -1.29902 1.45242 -1.62528
20.4648 11.3909 10.0209 0.231088 0.0717592 0.667639
23.2676 12.2574 10.1182 -0.100855 0.688103 -1.27541
25.3737 10.3586 10.6351 -0.0159902 -0.73444 -2.80965
22.5709 9.49209 10.5378 0.8039 -0.897615 1.16744
28.1766 11.2251 10.7324 -1.74897 0.46405 -0.959081
13.9031 14.5691 10.538 1.73218 -0.564159 0.510112
16.5236 14.0175 11.6044 -0.148338 2.35797 -1.09982
16.2525 15.1885 8.98718 0.88537 0.256658 0.346022
18.3586 13.2897 9.50405 1.21922 0.502125 -0.168611
19.0553 16.055 9.0845 -2.08322 0.24317 2.07265
21.1615 14.1562 9.60136 -0.665906 1.4412 0.818845
23.9643 15.0227 9.69868 -0.598152 -0.792138 0.486542
26.0705 13.1239 10.2155 0.368849 -1.4012 0.0720763
26.7672 15.8893 9.796 -1.14344 -0.833023 0.643128
28.8733 13.9905 10.3129 -1.03184 0.742534 0.47997
12.9471 19.4804 11.2498 -0.846464 -0.0254747 -0.0151421
17.917 19.5482 10.7653 1.58154 -1.62576 0.981662
17.2203 16.7829 11.1848 -0.643854 -0.0318821 0.387159
16.9492 17.9538 8.56763 0.160536 0.111473 0.772847
15.2965 20.0997 9.69895 0.704877 -0.0542138 1.83902
14.5998 17.3344 10.1185 0.272969 1.62306 -0.131776
20.0232 17.6494 11.2822 -1.72465 1.70408 0.551711
19.752 18.8203 8.66495 0.804587 -0.469597 -0.864383
21.8582 16.9215 9.18182 -1.17089 -0.110317 -0.297068
25.6289 19.3824 11.4768 -2.60252 -0.583019 0.471612
22.826 18.5159 11.3795 0.176584 0.757194 -0.799299
22.5549 19.6868 8.76226 1.04428 1.56448 0.40508
24.661 17.7881 9.27913 -0.906193 0.318237 0.0213496
27.4639 18.6546 9.37645 -0.227611 -0.1591 -0.327904
29.6496 19.4373 11.0848 -0.848358 -0.268672 0.519802
29.57 16.7558 9.89331 0.234132 2.46957 -1.35363
31.7557 17.5385 11.6016 1.54085 -1.26717 -0.565468
13.6438 22.2457 10.8303 0.96286 0.757541 0.192593
18.3426 23.4844 7.72853 0.658453 2.31617 -2.84687
17.6459 20.7191 8.14808 -0.185606 -0.717278 2.66305
15.9932 22.8651 9.2794 -0.767499 -1.29959 -1.11225
21.4166 23.18 10.4431 -1.35761 -0.518226 -0.598949
18.6137 22.3135 10.3457 -1.74794 1.96526 0.403089
20.7199 20.4147 10.8626 -0.519335 1.51966 -0.64141
20.4487 21.5856 8.2454 -0.728875 -0.464855 -0.551786
23.5227 21.2812 10.9599 0.0413316 0.729314 1.42795
23.2516 22.4522 8.34272 0.0700197 -0.319781 2.0961
25.4373 23.2349 10.051 1.40209 0.0782743 -0.0346845
25.3577 20.5534 8.85958 0.130593 2.68395 -0.277377
27.5435 21.3361 10.5679 1.0861 -1.80331 -0.365573
16.9611 24.4594 11.4771 2.12932 -0.309226 0.544716
16.6899 25.6304 8.85986 0.947629 0.492419 -0.904005
14.3405 25.011 10.4107 0.329175 -0.182371 0.871663
16.122 27.2038 11.2072 -0.495735 1.44516 -0.537374
19.3104 25.0788 9.92619 0.0329961 0.5856 0.210953
19.0393 26.2498 7.30898 -1.33397 -0.363429 0.520895
18.4714 27.8232 9.65637 -1.66131 -1.1741 1.19615
21.4962 25.8615 11.6345 0.372512 -1.88644 0.223427
21.225 27.0324 9.01732 1.14809 1.56083 -1.80603
21.1454 24.351 7.82585 1.02736 -1.50016 -1.68501
23.4108 27.8151 10.7256 -0.268196 -0.369466 0.279825
23.3312 25.1337 9.53418 -0.958706 -0.865758 1.49128
25.5169 25.9163 11.2425 0.720302 0.842293 -0.56754
20.6571 28.6059 11.3647 -0.766405 -2.12621 -0.284937
18.2042 8.18247 15.158 -0.0149748 0.806923 -3.1768
20.3103 6.28367 15.6749 -2.55449 0.321652 -0.583262
20.0392 7.45462 13.0577 0.0313995 -1.34664 -0.280323
25.916 8.01671 15.8695 1.5782 0.795833 -1.16984
23.1132 7.15019 15.7722 -1.11951 0.00442351 0.561096
22.842 8.32114 13.155 -0.981122 0.00584893 -0.821376
28.7189 8.88324 15.9668 0.926024 2.66018 0.457635
13.4775 10.6328 13.5748 0.563339 1.04779 0.297545
11.1282 10.0135 15.1257 -1.24956 1.02695 2.29614
10.857 11.1844 12.5085 -0.612117 -0.249134 -0.907592
16.098 10.0813 14.6411 -2.7187 0.121478 -0.243712
15.8269 11.2522 12.0239 -0.959591 1.81492 -1.18524
14.4454 12.2272 15.7725 0.530738 -0.0595295 -0.316079
17.9331 9.35342 12.5408 0.959086 0.255574 -0.649574
21.7037 11.8143 14.8358 -0.464967 -0.136361 0.643609
18.9009 10.9478 14.7385 0.0023905 -0.799062 0.0681435
18.6298 12.1187 12.1212 0.366595 -1.118 -2.66747
21.007 9.04898 15.2553 -0.368686 -2.22824 0.974746
20.7359 10.2199 12.6381 -0.556449 0.389188 0.754081
24.5066 12.6808 14.9331 0.793359 -0.685289 -0.574623
26.6127 10.782 15.45 -0.3057 1.02318 0.630843
26.3416 11.953 12.8328 -0.223584 0.243849 -0.85856
23.8099 9.91551 15.3526 0.588337 -0.505662 0.726526
23.5387 11.0865 12.7354 0.988622 2.07953 1.6351
25.6449 9.18766 13.2523 -0.370003 0.997226 0.00148366
29.4156 11.6486 15.5473 1.24385 0.31911 -0.0351814
28.4477 10.0542 13.3496 0.188146 -1.00715 -0.0401792
9.90105 16.0957 13.2202 -0.294976 0.909156 -0.361755
9.20434 13.3304 13.6398 1.53745 -0.311779 -0.647569
7.55167 15.4763 14.7711 0.249699 -0.285996 -1.81721
14.1742 13.3982 13.1553 1.54107 -0.400105 0.572908
12.5216 15.5441 14.2866 0.506179 0.62622 -0.130113
11.8249 12.7788 14.7061 0.706712 1.6143 -1.72616
11.5537 13.9497 12.0889 0.332954 1.57675 1.03559
10.1722 14.9247 15.8374 -0.213116 0.444793 0.178508
17.4915 15.6119 13.802 -0.90132 -1.40489 1.07062
16.7948 12.8466 14.2216 -0.825454 -2.16116 0.229981
15.1421 14.9925 15.3529 -0.286828 -1.35363 -0.702794
14.8709 16.1635 12.7357 -0.605855 -2.51388 -1.61147
20.2943 16.4784 13.8994 0.114832 0.957719 -0.693695
22.4004 14.5796 14.4162 -1.67961 1.12481 1.52459
22.1293 15.7506 11.799 1.91355 -0.489327 -1.0432
19.5976 13.7131 14.3189 0.306315 0.509096 -0.734474
19.3265 14.8841 11.7017 0.224728 0.600463 -2.56861
21.4326 12.9853 12.2186 1.81001 1.10212 -1.09766
25.2033 15.4461 14.5135 -0.884609 0.21545 -1.69897
24.2354 13.8518 12.3159 -2.00244 0.0935425 -0.397233
28.0061 16.3127 14.6109 -0.221935 -0.641152 0.552247
30.1123 14.4139 15.1277 0.485762 1.16832 -0.168777
29.8411 15.5848 12.5105 0.790513 -0.304227 -0.841118
27.3094 13.5474 15.0304 0.919502 0.492533 1.8364
27.0383 14.7183 12.4132 0.914405 0.204787 1.62272
29.1444 12.8195 12.9301 -0.90552 -0.628312 -1.45948
32.0269 16.3675 14.2189 -0.548641 1.37467 2.67308
8.24838 18.2416 14.3516 1.28302 0.0330228 0.421304
6.5957 20.3876 15.4829 1.42239 0.147977 2.17669
5.899 17.6222 15.9024 -0.0743351 3.14186 -0.734943
13.2183 18.3094 13.867 0.789805 -0.057424 0.11326
12.2504 16.7151 11.6694 -0.592797 -1.17004 -1.3663
10.8689 17.69 15.4179 -0.247061 0.685556 -1.75186
10.5978 18.861 12.8007 -0.55224 2.30609 0.741354
18.1882 18.3772 13.3825 2.22302 -1.23885 2.30201
15.8388 17.7578 14.9334 1.48864 -0.604774 -0.909058
15.5677 18.9288 12.3162 2.0224 -1.53901 -1.67034
19.156 19.9716 15.5801 -0.128358 -0.556128 -0.591828
20.991 19.2437 13.4798 -0.895369 -1.29577 1.62787
18.4593 17.2063 15.9997 -0.0310795 -1.63865 -0.217842
23.7939 20.1103 13.5771 -1.32244 -0.804904 -0.631959
25.9 18.2115 14.094 -1.27167 0.420089 -0.110666
23.0972 17.3449 13.9967 -1.78091 0.346404 0.539246
24.9322 16.6171 11.8963 0.0670213 -1.8219 -0.873136
28.0857 18.9942 15.8023 -1.64618 0.658571 2.95678
27.8146 20.1651 13.1851 0.295464 0.562073 1.05002
27.735 17.4836 11.9937 0.0936229 -0.405394 -0.435683
29.9207 18.2663 13.702 1.18706 1.19394 0.53197
32.1065 19.049 15.4103 -0.574848 -1.45453 1.90179
31.8353 20.2199 12.7931 -0.779597 1.54166 1.18402
34.2126 17.1502 15.9272 -0.0300724 0.287131 1.00213
33.9415 18.3212 13.31 1.44359 0.392348 -2.00374
9.64179 23.7723 13.5125 1.44702 0.660834 0.00314331
7.29241 23.1529 15.0634 1.54056 -0.147492 -1.60929
8.94509 21.0069 13.932 0.251947 2.62287 -0.461974
12.2623 23.2207 14.5788 0.127609 0.204861 -1.56323
13.915 21.0747 13.4475 -0.364189 -0.16972 -1.83546
11.5656 20.4554 14.9983 1.27995 -0.123571 -0.393706
11.2945 21.6263 12.3811 -0.349745 0.360475 1.04236
17.2322 23.2885 14.0943 0.0256745 -0.471673 0.513516
14.8828 22.6691 15.6451 0.296614 -0.557895 -0.150737
14.6117 23.8401 13.0279 0.292208 0.889604 1.30609
16.5355 20.5232 14.5138 -0.699912 -0.238514 0.864015
16.2644 21.6941 11.8966 -0.0979653 -1.34311 1.37888
19.8527 22.7369 15.1606 1.46062 0.526791 0.539857
19.5816 23.9079 12.5434 -1.27165 1.20611 0.948635
21.9589 20.8381 15.6775 -1.96276 -0.289069 -1.90443
21.6877 22.0091 13.0603 -0.489429 0.436152 -1.887
18.8849 21.1425 12.9629 -1.59381 0.089435 -0.973418
23.8735 22.7917 14.7686 -0.303384 2.02758 0.186412
23.6023 23.9627 12.1514 -0.0908256 -0.900855 0.222095
25.9796 20.8929 15.2855 -0.589632 -2.06346 -1.52856
25.7085 22.0639 12.6683 -1.26167 1.03479 -1.13961
27.8942 22.8466 14.3766 -0.828386 -0.344218 0.88571
27.623 24.0175 11.7594 1.18707 -0.950134 -1.27034
30.0003 20.9478 14.8935 -0.145091 -0.802056 0.0673585
29.7292 22.1187 12.2762 2.34821 -1.59182 -0.354644
31.9149 22.9014 13.9846 0.832281 0.307837 -0.25833
34.1006 23.6841 15.6929 1.26353 -0.369074 0.14206
34.0211 21.0026 14.5014 1.50881 -2.45225 -0.0275326
9.07386 25.3457 15.8599 -1.02915 0.732997 -0.0350997
11.9912 24.3917 11.9616 -1.00133 0.349868 -0.545392
14.0438 25.4135 15.3753 -1.40177 -0.0648719 -3.17708
13.7726 26.5844 12.7581 1.36906 0.0674423 1.79086
11.4232 25.9651 14.309 0.916152 0.212807 -0.134199
16.3931 26.0329 13.8244 -1.50798 0.934339 1.43393
19.0137 25.4813 14.8908 -2.13188 -0.35938 -0.322496
18.7425 26.6522 12.2736 -1.78244 0.39152 -0.221426
21.7673 24.6905 14.2517 2.46349 -1.08746 -0.503272
20.9282 27.4349 13.9819 -0.902307 0.190819 0.518595
23.953 25.4732 15.9601 -0.929172 0.0384736 1.37726
23.6819 26.6442 13.3429 -0.200368 -1.16871 0.85749
25.8676 27.4269 15.0512 -0.618412 1.32425 0.536631
25.788 24.7454 13.8597 -0.250947 0.526493 0.402075
27.9738 25.5281 15.5681 -0.499371 0.922835 0.849789
27.7026 26.699 12.9508 -0.634235 0.709955 0.6845
29.8884 27.4817 14.6592 -0.109062 -1.3882 0.587312
29.8088 24.8002 13.4677 -0.594405 1.15514 1.93551
31.9945 25.5829 15.176 0.0586529 0.366539 1.12886
13.2047 28.1579 15.1055 -0.551479 -1.15225 -0.856916
18.1746 28.2256 14.621 -1.14954 -0.240473 2.11454
17.9034 29.3966 12.0038 -0.164447 1.40023 1.07853
15.5541 28.7772 13.5546 -0.339728 -2.55627 1.22895
17.3355 30.97 14.3511 0.389284 -0.530286 -1.20072
14.9861 30.3507 15.902 -1.12542 0.993628 1.85425
20.0892 30.1793 13.7121 0.20983 0.225383 0.685535
22.2749 30.962 15.4204 -0.289399 2.57251 -0.30968
23.114 28.2176 15.6902 0.252478 0.497019 -0.0110573
22.8428 29.3886 13.073 1.05805 -1.20702 -0.106175
25.5965 28.5978 12.434 0.248241 1.59704 -0.469546
25.0286 30.1712 14.7814 0.25923 0.577897 -0.153829
27.7822 29.3805 14.1423 1.89221 -1.22853 0.562582
29.968 30.1632 15.8507 -1.11319 1.37221 -0.480748
14.0198 8.29094 18.8092 0.4611 1.08206 1.15096
11.6704 7.67155 20.3601 0.0398966 -0.0728941 -1.63394
11.3993 8.84251 17.7429 -1.13898 -1.099 -0.103039
16.6403 7.73935 19.8755 -0.271326 -1.24099 -0.449333
16.3692 8.91031 17.2583 -2.09596 -1.22714 -0.321789
19.4432 8.60588 19.9729 -1.92725 -1.58668 -1.14424
21.2782 7.87803 17.8725 -0.335095 -0.427333 0.550455
18.7465 5.84056 20.3924 0.222931 0.611046 -0.793256
18.4753 7.01151 17.7752 -0.250118 -0.0642761 -0.298994
20.5815 5.11272 18.2921 -0.210715 -0.343193 0.978146
24.081 8.74456 17.9698 0.80242 0.694749 -1.79186
26.1872 6.84575 18.4867 0.358656 -0.456215 0.954702
23.3843 5.97924 18.3894 0.695777 -1.41397 -0.198366
28.99 7.71229 18.584 -0.455674 -1.14331 0.981137
9.74662 10.9884 18.8742 -1.61025 -0.332104 -1.1755
9.47548 12.1594 16.257 1.60734 -1.50357 0.863463
13.7487 9.46189 16.192 -0.680123 1.40957 -0.104786
12.3671 10.4369 19.9405 1.27023 1.09195 -0.367515
12.096 11.6078 17.3233 -1.82033 0.628757 0.608769
17.337 10.5047 19.456 -0.531716 0.0851581 1.74471
17.0659 11.6756 16.8388 1.05429 -0.815446 0.112187
14.7165 11.0562 18.3897 1.93829 -0.340142 -1.51882
20.1399 11.3712 19.5533 1.87931 -0.431136 -0.789719
19.8687 12.5422 16.9361 0.929187 0.437904 -0.9553
22.246 9.4724 20.0702 -0.159113 -1.05929 0.393929
21.9749 10.6434 17.453 -1.53498 0.874304 -0.046421
19.172 9.77683 17.3557 -0.504514 -1.49505 -0.550658
22.9427 12.2377 19.6506 1.13812 0.484831 0.482906
25.0489 10.3389 20.1675 -0.607575 0.372751 -0.467541
24.7777 11.5099 17.5503 0.14046 0.394478 -0.37745
30.6546 12.072 20.3621 -2.65512 -0.511545 1.42429
27.8517 11.2054 20.2648 -0.985886 1.38493 1.02116
27.5806 12.3764 17.6476 -1.08354 -0.686014 0.238891
29.6867 10.4776 18.1645 0.537578 2.95653 -0.300691
26.8839 9.61108 18.0672 -0.0521242 1.21577 1.20186
8.79065 15.8997 19.586 -0.0888294 1.09598 -0.37434
8.09394 13.1344 20.0055 -0.754035 -0.41055 0.241197
7.8228 14.3053 17.3883 0.373411 0.20479 0.991676
6.17013 16.4513 18.5196 -0.133952 -0.352239 -1.07347
13.7605 15.9675 19.1014 -0.0154045 -1.03634 0.785085
13.0638 13.2022 19.521 1.02253 -0.791432 -0.608033
12.7927 14.3732 16.9038 0.844963 0.449262 -0.268806
11.14 16.5191 18.0351 0.324988 2.53035 -1.19188
10.4433 13.7538 18.4546 -0.130252 0.757529 -1.93774
18.0337 13.27 19.0364 -1.74569 -0.487708 0.243076
17.7626 14.4409 16.4192 -1.24062 0.65708 -1.20691
16.3811 15.4159 20.1678 1.8763 -0.121208 -0.429092
15.4132 13.8216 17.9701 -0.627627 -2.09696 -0.765237
18.7304 16.0353 18.6169 1.32424 2.00357 -0.377992
20.8366 14.1365 19.1338 1.18316 0.541396 2.39606
20.5654 15.3075 16.5166 -0.938222 0.471005 0.519934
26.4423 15.8696 19.3284 0.4913 0.596558 -1.12061
23.6394 15.003 19.2311 2.20066 1.25818 0.276041
23.3683 16.174 16.6139 -1.3475 1.76343 -0.0703071
25.7456 13.1042 19.7479 0.550308 1.63532 -0.0494482
25.4744 14.2752 17.1307 0.356035 -0.812591 0.0448266
22.6716 13.4087 17.0334 -0.42972 2.82222 0.782608
28.5484 13.9708 19.8453 0.418993 -0.800102 -0.383977
28.2773 15.1417 17.2281 -0.213875 0.369241 -2.04223
30.463 15.9244 18.9364 -0.659182 2.32097 -0.920916
30.3834 13.2429 17.7449 -1.06997 -0.323579 -0.110653
32.5691 14.0256 19.4533 0.771856 -0.401559 1.79024
32.298 15.1966 16.8361 -2.37824 -1.94999 -1.64019
34.4837 15.9792 18.5444 -2.59701 -0.579622 0.448109
9.48736 18.665 19.1664 1.85813 -1.02338 -1.74378
9.21622 19.836 16.5492 1.09752 0.564895 0.249108
8.51951 17.0707 16.9688 2.22459 2.1018 1.04
6.86684 19.2166 18.1001 -1.87377 0.681616 -0.679458
14.1861 19.9038 16.0647 1.03394 -1.90787 -1.28664
13.4894 17.1385 16.4842 2.56129 -1.58949 -1.80465
12.1079 18.1135 20.2328 -0.000486056 1.24189 2.11774
11.8367 19.2844 17.6156 -0.992137 1.91105 0.53067
17.0778 18.1813 19.7482 0.734314 2.10413 -0.501577
16.8066 19.3522 17.131 -0.897719 0.625683 -1.28227
16.1099 16.5869 17.5506 -0.107157 0.774828 1.21005
14.4573 18.7328 18.6819 -0.118284 2.06964 1.25684
22.23 19.6672 18.2947 0.10312 -0.225335 -0.304419
19.4271 18.8006 18.1973 0.470036 0.606477 1.60742
21.5333 16.9018 18.7142 -0.031368 -1.21488 -0.66184
21.2622 18.0728 16.097 0.622716 0.634523 -1.46613
24.3361 17.7684 18.8115 1.52333 2.1573 0.697805
24.065 18.9393 16.1943 -0.082518 -0.971703 -1.92524
26.2507 19.722 17.9027 0.430483 0.0797724 0.147176
26.1711 17.0405 16.7112 2.75562 -0.848664 1.43482
28.3569 17.8232 18.4195 1.43243 -0.92919 -2.47466
30.5426 18.6059 20.1279 -0.171372 -0.480735 1.96233
30.2715 19.7768 17.5107 0.231649 -2.66071 -0.0469623
30.1919 17.0954 16.3192 1.13177 1.23725 1.60379
32.3776 17.878 18.0275 -2.42314 1.05464 -1.81958
34.5633 18.6607 19.7359 -1.34463 -2.84888 -1.25928
34.2922 19.8317 17.1187 2.38633 -1.97092 1.19927
9.91292 22.6014 16.1297 0.971999 0.0272806 1.91337
7.83468 20.811 20.2978 -0.67185 -3.47529 -2.79249
7.56355 21.982 17.6806 -2.68052 -0.181219 -1.75169
9.34499 24.1748 18.4771 0.74283 -1.11045 1.27349
6.99562 23.5554 20.028 -0.755143 1.12003 -2.11843
12.8046 20.8788 19.8132 0.557129 0.262912 0.260309
12.5334 22.0498 17.196 -2.49012 0.583961 0.796986
10.1841 21.4304 18.7469 -1.15427 -1.80689 -1.25429
11.9655 23.6232 19.5434 0.104945 -2.58729 1.29414
17.7745 20.9466 19.3287 1.06376 -0.122723 0.842024
17.5033 22.1175 16.7115 0.93155 -0.688104 1.14972
15.154 21.4982 18.2623 -0.824756 -0.123495 1.78497
16.9354 23.691 19.0589 -0.223274 -0.390537 0.0570519
20.1239 21.566 17.7778 1.09658 1.07012 0.396306
19.5559 23.1394 20.1252 -0.433075 -1.17587 -0.00434667
22.3096 22.3486 19.4861 0.765786 -0.89058 1.77616
22.0384 23.5196 16.8689 1.72037 -0.637739 0.0629523
24.4157 20.4498 20.003 -1.0803 -0.544341 0.423579
24.1446 21.6208 17.3858 -0.380661 -0.14858 2.94221
26.3303 22.4035 19.0941 -1.29897 -1.29133 -0.447366
26.0592 23.5744 16.4769 -1.67061 -1.10668 0.79044
28.4365 20.5047 19.611 -1.52392 0.457133 2.04213
28.1653 21.6756 16.9938 1.24376 -0.475558 1.37072
30.351 22.4583 18.7021 -1.8992 1.03252 0.618221
30.0799 23.6293 16.0849 1.76608 -0.821319 -1.2741
32.4572 20.5595 19.219 -0.325509 -2.30101 0.177552
32.186 21.7305 16.6018 1.42449 -0.491509 -1.2792
34.3718 22.5132 18.3101 -1.79415 -0.0689109 0.246323
6.72448 24.7264 17.4107 1.98874 -0.90399 0.136481
8.50593 26.9191 18.2073 -1.04306 -1.60463 2.101
6.15654 26.2998 19.7581 -0.337553 -1.14119 0.0858024
11.6944 24.7941 16.9262 0.942365 -0.786268 -0.986573
13.747 25.816 20.3399 0.738014 1.12387 0.0200743
13.4758 26.9869 17.7227 -1.58393 0.467376 0.534406
11.1264 26.3675 19.2736 -1.61634 1.43004 1.64117
10.8553 27.5385 16.6564 -0.124778 -1.11408 0.581371
16.6643 24.8619 16.4417 0.670495 -0.857576 1.01186
14.3149 24.2425 17.9925 1.21745 2.43419 -0.622208
16.0963 26.4353 18.789 -0.407215 -2.43129 -2.46907
15.8252 27.6063 16.1718 -0.482753 -0.81537 -0.49257
19.2848 24.3103 17.508 -2.75091 -1.76174 -0.274686
18.7169 25.8837 19.8554 0.097959 -0.358318 -0.472022
18.4457 27.0547 17.2382 -0.295217 -1.02929 0.821033
21.4705 25.093 19.2163 -0.918396 -0.440824 1.98923
21.1994 26.264 16.5991 -0.656679 0.0301082 0.488956
20.6314 27.8374 18.9465 1.16332 0.844112 -0.325619
24.2242 24.3023 18.5773 1.38904 -1.19789 -2.09519
23.3851 27.0467 18.3074 -0.334136 0.261845 -0.50612
26.4099 25.085 20.2856 0.751568 -0.5483 1.03216
26.1388 26.2559 17.6684 -2.33618 1.31189 0.618861
25.5708 27.8293 20.0158 -0.339616 0.459367 -0.527401
28.3245 27.0386 19.3767 0.28043 2.32199 -1.88297
28.2449 24.3571 18.1853 1.04373 0.921612 -0.797888
30.4306 25.1398 19.8936 0.747769 -0.615322 -0.90892
30.1595 26.3108 17.2764 -0.0605435 -0.737048 0.363824
32.3452 27.0934 18.9847 -1.0787 -0.919663 -0.193684
32.2656 24.412 17.7933 -0.180841 -0.0513067 -0.660502
34.4514 25.1946 19.5016 -1.64332 -0.765099 1.9102
34.1802 26.3656 16.8844 -0.289059 -0.367828 -0.122907
12.9079 28.5603 20.0701 0.86344 0.0375727 0.391518
12.6368 29.7313 17.4529 -1.16322 -0.441214 -1.30588
10.2874 29.1119 19.0038 -1.07454 -0.936849 -0.908274
12.0688 31.3047 19.8003 1.63936 -1.59458 -1.08127
17.8778 28.6281 19.5855 -0.823966 -1.78693 0.20925
17.6067 29.7991 16.9683 0.383357 0.0902467 -0.0459014
15.2573 29.1797 18.5192 0.765524 -0.731785 -1.00716
17.0387 31.3725 19.3157 1.23343 -0.644974 -0.169988
20.3603 29.0083 16.3293 -2.11046 0.886794 0.536017
19.7924 30.5818 18.6767 1.70128 -0.670311 2.2943
19.5212 31.7527 16.0595 0.270065 0.131486 -1.106
21.9781 31.3644 20.385 1.50688 -0.226104 -0.367053
22.546 29.791 18.0376 -1.02631 -1.29519 0.136787
25.2997 29.0003 17.3986 -0.15485 3.51149 -0.562256
24.7318 30.5737 19.746 -2.22058 -0.37104 1.18257
24.4606 31.7447 17.1288 0.340755 0.592678 0.88105
28.0534 28.2096 16.7595 1.20667 0.064291 -1.80653
27.4854 29.783 19.1069 -0.410042 -0.111593 -0.915478
27.2143 30.9539 16.4897 0.0671771 -1.05932 1.52234
30.2391 28.9922 18.4679 -1.11605 -0.0713251 -1.59691
29.4 31.7366 18.198 -0.164271 -2.35268 1.44085
32.0741 28.2644 16.3675 0.28798 -2.02441 -2.0349
16.7676 32.5434 16.6985 0.59403 -1.57122 0.535183
14.4182 31.9241 18.2494 -0.680678 1.26106 1.52415
16.1997 34.1169 19.0459 0.541042 -0.260222 0.650039
18.9533 33.3261 18.4069 0.296823 1.45372 0.442445
21.707 32.5354 17.7678 -0.311355 0.310966 -0.647216
21.139 34.1088 20.1152 -1.80719 1.06157 0.853134
23.8927 33.3181 19.4761 -0.0148553 -2.00066 0.124797
26.6464 32.5273 18.8371 -1.18146 -1.67944 -1.19247
17.8793 8.16277 24.6904 -0.453456 1.02984 -1.38446
16.9115 6.5684 22.4927 -0.601051 2.67956 0.431802
15.2588 8.71434 23.6241 -1.08361 -0.442689 -1.74243
14.2909 7.11998 21.4264 -0.968041 -0.220246 0.874619
22.5171 8.30145 22.6874 -0.671043 -0.40311 1.63214
19.7143 7.43493 22.5901 -0.802916 -0.791683 0.630986
21.5493 6.70708 20.4897 0.589846 -1.77903 -1.9745
24.3522 7.57361 20.587 0.633414 1.35924 -1.31551
27.155 8.44013 20.6844 -0.238568 1.08015 -1.3512
10.0178 9.8175 21.4914 -1.12667 0.515822 0.451006
8.36508 11.9634 22.6227 0.358114 0.291665 1.23931
13.6061 10.8603 24.7554 1.11858 -1.33406 -0.0352689
13.335 12.0312 22.1382 0.0795838 0.813649 2.08876
12.6383 9.26593 22.5577 -1.01172 -0.127243 -3.12
10.9856 11.4119 23.6891 0.152321 -0.35967 -1.07406
10.7145 12.5828 21.0719 1.24197 0.818155 0.225899
18.3049 12.099 21.6536 1.17954 0.501564 0.921642
17.6082 9.33372 22.0732 -0.529209 -0.59266 1.98121
15.9555 11.4797 23.2045 0.417928 1.07663 -0.642845
15.6844 12.6506 20.5873 -0.613914 0.152036 -1.62323
14.9876 9.8853 21.0069 -0.387146 -1.8327 -0.0862196
21.3789 11.7946 24.3682 2.5593 -0.348056 0.52542
18.576 10.9281 24.2709 1.63358 0.41745 2.14407
20.411 10.2002 22.1705 0.199182 0.130858 0.64549
24.1817 12.6611 24.4655 0.428342 0.491659 -2.43155
26.0167 11.9333 22.3651 0.762281 0.502922 0.261104
23.2139 11.0668 22.2678 0.734703 -1.78782 0.32868
25.32 9.16797 22.7847 0.776897 -0.189379 -1.14024
28.1228 10.0345 22.882 -0.167464 -1.82887 -0.714834
29.9578 9.30665 20.7817 -1.14498 1.84702 -0.314194
30.9257 10.901 22.9793 0.633057 0.868978 0.395059
10.0296 16.3231 24.4008 0.134095 1.25649 -1.12927
9.06179 14.7288 22.2032 1.18539 1.04292 0.641958
6.71241 14.1094 23.754 -0.591777 -1.32105 -0.409074
6.44127 15.2803 21.1368 1.82539 1.52758 0.154152
14.0317 14.7966 21.7186 2.25044 -0.861918 -0.711331
11.6823 14.1772 23.2695 0.958024 1.26214 1.05403
11.4112 15.3481 20.6523 0.444931 0.44569 -0.766363
16.6522 14.245 22.785 1.48634 -1.66614 1.49683
14.9995 16.3909 23.9163 0.205805 1.32959 0.901594
14.3028 13.6256 24.3358 0.94988 -1.15538 -0.414915
19.9694 16.4587 23.4318 -1.20004 -0.531636 -1.14069
22.0756 14.5599 23.9486 -2.10832 1.46388 -0.14233
21.8044 15.7309 21.3314 0.835256 -0.113445 0.272927
19.2727 13.6934 23.8513 -0.506618 0.566201 1.01626
19.0016 14.8644 21.2341 -0.757167 0.450083 0.131709
21.1077 12.9656 21.751 0.924805 0.285661 -1.98873
24.8784 15.4265 24.0459 -0.33316 -1.48806 0.443291
23.9106 13.8321 21.8483 0.138841 0.221603 1.15603
26.9846 13.5277 24.5628 -0.520304 2.60103 0.732736
26.7134 14.6986 21.9456 -0.605196 0.500352 1.74626
28.8991 15.4813 23.6539 -0.353903 -1.15975 -0.389511
28.8196 12.7998 22.4625 -0.470868 -1.3631 0.0822021
30.7341 14.7535 21.5536 -1.17474 -0.270531 -0.00341287
31.0053 13.5825 24.1708 -0.970816 0.457866 0.429268
32.9199 15.5361 23.2619 1.72559 -1.93881 0.0540177
32.8403 12.8547 22.0705 -0.703669 -0.184208 -0.111069
34.7549 14.8083 21.1616 0.101428 -0.702965 -0.972344
8.10582 19.6401 22.915 -1.0051 -0.93953 0.426617
9.7585 17.4941 21.7836 -0.935394 0.109251 -1.14262
7.40911 16.8747 23.3345 0.0628642 -1.05851 1.74699
7.13798 18.0457 20.7173 0.443917 0.61873 -1.52112
13.0757 19.7079 22.4304 0.642317 2.04986 -1.81215
10.7263 19.0885 23.9813 -0.33288 2.45683 0.958003
10.4552 20.2594 21.3641 0.840417 -1.18845 -0.842713
12.379 16.9425 22.85 0.52223 -0.14673 1.65632
18.3168 18.6047 24.5631 0.419634 0.0801956 -0.304721
18.0456 19.7756 21.9459 -1.02302 1.05554 -0.900726
15.6962 19.1563 23.4968 0.22158 -1.24513 0.782483
15.4251 20.3272 20.8795 0.0591153 -0.130206 -0.332078
17.3489 17.0103 22.3654 0.776218 -1.15478 0.426752
14.7284 17.5619 21.2991 -1.07953 -1.01711 -0.417608
20.6661 19.224 23.0122 -1.66482 1.39091 0.477222
20.395 20.395 20.395 0.468478 0.541914 -0.982501
22.5011 18.4962 20.9119 1.56439 0.109788 -0.810147
19.6983 17.6297 20.8145 0.580087 0.225665 1.83867
22.8519 20.0067 24.7205 1.11845 -0.480937 -1.05684
22.7723 17.3253 23.5291 -0.732019 -0.0154846 -1.72491
24.6869 19.2789 22.6202 0.517582 -0.637208 0.866021
24.6073 16.5974 21.4287 -0.0444276 -1.62519 -0.173804
26.5219 18.551 20.5199 -2.28619 -2.0389 1.27209
26.8726 20.0616 24.3285 0.686025 -0.114503 1.03064
26.793 17.3801 23.1371 -0.989452 -0.596708 -0.232241
28.7076 19.3337 22.2282 1.0858 1.23154 -0.0839493
28.628 16.6522 21.0367 0.0193731 0.832606 0.0430483
30.8137 17.4349 22.7451 -1.89022 -2.31942 1.79243
30.8933 20.1164 23.9365 0.11839 0.0402779 0.439538
32.9995 18.2176 24.4534 -0.176622 -0.534174 -1.78243
32.7283 19.3886 21.8362 -0.810593 1.0524 0.130517
32.6487 16.7071 20.6447 0.986702 -1.12356 -1.83557
34.9141 20.1713 23.5445 -0.95722 -0.18127 -0.626118
34.8345 17.4898 22.3531 0.536952 -0.814009 -1.51353
9.88727 21.8329 23.7115 0.798957 1.26622 -0.920225
9.61613 23.0038 21.0943 1.56151 0.584279 -0.382739
7.26676 22.3845 22.6452 0.686854 0.760331 1.67063
12.2366 22.4522 22.1606 1.84374 0.0852878 0.115721
11.6687 24.0256 24.508 -0.603011 0.660518 -0.296904
17.4777 21.3491 24.2933 -0.324223 -0.462466 -1.45621
17.2065 22.52 21.6761 0.855161 1.51804 -0.0284172
14.8572 21.9006 23.2269 -0.241219 -0.53345 0.37391
14.586 23.0716 20.6097 -1.57831 0.130817 -0.97943
16.6386 24.0934 24.0234 3.0396 -0.656325 0.370253
19.8271 21.9684 22.7424 0.0641861 0.363409 1.26231
22.0128 22.7511 24.4507 0.383658 0.761923 0.481814
21.7417 23.9221 21.8335 1.51558 1.02166 0.470238
22.5807 21.1777 22.1033 0.828596 2.03807 -0.241651
24.7664 21.9604 23.8117 1.12013 -0.0624338 0.00187982
24.4953 23.1313 21.1945 -0.405306 0.215843 -0.0153817
26.681 23.914 22.9028 0.142208 -0.863408 -0.264205
26.6015 21.2325 21.7113 0.111785 -0.931155 0.743209
28.7872 22.0152 23.4197 -0.311975 -0.191505 -0.174739
28.516 23.1862 20.8025 0.478974 -1.53772 -1.18385
30.7018 23.9689 22.5108 -0.918055 0.804706 -1.06742
30.6222 21.2874 21.3193 -1.83155 -0.703929 0.645811
32.8079 22.0701 23.0277 0.818032 0.796444 1.06652
32.5368 23.241 20.4105 -1.41253 1.73295 0.590677
34.9936 22.8527 24.736 2.54692 -0.37605 1.10528
34.7225 24.0237 22.1188 -0.455316 0.903679 -1.59479
34.6429 21.3422 20.9273 1.15736 1.61441 0.872536
9.04821 24.5772 23.4417 -3.43983 0.21246 -1.18045
8.77707 25.7482 20.8245 -0.52522 0.114346 0.79438
6.42768 25.1288 22.3753 -0.995133 1.27454 0.815627
8.20913 27.3216 23.1718 -0.802872 -1.57968 0.500781
14.0181 24.645 22.9571 -1.15937 1.05284 1.66734
11.3976 25.1966 21.8908 1.37497 0.140355 -0.882179
13.179 27.3894 22.6873 -0.776213 0.40168 1.95139
10.8297 26.77 24.2382 -1.9607 0.721098 0.143943
10.5585 27.941 21.621 -0.421543 -0.0669702 -0.522763
16.3675 25.2644 21.4062 0.461464 0.957978 0.217551
18.1489 27.4572 22.2028 0.871949 1.92954 0.62752
15.7995 26.8378 23.7536 -0.543893 0.714398 0.480075
15.5284 28.0087 21.1364 0.656651 0.013681 0.900809
18.988 24.7128 22.4726 0.693048 -0.59693 2.35526
21.1737 25.4955 24.1809 1.41725 0.153365 -1.17585
20.9026 26.6664 21.5637 -1.46343 0.27711 -1.17691
23.9274 24.7047 23.5419 -0.179555 -1.24678 -2.03988
23.6562 25.8757 20.9246 -0.676152 2.25794 -0.495498
23.0883 27.4491 23.272 -2.18081 0.247132 -0.576188
25.842 26.6584 22.633 1.68873 -0.146495 -0.642951
28.8668 24.6967 24.6111 -0.326297 -0.164798 -0.876123
28.5956 25.8677 21.9939 0.974399 0.465868 -1.07763
28.0277 27.4411 24.3413 -0.168605 0.245014 -2.10225
30.7814 26.6503 23.7023 0.166681 -1.23882 0.204959
30.5102 27.8213 21.0851 0.466587 1.4998 0.0697305
32.8875 24.7515 24.2191 0.18521 0.592724 1.42705
32.6164 25.9225 21.6019 0.226351 -0.9419 -0.0821614
7.93799 28.4926 20.5546 -1.07986 1.11596 -0.782917
9.99058 29.5144 23.9684 0.72381 -0.296736 -0.0533987
9.71945 30.6853 21.3512 0.036922 -1.32846 0.247258
12.34 30.1338 22.4175 0.418878 1.67977 -0.625774
17.581 29.0306 24.5501 -3.26028 -1.00989 0.387818
17.3099 30.2015 21.9329 1.62001 1.69941 -1.60478
14.9605 29.5822 23.4838 -0.206752 0.1355 -1.97702
14.6893 30.7531 20.8666 -1.6614 -0.62317 1.06976
16.7419 31.775 24.2803 -0.398624 -1.91374 -0.0293511
20.3347 28.2398 23.9111 0.242052 -0.212783 1.50284
20.0635 29.4108 21.2939 1.48703 0.024401 3.52274
19.4956 30.9842 23.6413 1.06817 0.787419 -1.50576
22.2492 30.1935 23.0022 1.9518 -1.42387 -1.52439
22.8172 28.6201 20.6548 -0.031954 0.755895 -1.52763
25.0029 29.4028 22.3632 -0.14193 1.30019 -0.204279
24.435 30.9762 24.7105 0.414883 0.324755 -0.777598
27.7566 28.612 21.7241 -1.09858 -1.01003 0.463128
27.1886 30.1854 24.0715 0.638224 -0.457125 1.79859
26.9175 31.3564 21.4543 0.88621 0.68161 -1.45272
29.9423 29.3947 23.4324 -0.294474 -0.985043 0.571959
29.6711 30.5657 20.8152 -0.140298 1.31616 0.418756
14.1214 32.3265 23.214 -2.47669 1.85033 -1.25375
13.8503 33.4975 20.5968 -0.0718916 -0.708138 -1.49205
11.5009 32.8781 22.1477 1.45518 -1.57702 0.271063
16.4708 32.9459 21.6631 -0.644838 0.392613 -2.18678
19.2244 32.1552 21.0241 -0.546427 -2.99399 -0.43765
18.6565 33.7286 23.3714 -0.39424 0.386168 1.40233
18.3854 34.8995 20.7542 -1.05472 0.0409821 -2.00562
21.4102 32.9379 22.7324 -0.317088 0.552531 -1.25288
20.5711 35.6822 22.4626 0.185911 -0.669043 -0.306367
24.1638 32.1471 22.0933 -2.27191 2.10318 0.541369
23.5959 33.7205 24.4407 -1.95273 -0.00549091 -0.793985
23.3248 34.8915 21.8235 0.376034 1.2159 -1.49909
26.3496 32.9298 23.8017 0.971547 0.618669 -0.960963
26.0784 34.1008 21.1845 -0.410886 0.399806 0.148499
29.1032 32.1391 23.1626 -0.391665 -0.582548 0.141584
28.8321 33.31 20.5454 -0.223016 -0.349178 0.265468
17.1945 11.9031 28.0194 1.68502 1.674 0.181682
16.2266 10.3087 25.8217 -0.377154 0.242834 -0.0710847
14.574 12.4547 26.953 -1.36169 1.00289 0.856356
19.815 11.3515 29.0857 -1.51439 -1.23158 0.291816
19.5438 12.5225 26.4685 0.0549466 -1.69393 -0.500237
21.65 10.6237 26.9854 1.2852 -0.107382 -0.125403
18.8472 9.75714 26.8881 4.40984 -0.918899 0.577657
20.6821 9.02929 24.7877 -0.86802 0.630023 1.32335
24.4528 11.4902 27.0827 0.0496553 0.954002 0.834924
26.2878 10.7623 24.9824 0.491543 1.15558 -0.817344
23.485 9.89582 24.885 2.08739 1.09935 1.50697
27.2557 12.3567 27.18 1.0958 1.56908 1.0826
29.0907 11.6289 25.0797 0.859179 -0.886662 2.89375
9.33293 13.5578 24.8204 -0.728525 -0.303349 0.339915
7.68025 15.7037 25.9517 0.939099 -0.360607 -0.249075
12.9213 14.6006 28.0844 -0.554032 1.648 -0.701166
12.6501 15.7716 25.4672 -0.130139 0.249244 -1.08106
11.9534 13.0062 25.8867 -0.138253 -0.440304 -0.295789