ITEM: TIMESTEP
0
ITEM: NUMBER OF ATOMS
7
ITEM: BOX BOUNDS ss ss ss
1.7905971622620378e+01 2.2449236204024931e+01
1.8211077172663110e+01 2.2557974832192652e+01
1.9082319312861973e+01 2.1707680817793836e+01
ITEM: ATOMS x y z vx vy vz
20.5306 19.8095 21.7036 0.607804 -0.672278 1.39678
20.2594 20.9805 19.0864 0.744763 -0.145315 0.342622
17.9101 20.3611 20.6373 1.81833 -0.848869 -0.103452
19.6915 22.5539 21.4338 0.0693603 1.37982 -1.21248
22.4452 21.7632 20.7947 -2.33532 -0.0561187 1.08869
22.3656 19.0817 19.6033 -0.679584 -0.824161 -1.64305
19.5627 18.2152 19.5059 -0.225349 1.16692 0.130892
ITEM: TIMESTEP
1000
ITEM: NUMBER OF ATOMS
7
ITEM: BOX BOUNDS ss ss ss
1.8460353539853323e+01 2.2664691444832656e+01
1.7872078649212344e+01 2.2255453915198181e+01
1.9399955524993576e+01 2.2014951822428692e+01
ITEM: ATOMS x y z vx vy vz
19.8529 20.3128 22.3017 -1.56543 0.207859 2.4396
19.5322 21.5572 19.1579 -0.472599 2.89885 -1.98243
18.6812 19.1957 20.2489 1.05989 -2.03493 -1.13741
20.6771 22.4849 21.4387 1.129 2.09883 2.50366
22.7997 21.7814 20.2894 -0.632834 -1.61993 -2.4419
21.1952 19.6503 19.9039 0.906578 1.78288 1.46614
20.0268 17.7827 19.4245 -0.424604 -3.33358 -0.847666
ITEM: TIMESTEP
2000
ITEM: NUMBER OF ATOMS
7
ITEM: BOX BOUNDS ss ss ss
1.8147913276484353e+01 2.1985229550387483e+01
1.8155528890120319e+01 2.2336163285067194e+01
1.9322742008342860e+01 2.1955659642135284e+01
ITEM: ATOMS x y z vx vy vz
18.5641 20.5223 21.8764 -4.79297 1.45969 0.350912
19.9941 20.4143 18.9005 0.475216 0.87981 -1.77616
18.0849 19.3141 19.7018 0.428818 0.779157 1.92191
21.2209 20.9671 21.7378 -1.2919 -2.18841 1.53264
22.0717 22.2855 20.12 0.308188 1.07663 0.0787339
22.3976 20.3007 19.8369 2.80362 0.228321 -4.08744
20.4316 18.9611 20.5916 2.06903 -2.2352 1.97941
ITEM: TIMESTEP
3000
ITEM: NUMBER OF ATOMS
7
ITEM: BOX BOUNDS ss ss ss
1.8281711558480403e+01 2.2306701596275644e+01
1.8054571884831496e+01 2.2666469080204543e+01
1.8964659936045976e+01 2.1453026563244123e+01
ITEM: ATOMS x y z vx vy vz
18.7333 21.6061 21.0379 2.28976 -1.95783 1.22064
20.1947 20.5349 18.6829 0.479238 -4.72362 0.241543
18.4528 19.4175 21.2892 2.99548 3.62896 -2.78793
20.9778 19.9991 21.923 -0.519856 -0.675712 0.84226
21.0371 22.2187 20.6853 -0.727258 -2.79452 -0.584783
22.4875 20.1571 19.5737 -1.29757 3.73404 1.28534
20.8818 18.8316 19.573 -3.2198 2.78869 -0.217069
ITEM: TIMESTEP
4000
ITEM: NUMBER OF ATOMS
7
ITEM: BOX BOUNDS ss ss ss
1.8679128272049237e+01 2.2591539089069844e+01
1.8710420693673367e+01 2.1909851747450890e+01
1.8512762117152132e+01 2.2435686702159401e+01
ITEM: ATOMS x y z vx vy vz
18.2476 22.0173 20.358 0.984872 -0.284543 0.499564
19.8576 20.812 18.849 0.247102 -1.15375 -3.60851
18.7471 19.655 21.3498 -0.85266 0.548055 1.5605
20.3689 19.8728 22.3852 -0.844039 -1.75766 -2.05853
21.377 21.2483 20.7439 1.70522 2.54938 2.897
22.8666 20.2228 19.0041 -0.597205 1.46963 -1.99011
21.3002 18.9368 20.0751 -0.64329 -1.37112 2.70008
ITEM: TIMESTEP
5000
ITEM: NUMBER OF ATOMS
7
ITEM: BOX BOUNDS ss ss ss
1.8696535461417245e+01 2.2367858302455875e+01
1.9158510040706258e+01 2.1788136128055424e+01
1.8558426702846912e+01 2.2492743115489908e+01
ITEM: ATOMS x y z vx vy vz
20.3575 22.0078 20.4185 1.83517 -2.91468 4.09951
19.2368 19.7947 18.9076 -1.41485 2.12822 -0.408602
18.8324 18.9008 21.0285 2.55769 -0.287005 -0.299304
19.6895 20.6152 22.2457 -3.41796 1.28068 -1.50529
21.8861 20.946 21.984 -0.134105 0.698258 -3.36919
21.4888 21.1747 18.356 -0.977388 -3.2325 0.971689
21.2739 19.3258 19.8247 1.55144 2.32702 0.511183
ITEM: TIMESTEP
6000
ITEM: NUMBER OF ATOMS
7
ITEM: BOX BOUNDS ss ss ss
1.8515269280501702e+01 2.2438118267559304e+01
1.8907702387792032e+01 2.2155214721394859e+01
1.9108785196307640e+01 2.1581795810087950e+01
ITEM: ATOMS x y z vx vy vz
20.235 22.1158 20.4605 -2.13624 -4.63332 0.0049824
18.6351 20.8905 19.1247 1.53351 -0.916427 1.53822
20.0073 19.1857 20.8224 -3.67835 -0.0794925 -0.00331105
18.4019 20.5893 21.9027 1.3274 2.79664 0.229599
22.1696 20.6847 21.6026 -0.400318 -0.153248 -0.899282
21.1762 20.3863 18.8021 3.32512 0.152684 1.21365
22.14 18.9125 20.05 0.0288706 2.83316 -2.08385
ITEM: TIMESTEP
7000
ITEM: NUMBER OF ATOMS
7
ITEM: BOX BOUNDS ss ss ss
1.8464430316237291e+01 2.2230610808950392e+01
1.8019102215962143e+01 2.2673414368056399e+01
1.8931745771638024e+01 2.1295201184122426e+01
ITEM: ATOMS x y z vx vy vz
19.9704 22.7412 20.6997 0.511877 -0.215338 -0.0794781
18.6135 21.6266 19.2896 0.747089 0.854056 -1.169
20.1036 18.0227 20.5611 0.52827 -2.94719 -3.16133
19.3221 19.9935 21.0479 -1.56081 2.12138 2.02221
21.8626 21.1548 21.4181 0.929308 1.6887 0.831669
20.4993 20.3014 18.97 -3.19637 -1.5147 0.269923
22.3936 18.9247 20.7785 2.04063 0.0130932 1.28601
ITEM: TIMESTEP
8000
ITEM: NUMBER OF ATOMS
7
ITEM: BOX BOUNDS ss ss ss
1.8534944305574694e+01 2.1955097741044895e+01
1.8685771275746671e+01 2.2244369794689472e+01
1.9057909013561233e+01 2.1845333776874121e+01
ITEM: ATOMS x y z vx vy vz
20.2048 22.2528 20.4036 1.18893 0.942996 1.20048
18.5751 20.273 19.2874 0.276075 3.12296 0.171685
19.2044 18.3441 19.1589 1.79813 -3.93705 1.19445
19.8992 20.599 22.0179 -0.898497 0.73308 1.24152
22.1437 21.6597 21.9529 -1.75935 0.0325972 -1.78895
21.3439 20.5229 19.1871 0.459273 2.45913 -1.32469
21.3939 19.1136 20.7572 -1.06455 -3.3537 -0.694495
ITEM: TIMESTEP
9000
ITEM: NUMBER OF ATOMS
7
ITEM: BOX BOUNDS ss ss ss
1.8515861898247714e+01 2.2586880132836388e+01
1.9203664589481928e+01 2.1723749013793714e+01
1.8561579120779001e+01 2.2250573695113495e+01
ITEM: ATOMS x y z vx vy vz
20.8898 21.5648 21.2176 2.62557 -2.59505 0.947504
18.4981 20.7182 19.2801 0.139981 1.0462 1.61502
20.4313 19.0736 19.5967 0.244309 -2.88914 0.154056
18.5597 20.0779 21.6021 -1.56772 -0.813241 -1.30244
22.5876 20.0983 20.2417 0.351017 3.00069 -2.95137
20.9089 21.5291 18.6785 0.739918 -1.70495 3.16176
20.8896 19.703 22.1483 -2.53307 3.95549 -1.62454
ITEM: TIMESTEP
10000
ITEM: NUMBER OF ATOMS
7
ITEM: BOX BOUNDS ss ss ss
1.8537271889565456e+01 2.2265201380766918e+01
1.9207306055016588e+01 2.1854506972801033e+01
1.8568036620727099e+01 2.2587932119811690e+01
ITEM: ATOMS x y z vx vy vz
20.5482 21.9467 21.3338 -0.271183 -1.43766 3.42551
19.0341 21.1664 19.4559 0.252586 -0.457835 -0.11175
19.7182 18.6426 19.0807 -1.25882 2.69059 1.33984
19.1754 19.5513 21.4764 -0.992567 -3.32393 -1.13708
21.9176 19.7993 20.0626 1.60761 -1.27618 -2.08743
21.2393 21.6688 18.735 1.15066 0.239861 -3.42633
21.1322 19.9899 22.6207 -0.488287 3.56514 1.99723
ITEM: TIMESTEP
11000
ITEM: NUMBER OF ATOMS
7
ITEM: BOX BOUNDS ss ss ss
1.9090209081596800e+01 2.1822459867093951e+01
1.9000779245364615e+01 2.1731258523853995e+01
1.8521191386879554e+01 2.2751208117176155e+01
ITEM: ATOMS x y z vx vy vz
20.4594 21.8696 21.3198 1.89548 0.698278 -0.189345
19.1103 21.1654 19.2583 -2.40614 -1.2379 -0.440271
19.8375 18.9903 18.7231 -2.33842 0.0760638 -2.32263
19.505 19.5712 21.6924 -1.01074 -0.572569 -0.447071
21.5284 19.7955 20.173 3.10457 2.69189 2.28676
21.296 21.5127 18.414 0.627669 -1.02226 -0.123276
21.0284 19.8603 23.1846 0.127587 -0.633509 1.23584
ITEM: TIMESTEP
12000
ITEM: NUMBER OF ATOMS
7
ITEM: BOX BOUNDS ss ss ss
1.8599855157595453e+01 2.2081035050759251e+01
1.8814012224273736e+01 2.2193475964844996e+01
1.8876348787965920e+01 2.1796310799900954e+01
ITEM: ATOMS x y z vx vy vz
19.4271 22.1853 21.3805 -1.53121 -0.274993 0.145636
18.6593 21.4531 19.4698 1.98353 -1.46371 -2.47801
20.0969 19.0533 18.8645 -1.28551 3.93582 -0.57086
19.4053 19.493 21.0613 1.09394 -1.60483 3.86414
22.0478 18.7706 20.5709 -0.74805 -2.22259 -1.55833
21.4468 21.3328 19.659 0.583788 -0.867658 0.170249
21.6818 20.4769 21.759 -0.0964798 2.49796 0.427179
ITEM: TIMESTEP
13000
ITEM: NUMBER OF ATOMS
7
ITEM: BOX BOUNDS ss ss ss
1.8599855157595453e+01 2.2081035050759251e+01
1.8814012224273736e+01 2.2193475964844996e+01
1.8876348787965920e+01 2.1796310799900954e+01
ITEM: ATOMS x y z vx vy vz
19.7565 22.4283 21.3351 0.346478 0.641589 -0.802556
18.5615 21.5464 19.6982 0.947872 -0.537636 0.211529
20.2732 18.7494 18.5864 0.309546 0.653527 -1.61684
19.4495 19.5195 20.7518 -0.667085 -2.45555 1.53097
22.0952 18.9337 20.5674 -2.14986 1.44401 -1.06505
21.2675 21.1245 19.4124 0.817072 -1.23558 2.6963
21.3616 20.4631 22.4138 0.39598 1.48963 -0.954354
ITEM: TIMESTEP
14000
ITEM: NUMBER OF ATOMS
7
ITEM: BOX BOUNDS ss ss ss
1.8599855157595453e+01 2.2081035050759251e+01
1.8814012224273736e+01 2.2193475964844996e+01
1.8876348787965920e+01 2.1796310799900954e+01
ITEM: ATOMS x y z vx vy vz
19.791 22.1299 21.4479 -2.68664 0.619453 -2.53616
18.9082 21.2828 19.3587 -0.0938339 -1.51519 4.01258
20.1175 18.8891 18.6033 -0.0646868 0.111365 1.25847
19.2732 19.6619 21.2135 -0.404568 2.61461 -0.25625
21.9889 19.0353 20.2139 0.517413 0.64925 -1.26066
21.3466 21.1929 19.5246 3.51069 0.164244 -0.579294
21.3395 20.5729 22.4031 -0.778383 -2.64374 -0.638681
ITEM: TIMESTEP
15000
ITEM: NUMBER OF ATOMS
7
ITEM: BOX BOUNDS ss ss ss
1.8599855157595453e+01 2.2081035050759251e+01
1.8814012224273736e+01 2.2193475964844996e+01
1.8876348787965920e+01 2.1796310799900954e+01
ITEM: ATOMS x y z vx vy vz
19.7236 22.4074 21.2046 -1.14327 1.87879 -0.250365
18.8317 21.2263 19.3046 0.209507 -1.04878 0.313973
20.039 19.1327 18.5804 -1.96653 -0.735886 0.673025
19.4273 19.6039 21.3485 -1.10332 1.29622 -1.29873
22.003 18.9822 20.5447 3.2412 -1.54762 1.1003
21.3578 21.1541 19.5866 0.497182 2.49362 0.365699
21.3826 20.2584 22.1956 0.265229 -2.33633 -0.903897
ITEM: TIMESTEP
16000
ITEM: NUMBER OF ATOMS
7
ITEM: BOX BOUNDS ss ss ss
1.8758333908797589e+01 2.1802562147281225e+01
1.8786316595251140e+01 2.2311933307060848e+01
1.8736676642967584e+01 2.2201655707108518e+01
ITEM: ATOMS x y z vx vy vz
19.5779 22.2497 21.1953 0.757199 -1.83681 -2.94051
18.7418 21.0305 19.0622 -0.681332 0.714448 -0.0945084
20.2259 19.1622 18.825 -0.0347214 0.305857 1.47832
19.4387 19.707 21.2709 -1.77177 0.308689 1.06918
21.7793 18.8981 20.6584 1.42198 1.65143 0.277913
21.1912 21.47 19.6531 0.0648145 0.810958 1.9531
21.8102 20.2475 22.1001 0.243827 -1.95457 -1.7435
ITEM: TIMESTEP
17000
ITEM: NUMBER OF ATOMS
7
ITEM: BOX BOUNDS ss ss ss
1.8758333908797589e+01 2.1802562147281225e+01
1.8786316595251140e+01 2.2311933307060848e+01
1.8736676642967584e+01 2.2201655707108518e+01
ITEM: ATOMS x y z vx vy vz
19.4696 22.3796 21.0158 1.75659 -0.470974 0.425187
18.884 21.072 19.0601 0.332917 0.908077 -0.417459
20.0048 19.1678 18.8882 -0.842991 -1.95575 1.12855
19.5749 19.349 21.1995 1.86103 -0.915801 -1.38419
21.9197 18.8113 20.6827 -0.871229 -0.0754671 -0.494152
21.2854 21.2985 19.7996 -0.469277 0.922169 2.04175
21.6267 20.6868 22.1191 -1.76704 1.58775 -1.29969
ITEM: TIMESTEP
18000
ITEM: NUMBER OF ATOMS
7
ITEM: BOX BOUNDS ss ss ss
1.8758333908797589e+01 2.1802562147281225e+01
1.8786316595251140e+01 2.2311933307060848e+01
1.8736676642967584e+01 2.2201655707108518e+01
ITEM: ATOMS x y z vx vy vz
19.8824 22.2346 21.2406 -0.300637 1.91106 1.86749
18.8531 20.9809 19.1532 1.25895 0.0359181 -0.0380098
20.2892 18.8085 18.6897 -0.365496 -0.898519 2.8102
19.3844 19.5262 21.181 -0.0875378 -2.11487 -2.72831
21.6912 18.9506 20.4662 -0.798038 -0.179589 -1.20346
21.2456 21.2867 19.6691 -0.153865 0.718303 -2.27843
21.4191 20.9776 22.3651 0.446626 0.527699 1.57052
ITEM: TIMESTEP
19000
ITEM: NUMBER OF ATOMS
7
ITEM: BOX BOUNDS ss ss ss
1.8758333908797589e+01 2.1802562147281225e+01
1.8786316595251140e+01 2.2311933307060848e+01
1.8736676642967584e+01 2.2201655707108518e+01
ITEM: ATOMS x y z vx vy vz
19.8059 22.1062 21.3151 -1.63376 0.138668 -1.37815
18.7652 21.3082 19.205 0.148021 0.756198 -0.696829
20.2446 18.919 18.83 -1.57606 1.20285 1.72534
19.5163 19.4123 21.1329 2.1235 -0.813723 0.253505
21.8632 18.8674 20.6592 0.536375 -1.03268 0.704817
21.1791 21.3251 19.5543 0.507161 1.26456 0.00342967
21.3907 20.8267 22.0686 -0.105239 -1.51588 -0.612119
ITEM: TIMESTEP
20000
ITEM: NUMBER OF ATOMS
7
ITEM: BOX BOUNDS ss ss ss
1.8758333908797589e+01 2.1802562147281225e+01
1.8786316595251140e+01 2.2311933307060848e+01
1.8736676642967584e+01 2.2201655707108518e+01
ITEM: ATOMS x y z vx vy vz
19.5394 22.2549 21.0626 0.381903 -0.706777 0.427098
18.636 20.9875 19.062 1.01448 -1.00428 -0.817025
19.9683 19.4242 18.7415 0.206819 -0.478921 -1.83049
19.5346 19.6297 21.3157 0.413895 1.85735 0.848545
21.952 18.7866 20.5387 -1.38905 0.438575 0.113852
21.3161 21.2477 19.8581 -2.02992 0.312601 1.48768
21.8186 20.4345 22.1864 1.40188 -0.418546 -0.229662
ITEM: TIMESTEP
21000
ITEM: NUMBER OF ATOMS
7
ITEM: BOX BOUNDS ss ss ss
1.8758333908797589e+01 2.1802562147281225e+01
1.8786316595251140e+01 2.2311933307060848e+01
1.8736676642967584e+01 2.2201655707108518e+01
ITEM: ATOMS x y z vx vy vz
19.6635 22.1988 21.4401 0.0991147 -0.530213 0.15411
19.0151 20.9651 19.2772 1.50041 0.608914 2.32812
20.0497 19.137 18.4463 0.40984 -0.431359 -2.06041
19.3031 19.613 21.3531 -1.77907 -0.436718 0.915425
21.6341 18.9723 20.4701 0.411069 0.302985 1.18674
21.3985 21.3767 19.7203 -0.0101519 -0.209582 -1.15919
21.701 20.5021 22.0579 -0.631215 0.695973 -1.36479
ITEM: TIMESTEP
22000
ITEM: NUMBER OF ATOMS
7
ITEM: BOX BOUNDS ss ss ss
1.8758333908797589e+01 2.1802562147281225e+01
1.8786316595251140e+01 2.2311933307060848e+01
1.8736676642967584e+01 2.2201655707108518e+01
ITEM: ATOMS x y z vx vy vz
19.6713 22.3035 21.5018 0.550234 -0.962974 -0.00990722
18.9003 21.3213 19.4377 -1.10694 0.497399 -1.49045
19.9477 18.7983 18.68 0.360534 1.24447 -0.0592998
19.5042 19.5714 20.9766 0.838545 0.52705 0.38082
21.7068 18.868 20.2338 0.234905 -1.89333 -0.576347
21.4518 21.3008 19.8036 -1.37483 -0.885895 0.562927
21.5829 20.6017 22.1316 0.497551 1.47328 1.19226
ITEM: TIMESTEP
23000
ITEM: NUMBER OF ATOMS
7
ITEM: BOX BOUNDS ss ss ss
1.8758333908797589e+01 2.1802562147281225e+01
1.8786316595251140e+01 2.2311933307060848e+01
1.8736676642967584e+01 2.2201655707108518e+01
ITEM: ATOMS x y z vx vy vz
19.7264 22.0365 21.3458 -0.419879 0.0733641 0.70615
18.6625 21.2866 19.1344 -0.289149 -0.0507691 -0.306206
19.8325 19.3689 18.9909 0.936718 0.569237 0.290381
19.4126 19.4369 21.2248 1.41395 0.198637 0.264516
21.8219 18.8012 20.3393 -1.1934 1.17964 0.89822
21.6776 21.2736 19.6887 0.254143 -0.553173 -1.54858
21.6314 20.5613 22.0411 -0.702383 -1.41693 -0.304486
ITEM: TIMESTEP
24000
ITEM: NUMBER OF ATOMS
7
ITEM: BOX BOUNDS ss ss ss
1.8758333908797589e+01 2.1802562147281225e+01
1.8786316595251140e+01 2.2311933307060848e+01
1.8736676642967584e+01 2.2201655707108518e+01
ITEM: ATOMS x y z vx vy vz
19.6735 22.1012 21.5143 -1.06526 1.94607 1.77137
18.9252 21.305 19.3458 0.337971 -1.70658 1.59908
19.9852 19.1322 18.6365 1.54066 -0.635945 -1.15313
19.5556 19.5952 21.1218 0.171937 1.05662 -0.0937465
21.6674 18.8197 20.3464 -1.72907 1.26656 0.93472
21.3451 21.1651 19.5848 0.86293 -0.0849635 -2.42451
21.613 20.6467 22.2154 -0.119162 -1.84178 -0.633778
ITEM: TIMESTEP
25000
ITEM: NUMBER OF ATOMS
7
ITEM: BOX BOUNDS ss ss ss
1.8758333908797589e+01 2.1802562147281225e+01
1.8786316595251140e+01 2.2311933307060848e+01
1.8736676642967584e+01 2.2201655707108518e+01
ITEM: ATOMS x y z vx vy vz
19.7525 22.1736 21.5053 -0.912935 -0.728156 -0.815502
18.8693 21.1026 19.3264 -2.65745 -0.587879 -0.30313
20.0495 19.2149 18.6807 0.816902 1.83749 1.20373
19.3371 19.7278 21.2583 1.84368 1.92601 -0.405638
21.7977 18.8287 20.3404 -0.222965 -1.40243 -0.907528
21.4261 21.2487 19.6136 1.10748 -0.581421 -0.764756
21.5328 20.4686 22.0402 0.0252878 -0.463608 1.99282
ITEM: TIMESTEP
26000
ITEM: NUMBER OF ATOMS
7
ITEM: BOX BOUNDS ss ss ss
1.8758333908797589e+01 2.1802562147281225e+01
1.8786316595251140e+01 2.2311933307060848e+01
1.8736676642967584e+01 2.2201655707108518e+01
ITEM: ATOMS x y z vx vy vz
19.6482 21.9804 21.2451 0.0560681 -0.149836 0.592883
18.6338 21.3551 19.1984 -0.310955 0.51156 1.408
20.1077 19.3606 18.6603 0.721707 0.134931 -0.273716
19.5638 19.536 21.4237 0.549366 -0.784011 -0.372582
21.8044 18.8462 20.3478 -0.512938 -0.728624 0.313966
21.4803 21.1615 19.6384 1.03661 -0.290188 -2.03201
21.5269 20.5252 22.2513 -1.53986 1.30617 0.36346
ITEM: TIMESTEP
27000
ITEM: NUMBER OF ATOMS
7
ITEM: BOX BOUNDS ss ss ss
1.8758333908797589e+01 2.1802562147281225e+01
1.8786316595251140e+01 2.2311933307060848e+01
1.8736676642967584e+01 2.2201655707108518e+01
ITEM: ATOMS x y z vx vy vz
19.765 22.1465 21.6672 0.372356 0.0319107 0.116967
18.896 21.2438 19.3288 -0.0312727 -1.087 0.916653
20.2002 19.1006 18.4771 0.261009 0.128922 -0.655137
19.4155 19.6445 21.2511 0.260468 0.570058 -0.191541
21.7843 18.8088 20.3942 -0.875634 1.13071 1.53886
21.2254 21.0965 19.5278 0.524619 0.30241 0.95515
21.4786 20.7244 22.1187 -0.511546 -1.07702 -2.68095
ITEM: TIMESTEP
28000
ITEM: NUMBER OF ATOMS
7
ITEM: BOX BOUNDS ss ss ss
1.8758333908797589e+01 2.1802562147281225e+01
1.8786316595251140e+01 2.2311933307060848e+01
1.8736676642967584e+01 2.2201655707108518e+01
ITEM: ATOMS x y z vx vy vz
19.6828 22.1022 21.2548 0.131194 -1.30917 -1.50157
18.6847 21.2059 19.3251 -2.03262 0.434781 0.0378627
20.0895 19.3855 18.6002 -0.788102 1.23179 0.313767
19.3741 19.6192 21.2538 2.67328 0.235539 -1.29783
21.7961 18.792 20.5163 -0.538701 -0.890078 1.48667
21.397 21.2052 19.6803 0.768811 -0.134288 1.74271
21.7409 20.4549 22.1346 -0.213863 0.431432 -0.78161
ITEM: TIMESTEP
29000
ITEM: NUMBER OF ATOMS
7
ITEM: BOX BOUNDS ss ss ss
1.8758333908797589e+01 2.1802562147281225e+01
1.8786316595251140e+01 2.2311933307060848e+01
1.8736676642967584e+01 2.2201655707108518e+01
ITEM: ATOMS x y z vx vy vz
19.6885 22.0789 21.3408 2.23026 -0.682379 -0.0186482
18.7308 21.3833 19.286 -0.0709361 -0.832048 0.690623
20.0465 19.3046 18.7371 0.824994 -0.934232 0.56189
19.5813 19.3805 21.2141 -0.94938 -0.8881 -0.509267
21.7855 18.6487 20.4843 -1.54191 -0.221924 -1.30036
21.4041 21.1908 19.5775 0.500029 1.45027 1.19909
21.5282 20.7782 22.1252 -0.993065 2.10842 -0.62332
ITEM: TIMESTEP
30000
ITEM: NUMBER OF ATOMS
7
ITEM: BOX BOUNDS ss ss ss
1.8758333908797589e+01 2.1802562147281225e+01
1.8786316595251140e+01 2.2311933307060848e+01
1.8736676642967584e+01 2.2201655707108518e+01
ITEM: ATOMS x y z vx vy vz
19.6621 22.1965 21.475 0.0445947 -0.231243 -1.03685
18.8603 21.0902 19.181 -0.986293 -0.848948 -0.47866
20.1339 19.046 18.6961 -0.328433 -0.0681 -0.261417
19.3885 19.5843 21.0663 -0.854448 0.834834 -0.0901533
21.7051 18.8341 20.4503 0.334506 1.4422 0.626869
21.2487 21.3447 19.7993 0.599331 0.168752 2.42927
21.7663 20.6693 22.097 1.19074 -1.29749 -1.18906
ITEM: TIMESTEP
31000
ITEM: NUMBER OF ATOMS
7
ITEM: BOX BOUNDS ss ss ss
1.8758333908797589e+01 2.1802562147281225e+01
1.8786316595251140e+01 2.2311933307060848e+01
1.8736676642967584e+01 2.2201655707108518e+01
ITEM: ATOMS x y z vx vy vz
19.5886 22.1621 21.3362 0.33802 -0.350122 0.084047
18.7628 21.136 19.2349 -0.0408432 1.03521 1.2779
20.0229 19.2217 18.7203 0.657746 -0.289445 0.786472
19.3719 19.4487 21.0497 0.610838 0.0451946 -1.27411
21.9025 18.8161 20.6418 -0.12095 0.30837 -1.08764
21.4161 21.1912 19.7189 -0.104251 -2.30742 0.098362
21.7003 20.7892 22.0632 -1.34056 1.55821 0.114962
ITEM: TIMESTEP
32000
ITEM: NUMBER OF ATOMS
7
ITEM: BOX BOUNDS ss ss ss
1.8758333908797589e+01 2.1802562147281225e+01
1.8786316595251140e+01 2.2311933307060848e+01
1.8736676642967584e+01 2.2201655707108518e+01
ITEM: ATOMS x y z vx vy vz
19.6195 22.085 21.434 0.102002 -0.555503 -0.591049
18.7981 21.153 19.2883 1.03015 -0.80038 -1.00725
20.2653 18.9708 18.6852 1.51604 1.20119 1.13252
19.3103 19.5923 21.0818 -0.746202 1.04095 1.90151
21.7929 18.8933 20.5003 -0.841115 1.10283 -0.967103
21.4009 21.1829 19.6099 -1.64134 -0.205522 -0.780123
21.578 20.8879 22.1655 0.580458 -1.78357 0.31149
ITEM: TIMESTEP
33000
ITEM: NUMBER OF ATOMS
7
ITEM: BOX BOUNDS ss ss ss
1.8758333908797589e+01 2.1802562147281225e+01
1.8786316595251140e+01 2.2311933307060848e+01
1.8736676642967584e+01 2.2201655707108518e+01
ITEM: ATOMS x y z vx vy vz
19.5454 22.1098 21.3123 0.264557 1.376 -0.225737
18.7874 21.0344 19.0042 1.13982 -0.0364347 0.100727
20.1183 19.1198 18.7377 -0.636774 1.76742 -0.41159
19.4719 19.6858 21.2304 1.68207 -1.36859 0.57354
21.9957 18.9201 20.6129 0.954497 -1.08473 0.872728
21.303 21.2127 19.7002 -1.99041 -0.761622 -0.984821
21.5434 20.6824 22.1672 -1.41377 0.107955 0.0751531
ITEM: TIMESTEP
34000
ITEM: NUMBER OF ATOMS
7
ITEM: BOX BOUNDS ss ss ss
1.8758333908797589e+01 2.1802562147281225e+01
1.8786316595251140e+01 2.2311933307060848e+01
1.8736676642967584e+01 2.2201655707108518e+01
ITEM: ATOMS x y z vx vy vz
19.6052 22.1621 21.3145 0.832022 0.225802 -1.04541
18.8728 21.215 19.2412 0.880582 -0.00348869 0.274017
20.2761 18.9622 18.7299 0.446364 -1.00126 -0.655261
19.5542 19.4381 21.1907 -0.743833 -0.166192 0.0972257
21.8363 18.9463 20.6383 0.0311839 -0.17796 0.182067
21.3353 21.1663 19.4399 -2.13862 1.45878 0.653635
21.2851 20.8749 22.2105 0.692302 -0.335688 0.49373
ITEM: TIMESTEP
35000
ITEM: NUMBER OF ATOMS
7
ITEM: BOX BOUNDS ss ss ss
1.8758333908797589e+01 2.1802562147281225e+01
1.8786316595251140e+01 2.2311933307060848e+01
1.8736676642967584e+01 2.2201655707108518e+01
ITEM: ATOMS x y z vx vy vz
19.5508 22.1276 21.1139 1.02668 -0.522636 -1.22936
18.7804 21.003 18.9683 -0.578067 -0.784164 -0.0219194
20.2384 19.0464 18.8792 -0.876284 1.48224 0.236788
19.5139 19.55 21.2058 0.0390841 -0.333064 0.0836995
21.8403 18.9008 20.7105 0.664697 -0.332927 0.374795
21.26 21.4185 19.6851 0.426235 0.241322 1.87753
21.5811 20.7188 22.2021 -0.702348 0.249232 -1.32153
ITEM: TIMESTEP
36000
ITEM: NUMBER OF ATOMS
7
ITEM: BOX BOUNDS ss ss ss
1.8758333908797589e+01 2.1802562147281225e+01
1.8786316595251140e+01 2.2311933307060848e+01
1.8736676642967584e+01 2.2201655707108518e+01
ITEM: ATOMS x y z vx vy vz
19.5176 22.2002 21.2634 0.305456 -0.715859 0.69607
18.828 21.0304 19.122 0.417785 -0.130943 1.35216
20.2144 18.9872 18.7889 1.35366 -0.335365 -0.623416
19.5759 19.4324 21.0442 -0.322212 1.20546 -0.72292
21.9359 18.8627 20.699 -1.21866 1.46632 -0.23966
21.3797 21.214 19.6699 -0.476086 -2.07341 0.551038
21.3135 21.0381 22.1776 -0.0599426 0.583791 -1.01328
ITEM: TIMESTEP
37000
ITEM: NUMBER OF ATOMS
7
ITEM: BOX BOUNDS ss ss ss
1.8758333908797589e+01 2.1802562147281225e+01
1.8786316595251140e+01 2.2311933307060848e+01
1.8736676642967584e+01 2.2201655707108518e+01
ITEM: ATOMS x y z vx vy vz
19.4951 22.1051 21.1353 -1.04735 -1.05323 -0.667945
18.916 20.9217 19.0954 -0.852113 -0.521222 -0.0929063
20.3096 18.8835 18.7788 1.1478 1.14694 0.390261
19.3659 19.5903 21.1783 -0.188666 2.46444 1.17448
21.8467 19.106 20.6571 -0.156289 0.577487 -0.518721
21.3621 21.3304 19.6585 0.730821 -0.996076 0.0389415
21.4696 20.828 22.2616 0.365803 -1.61835 -0.324111
ITEM: TIMESTEP
38000
ITEM: NUMBER OF ATOMS
7
ITEM: BOX BOUNDS ss ss ss
1.8758333908797589e+01 2.1802562147281225e+01
1.8786316595251140e+01 2.2311933307060848e+01
1.8736676642967584e+01 2.2201655707108518e+01
ITEM: ATOMS x y z vx vy vz
19.3432 22.1123 21.1532 1.14948 -0.717919 1.1191
18.8716 20.9363 18.9956 -0.760475 0.633298 0.315459
20.2942 19.0513 18.8696 0.880363 0.257572 -0.935454
19.4683 19.6862 21.241 -0.518211 0.125055 0.824326
22.0644 18.9077 20.6353 0.70575 -0.214877 0.523615
21.3935 21.2079 19.6749 0.400524 -0.929975 -2.02108
21.3297 20.8633 22.1953 -1.85743 0.846846 0.174034
ITEM: TIMESTEP
39000
ITEM: NUMBER OF ATOMS
7
ITEM: BOX BOUNDS ss ss ss
1.8758333908797589e+01 2.1802562147281225e+01
1.8786316595251140e+01 2.2311933307060848e+01
1.8736676642967584e+01 2.2201655707108518e+01
ITEM: ATOMS x y z vx vy vz
19.5085 22.11 21.2842 -0.0462596 -0.28832 -1.28164
18.853 20.9663 19.0793 0.196163 -0.0720059 0.84963
20.424 18.9237 18.7435 0.211668 -0.0425172 -0.996298
19.3965 19.6542 21.154 0.0439686 0.578112 0.487125
21.9552 19.1414 20.7917 -0.152577 0.0760178 0.817373
21.3144 21.0389 19.3728 -0.629492 0.493531 -0.086229
21.3135 20.9306 22.3396 0.376529 -0.744817 0.21004
ITEM: TIMESTEP
40000
ITEM: NUMBER OF ATOMS
7
ITEM: BOX BOUNDS ss ss ss
1.8758333908797589e+01 2.1802562147281225e+01
1.8786316595251140e+01 2.2311933307060848e+01
1.8736676642967584e+01 2.2201655707108518e+01
ITEM: ATOMS x y z vx vy vz
19.3243 22.1958 21.027 0.728057 0.409626 -0.565658
18.897 20.8871 19.0203 0.0690581 -0.798382 0.656381
20.4278 19.0526 18.8328 -0.356866 0.999728 1.20915
19.5417 19.6164 21.3259 1.44367 -0.497284 -1.13939
21.9239 18.9303 20.765 -0.35639 -1.19969 -0.367638
21.3427 21.2276 19.5996 -0.348532 0.51205 0.83581
21.3077 20.8552 22.1944 -1.179 0.573956 -0.628657
ITEM: TIMESTEP
41000
ITEM: NUMBER OF ATOMS
7
ITEM: BOX BOUNDS ss ss ss
1.8758333908797589e+01 2.1802562147281225e+01
1.8786316595251140e+01 2.2311933307060848e+01
1.8736676642967584e+01 2.2201655707108518e+01
ITEM: ATOMS x y z vx vy vz
19.5385 22.1087 21.1381 0.228017 0.421843 -0.255222
18.7995 20.9381 18.9925 -0.672107 -0.916382 0.565637
20.4982 18.916 18.8673 -0.447785 0.49212 0.427862
19.4502 19.4552 21.0753 -0.214406 -0.895533 -2.49926
21.8769 19.0085 20.8817 -0.828055 1.143 1.33286
21.2811 21.2218 19.6025 0.266143 0.0826684 0.833434
21.3207 21.1167 22.2076 1.66819 -0.327714 -0.405302
ITEM: TIMESTEP
42000
ITEM: NUMBER OF ATOMS
7
ITEM: BOX BOUNDS ss ss ss
1.8758333908797589e+01 2.1802562147281225e+01
1.8786316595251140e+01 2.2311933307060848e+01
1.8736676642967584e+01 2.2201655707108518e+01
ITEM: ATOMS x y z vx vy vz
19.4436 22.1702 20.9471 -1.08372 1.03278 0.178271
18.7651 20.7705 19.0367 -0.590662 -0.883215 0.420695
20.4033 18.9342 18.7745 -0.194985 0.351867 -0.0144883
19.4136 19.5932 21.0737 -0.114716 -0.124821 -0.659172
21.9429 19.0811 21.0042 0.108795 -0.939247 -0.872768
21.3884 21.2758 19.6666 1.79 -0.661718 1.85744
21.408 20.9399 22.2623 0.0852919 1.22436 -0.909974
ITEM: TIMESTEP
43000
ITEM: NUMBER OF ATOMS
7
ITEM: BOX BOUNDS ss ss ss
1.8783049340007949e+01 2.1945009232470145e+01
1.8813337731783669e+01 2.2179300150410569e+01
1.8835778808094862e+01 2.2191618645357114e+01
ITEM: ATOMS x y z vx vy vz
19.4342 22.2163 20.9701 -0.124124 -0.695094 -0.0253438
18.7524 20.7561 19.1008 -0.648357 0.122466 -0.0586234
20.4988 18.9353 18.7916 0.730247 0.0352611 -0.284768
19.4415 19.5044 21.1213 -0.696324 0.372814 0.218935
21.9654 18.8872 20.7601 -0.0466635 -0.54442 -0.104383
21.5006 21.1752 19.8055 0.360317 0.046152 -0.854219
21.172 21.2904 22.2156 0.424905 0.662821 1.1084
ITEM: TIMESTEP
44000
ITEM: NUMBER OF ATOMS
7
ITEM: BOX BOUNDS ss ss ss
1.8783049340007949e+01 2.1945009232470145e+01
1.8813337731783669e+01 2.2179300150410569e+01
1.8835778808094862e+01 2.2191618645357114e+01
ITEM: ATOMS x y z vx vy vz
19.408 22.1044 20.9331 -0.519518 -0.220887 0.364812
18.693 20.6832 18.9723 1.24984 -0.515549 -0.155413
20.5683 18.9714 18.8828 -0.527507 0.224806 -0.67573
19.3484 19.6778 21.0953 0.334604 1.39692 0.355821
21.9432 19.1132 20.9928 0.446578 -0.396215 1.44985
21.3861 21.2433 19.671 -1.13194 0.714141 -1.28467
21.4181 20.9717 22.2178 0.14794 -1.20321 -0.0546637
ITEM: TIMESTEP
45000
ITEM: NUMBER OF ATOMS
7
ITEM: BOX BOUNDS ss ss ss
1.8783049340007949e+01 2.1945009232470145e+01
1.8813337731783669e+01 2.2179300150410569e+01
1.8835778808094862e+01 2.2191618645357114e+01
ITEM: ATOMS x y z vx vy vz
19.3845 22.2418 20.9958 0.53185 -0.716716 -0.491413
18.8711 20.6983 18.9649 0.510936 1.53625 -0.0768975
20.5771 18.9387 18.8019 0.716419 -0.890449 0.434934
19.4967 19.6124 21.28 1.68804 -0.625872 1.02692
21.9461 19.0111 20.9552 -1.33095 -0.329528 -1.25747
21.3487 21.1367 19.5991 -0.984591 0.0933888 -0.569745
21.1408 21.1261 22.168 -1.13171 0.932923 0.933668
ITEM: TIMESTEP
46000
ITEM: NUMBER OF ATOMS
7
ITEM: BOX BOUNDS ss ss ss
1.8783049340007949e+01 2.1945009232470145e+01
1.8813337731783669e+01 2.2179300150410569e+01
1.8835778808094862e+01 2.2191618645357114e+01
ITEM: ATOMS x y z vx vy vz
19.36 22.1251 20.8763 0.256197 0.583015 0.198859
18.8368 20.744 18.9158 0.125139 -0.205108 -1.48055
20.6322 18.8556 18.897 -0.12771 -0.0779851 1.55407
19.4803 19.5662 21.2641 0.257579 -0.25344 -0.0762706
21.8649 19.0228 21.001 -0.259574 1.0198 0.515838
21.3019 21.2941 19.5233 -1.06794 0.985848 0.788792
21.2889 21.1571 22.2874 0.816314 -2.05213 -1.50074
ITEM: TIMESTEP
47000
ITEM: NUMBER OF ATOMS
7
ITEM: BOX BOUNDS ss ss ss
1.8783049340007949e+01 2.1945009232470145e+01
1.8813337731783669e+01 2.2179300150410569e+01
1.8835778808094862e+01 2.2191618645357114e+01
ITEM: ATOMS x y z vx vy vz
19.2616 22.233 20.9315 -0.0307701 0.19603 1.35442
18.938 20.6496 18.9122 -0.123091 0.317728 -0.591932
20.6001 18.8876 18.9786 -0.605291 -1.35835 0.764198
19.4108 19.551 21.2141 -0.272822 -0.63419 -0.689957
22.0276 18.9159 21.1035 0.455187 0.150623 -0.409379
21.2338 21.3659 19.5733 1.21375 0.466882 0.694786
21.2931 21.162 22.0518 -0.636963 0.861276 -1.12213
ITEM: TIMESTEP
48000
ITEM: NUMBER OF ATOMS
7
ITEM: BOX BOUNDS ss ss ss
1.8783049340007949e+01 2.1945009232470145e+01
1.8813337731783669e+01 2.2179300150410569e+01
1.8835778808094862e+01 2.2191618645357114e+01
ITEM: ATOMS x y z vx vy vz
19.3361 22.0504 20.912 -0.864178 -1.49111 -0.426186
18.9328 20.7091 18.881 -0.459236 0.896534 0.291489
20.5558 18.7294 18.962 -0.688742 -0.757076 -0.0947164
19.4225 19.4797 21.0735 -1.4576 1.03437 -0.830291
21.9052 19.193 21.1005 1.68222 1.76032 0.19551
21.2948 21.2592 19.6097 1.06903 -1.00518 0.0119466
21.3177 21.3442 22.2263 0.718513 -0.437865 0.852247
ITEM: TIMESTEP
49000
ITEM: NUMBER OF ATOMS
7
ITEM: BOX BOUNDS ss ss ss
1.8783049340007949e+01 2.1945009232470145e+01
1.8813337731783669e+01 2.2179300150410569e+01
1.8835778808094862e+01 2.2191618645357114e+01
ITEM: ATOMS x y z vx vy vz
19.1313 22.1177 20.9195 -0.329696 -0.41251 0.59193
18.9921 20.6788 18.8731 1.03755 -0.170552 0.226477
20.6037 18.7434 19.1488 0.379232 0.190523 -0.288363
19.3131 19.5753 21.1124 -0.545822 1.97139 1.12159
22.1666 19.2002 21.0178 1.57073 -1.43972 -1.16485
21.395 21.1949 19.6384 -0.101287 -0.642776 -0.526789
21.1632 21.2548 22.055 -2.0107 0.503639 0.0400118
ITEM: TIMESTEP
50000
ITEM: NUMBER OF ATOMS
7
ITEM: BOX BOUNDS ss ss ss
1.8783049340007949e+01 2.1945009232470145e+01
1.8813337731783669e+01 2.2179300150410569e+01
1.8835778808094862e+01 2.2191618645357114e+01
ITEM: ATOMS x y z vx vy vz
19.1897 22.0602 20.8091 0.239781 -1.00974 -0.718345
18.9371 20.6201 18.7848 0.289821 0.710734 -0.372282
20.6486 18.7127 19.0842 -0.415431 0.180072 -1.06762