ITEM: TIMESTEP
0
ITEM: NUMBER OF ATOMS
80
ITEM: BOX BOUNDS ss ss ss
1.3756468215785919e+01 2.8440541940311871e+01
1.3404597422404391e+01 2.7453191981050988e+01
1.5156514138378963e+01 2.5633486158106411e+01
ITEM: ATOMS x y z vx vy vz
18.4593 17.2063 15.9997 -1.36281 -0.873436 -1.91955
16.3811 15.4159 20.1678 0.274543 1.21784 0.984021
16.1099 16.5869 17.5506 1.36848 0.368131 1.51519
13.7605 15.9675 19.1014 0.696786 0.0794569 -1.22865
21.5333 16.9018 18.7142 -2.15821 -0.51369 -1.91484
21.2622 18.0728 16.097 -0.544271 0.184238 -1.93719
18.7304 16.0353 18.6169 1.04332 -1.7842 -1.64999
23.3683 16.174 16.6139 0.288408 0.674065 1.6573
20.8366 14.1365 19.1338 0.28454 -0.370113 1.24737
20.5654 15.3075 16.5166 1.10015 -0.423065 0.473758
22.6716 13.4087 17.0334 -0.592683 1.30756 -0.229261
24.3361 17.7684 18.8115 -0.783374 -0.259643 -1.74714
23.6394 15.003 19.2311 0.276668 -0.806973 0.11902
17.7745 20.9466 19.3287 1.55212 0.403048 0.558028
17.5033 22.1175 16.7115 -1.39376 1.05121 0.959985
15.154 21.4982 18.2623 -2.99627 -2.12595 -0.36258
17.0778 18.1813 19.7482 -1.30479 0.448422 0.685947
16.8066 19.3522 17.131 -1.26794 -0.869875 -1.24447
14.4573 18.7328 18.6819 0.922192 1.42207 0.00415681
20.395 20.395 20.395 1.99411 -0.914456 -0.288865
20.1239 21.566 17.7778 -0.16507 1.56063 -1.64666
19.8527 22.7369 15.1606 -1.75074 1.13314 0.419897
22.3096 22.3486 19.4861 -1.10486 0.93076 -1.02114
22.23 19.6672 18.2947 2.2655 -0.543673 0.678172
21.9589 20.8381 15.6775 1.0008 0.237116 -0.933815
19.4271 18.8006 18.1973 1.10595 0.375775 1.33818
19.156 19.9716 15.5801 -1.51825 -0.995201 -2.25442
24.4157 20.4498 20.003 -0.530724 0.183279 2.32996
24.1446 21.6208 17.3858 -0.297497 -1.13917 -0.21783
24.065 18.9393 16.1943 1.72296 -0.212193 -0.796581
26.3303 22.4035 19.0941 0.256186 -1.60349 0.848138
26.2507 19.722 17.9027 -0.899743 -0.407855 2.05297
28.4365 20.5047 19.611 -1.68342 0.82534 1.68231
16.9354 23.691 19.0589 -1.85585 -1.42409 1.18589
19.5559 23.1394 20.1252 0.902913 -0.367866 -0.184065
19.2848 24.3103 17.508 0.870738 -0.221565 0.533731
22.0384 23.5196 16.8689 1.1742 -0.43511 0.827143
18.7169 25.8837 19.8554 -0.164034 0.113621 1.60277
21.4705 25.093 19.2163 0.829293 -1.16495 1.7623
24.2242 24.3023 18.5773 0.368109 -2.23859 0.158579
17.3489 17.0103 22.3654 0.199552 0.803955 -0.998926
14.7284 17.5619 21.2991 -0.37304 -0.636874 -1.50264
20.9373 18.0531 25.6294 1.12312 0.583451 1.22595
22.7723 17.3253 23.5291 0.933816 -0.777713 1.41664
19.9694 16.4587 23.4318 -0.890383 2.2672 -2.3824
19.6983 17.6297 20.8145 -0.679963 -0.0852585 -0.0351845
21.8044 15.7309 21.3314 0.0651495 -0.356214 -0.138817
19.0016 14.8644 21.2341 -1.55905 -0.631194 -0.431212
24.6073 16.5974 21.4287 -0.0404717 0.8668 -0.680179
18.3168 18.6047 24.5631 0.443376 0.596192 -1.01005
18.0456 19.7756 21.9459 1.14089 1.08051 0.443637
15.6962 19.1563 23.4968 0.0228895 0.354935 1.38636
15.4251 20.3272 20.8795 -0.499735 -1.40236 -0.0282216
17.4777 21.3491 24.2933 -2.39908 -0.364003 -0.378163
17.2065 22.52 21.6761 -2.00369 0.361766 -0.309832
14.8572 21.9006 23.2269 0.594945 0.207042 1.87403
20.6661 19.224 23.0122 0.951846 0.218411 0.064219
20.0982 20.7975 25.3596 -0.0827367 0.721156 0.244782
19.8271 21.9684 22.7424 -1.54832 -0.396177 0.539577
22.8519 20.0067 24.7205 0.0532519 -0.153567 1.36711
22.5807 21.1777 22.1033 0.44278 -0.0383539 -0.333684
22.5011 18.4962 20.9119 -0.0318381 -0.631428 0.685594
22.0128 22.7511 24.4507 1.17863 -0.544061 -1.2268
24.7665 21.9604 23.8117 1.79645 -0.707979 0.0670894
24.6869 19.2789 22.6202 1.1415 1.66816 -1.83429
26.6015 21.2325 21.7113 1.89612 -0.615748 -0.297376
26.5219 18.551 20.5199 0.0420537 -0.326758 -0.20113
14.586 23.0716 20.6097 0.492142 0.531554 1.58205
16.6386 24.0934 24.0234 -0.201109 -0.588741 -0.81453
16.3675 25.2644 21.4062 -1.77346 0.022819 -1.26951
14.0181 24.645 22.9571 -0.286649 -0.466562 -0.130885
19.2591 23.5418 25.0898 1.19638 -0.369646 0.281564
18.988 24.7128 22.4726 -1.29733 0.35933 0.424162
21.7417 23.9221 21.8335 0.880876 2.09873 -0.384206
21.1737 25.4955 24.1809 -1.98081 2.16434 0.269297
20.9026 26.6664 21.5637 0.644775 2.45643 -3.29563
23.0883 27.4491 23.272 0.673988 -0.972892 0.893256
24.4953 23.1313 21.1945 2.61868 -1.28395 -0.588075
23.9274 24.7047 23.5419 0.234157 1.31406 0.504902
23.6562 25.8757 20.9246 -1.04333 -0.14791 0.95374
ITEM: TIMESTEP
1000
ITEM: NUMBER OF ATOMS
80
ITEM: BOX BOUNDS ss ss ss
1.4867992846153872e+01 2.6907055373186836e+01
1.4627573911126987e+01 2.6276821377240505e+01
1.5115292333546606e+01 2.5836778052296101e+01
ITEM: ATOMS x y z vx vy vz
18.6508 17.5845 15.7408 0.63939 -0.389897 0.79559
16.6254 15.5568 20.9984 0.902399 -0.459117 -0.320187
16.7135 16.9585 17.4098 2.7884 -0.982387 0.590164
14.7019 16.3299 19.1347 0.386562 0.3074 -0.760798
21.4273 17.2221 18.6822 -1.58089 2.79839 0.0335127
21.1945 18.4782 15.6808 -2.34001 0.67552 0.584191
18.835 16.0498 19.034 1.97875 0.0516477 -0.530943
23.1203 16.6982 16.3223 1.29992 -0.175087 0.306343
21.0302 14.5701 19.6371 -0.155567 1.37753 0.546324
20.1732 15.6504 16.6603 -1.6334 0.0297076 0.261807
22.7378 14.6433 17.789 2.7017 1.47109 0.618936
24.2176 18.1957 18.1387 -1.03054 0.961511 -0.891006
23.6432 16.0715 19.8634 0.292442 -1.81449 -0.266473
17.8752 21.2739 19.0749 -0.0805322 -0.288388 0.806976
17.4659 22.5116 16.2255 0.710021 -0.106185 1.62775
15.517 21.5137 17.7575 0.774838 -1.60811 -0.153888
17.3205 18.1948 19.873 0.811284 0.900375 0.481665
17.1237 19.659 16.873 1.59308 0.212403 2.05824
14.9398 18.762 18.2534 -0.731232 1.13032 1.24973
20.41 20.2421 20.2182 0.611644 -0.179963 0.193478
19.789 21.8241 17.4403 -0.520833 -0.453301 -0.672845
19.7807 23.2181 14.7046 0.20142 -0.00981109 -0.300717
21.9301 22.7248 18.8972 0.127827 -2.95901 1.09656
21.9442 20.0685 17.5585 -1.5861 1.03253 0.36195
21.8042 21.2608 15.2038 0.525991 -0.772206 -1.53378
19.3038 18.7008 17.7986 -1.15259 -1.45777 -0.945825
19.1053 20.4515 15.243 0.364855 0.496119 1.97886
24.2074 20.3404 19.6917 -2.91115 1.26629 0.165089
23.8689 21.7069 17.1409 0.390185 0.380091 1.54051
23.8554 19.3871 15.7897 -0.756523 2.60844 1.04071
26.1643 22.4112 19.0064 -0.677532 1.7471 1.10329
25.9873 19.9911 17.4956 -2.02943 -0.35544 -0.514218
27.1729 19.7485 19.7888 0.777548 -0.992512 -2.05464
17.1429 23.7955 18.6936 -0.773097 -0.81392 0.096508
19.461 23.6599 19.9083 0.432818 -0.262971 0.956267
19.2523 24.4725 17.0623 0.255328 -0.564123 1.73273
21.7951 23.7193 16.4487 -0.103788 0.325743 0.291673
18.6784 26.0175 19.1264 0.624 2.02507 -1.95285
21.4106 25.2926 18.5288 -0.863193 0.480685 -0.252949
24.0799 24.208 18.2065 -0.235217 -1.50273 -0.270664
17.5691 17.0942 23.0075 -1.19066 -0.827101 0.824189
15.0618 17.7158 21.4933 1.33063 0.987998 -0.0492797
20.9785 17.7475 26.106 1.23236 0.0396368 -0.201894
22.8093 16.9738 24.3519 -1.03866 -0.358488 -1.56285
20.1034 16.2956 23.9138 -1.3121 0.989403 -1.5223
19.8736 17.2816 21.3664 0.81235 1.39248 -0.124996
21.912 15.7186 22.0802 0.099591 1.93366 2.64621
19.0358 14.9163 21.6936 -1.48867 0.371768 1.05303
24.4861 16.436 22.6462 -1.00055 2.32679 -0.237462
18.4434 18.4694 25.0249 1.74467 0.89667 -0.471861
18.0231 19.4676 22.3069 0.864118 2.56883 -2.39994
15.9062 19.2652 23.6827 -1.14402 -0.0387562 -1.77695
15.7552 20.3847 20.7167 0.483794 -0.245557 0.543926
17.7299 21.0841 24.6411 0.0125125 -0.0119482 -0.932942
17.3363 22.1749 21.748 2.07638 -1.14193 -0.737257
15.0574 21.7094 23.2773 -0.734785 -0.0725327 1.05905
20.6655 18.924 23.4143 2.26299 0.545041 0.397712
20.0866 20.5473 25.5165 -0.436789 -0.0107134 -2.44822
19.6962 21.5773 22.9443 1.50593 -1.53397 -0.560892
22.7134 19.6846 25.0972 -1.13583 -1.47164 -1.13138
22.8025 20.8211 22.4171 1.01259 0.203989 -0.189623
22.6883 18.0752 21.3975 0.423596 -0.119144 1.836
21.8602 22.3768 24.5051 -1.29628 -0.649383 -1.02561
24.606 21.6088 24.255 -0.30627 0.117519 -1.50905
24.4526 19.0703 23.2301 -1.25538 -0.0266511 0.956698
25.8323 21.1246 21.7137 -4.06705 -0.335451 -1.14095
25.3106 18.0446 20.7769 -0.0253531 -0.789386 0.644089
15.1199 22.8512 20.1041 0.457147 -0.502755 -0.739432
16.8427 23.7033 24.0077 0.874287 0.610485 -1.10055
17.1655 24.972 21.131 2.30863 -0.0406525 -0.635911
14.8618 24.198 22.6151 0.607444 0.336041 0.0226903
19.3265 23.1319 25.3074 0.82427 0.401787 0.347148
19.3272 24.2368 22.8903 0.266812 -2.27661 -0.207601
21.6356 23.9461 21.8772 0.0460704 -3.37349 0.127017
21.4117 25.1071 24.5975 -1.65906 -1.56871 -0.121813
20.7725 26.312 21.0203 -0.551685 1.64034 -1.83183
22.4701 26.4693 22.9819 -0.463469 1.98779 2.24787
24.2771 23.2698 20.7336 -1.66293 -3.15089 -0.0565089
23.8701 24.0082 23.4649 1.07892 -1.97059 1.27575
23.2672 25.6398 20.4437 0.415678 -0.964446 -0.361357
ITEM: TIMESTEP
2000
ITEM: NUMBER OF ATOMS
80
ITEM: BOX BOUNDS ss ss ss
1.4526351255893438e+01 2.6784820162136217e+01
1.4574115522266167e+01 2.6648596952745745e+01
1.5046698609467359e+01 2.5824991254872472e+01
ITEM: ATOMS x y z vx vy vz
18.8374 17.1082 16.2133 1.2287 -1.04987 2.20932
16.9187 15.6481 20.3168 0.441332 -0.124278 0.304363
16.5208 16.6489 17.4715 0.457095 1.70094 2.79823
14.4592 16.6028 19.1164 -1.29979 -0.407248 1.30426
17.1852 18.2492 19.6264 3.09962 2.15592 -0.614338
21.5987 17.214 18.7881 -1.34529 1.15761 0.18484
21.0725 18.8478 15.5293 0.909767 3.08244 1.67962
19.085 15.9202 18.556 -0.683813 0.960504 0.435551
21.4888 14.6563 19.3885 0.44455 2.0996 -1.16494
20.9657 15.7733 16.5456 0.919214 0.487592 0.378628
23.2531 15.1885 17.8139 0.605487 -0.625982 -0.85858
23.1326 17.3661 16.4538 3.27181 1.00649 1.75922
24.9055 17.3922 18.6975 1.09121 -0.658666 0.7384
24.087 15.476 20.2931 1.64545 -0.579178 3.21347
17.8911 21.0529 18.9211 0.484324 -0.202068 0.189692
17.4873 22.2882 16.5637 3.47369 1.62519 -1.16819
15.2367 21.6201 18.3474 0.942649 0.964488 0.257853
16.7845 19.3769 17.0927 0.163082 -0.408579 1.67742
14.548 19.1068 18.6456 -0.690874 -0.67737 -2.23029
18.8906 20.1474 15.4307 0.685023 -0.522967 -0.580701
20.6266 20.111 20.1206 -0.27162 0.132384 -1.05604
20.4842 21.3318 17.5207 0.751659 -1.09938 2.14758
22.66 19.6823 17.709 -1.67042 -1.33574 0.539237
21.7694 21.4097 15.1428 -0.671375 -0.337877 0.467477
19.3925 18.8792 18.1005 -0.957162 0.894277 1.69634
24.0093 20.0229 20.1093 -0.775567 2.10702 0.356327
23.8796 21.9214 16.7782 -1.97208 1.80814 0.425246
23.845 19.572 14.9903 -0.112764 1.5922 -0.934182
25.5334 21.6956 19.0569 -1.31982 0.672644 -1.05129
25.3066 19.7142 17.127 -1.45334 -0.115224 -1.59822
26.701 19.4456 19.3354 -1.74778 1.85943 0.728064
16.7269 23.8397 18.6997 -0.019408 0.10344 -1.83419
19.0501 25.7709 19.1305 2.32743 -0.295358 1.69885
15.104 22.906 20.6967 0.272857 -1.03772 -1.66247
19.6479 22.781 15.1114 0.640575 0.530002 -0.748191
22.4317 22.2552 19.1949 -0.56925 0.11784 0.0646933
19.4763 23.3751 20.2206 -0.832874 1.95046 0.409612
19.1748 23.7343 17.683 3.21275 -0.497325 1.33042
21.9958 23.7073 16.8135 -0.655537 -2.19874 1.59928
21.8548 25.1396 18.9669 -1.14733 -0.900856 0.515776
24.3843 24.2052 18.6103 0.462456 -0.165107 -1.43898
17.1511 17.1531 22.3919 0.156246 1.53981 0.0137204
14.967 17.8685 21.069 -0.399369 1.86255 1.4923
20.8319 18.1476 25.8962 0.0836935 -0.483202 0.928874
22.7546 17.472 24.0285 0.490645 -1.56004 1.83273
19.8979 16.5819 23.5737 -0.942134 -0.755045 -2.77302
19.8357 17.377 21.0792 -1.63236 -0.301381 0.0826274
21.8868 15.6316 22.1225 -1.37152 0.704453 -0.900555
19.4708 14.8289 21.3886 -0.99949 1.4445 -0.41213
22.5648 18.0623 21.2725 -0.701366 1.45039 -3.25719
24.4263 15.9602 22.713 -3.13901 -0.373809 -1.56393
25.4604 17.7874 21.0324 -1.84285 -3.09293 2.79978
18.2631 18.6486 24.591 1.34293 1.54699 0.330756
17.8533 19.7979 22.128 -0.456574 -1.96311 -0.961831
15.5339 19.3044 23.4625 0.991505 -1.55854 0.0596151
15.3973 20.4327 20.8274 2.72841 -2.09343 1.56114
17.8571 21.2363 24.4492 0.873352 -1.52824 0.316877
15.3795 21.9031 23.4398 1.62846 -1.9401 1.25672
20.6079 19.207 23.1247 -0.22617 0.818363 -0.0764241
20.0335 20.6412 25.5616 -0.722422 -0.536706 -1.57263
19.8421 22.1232 22.9827 1.32647 -1.30095 -0.660145
22.6359 20.0856 24.8441 -2.62064 -0.492364 0.669902
22.495 21.0425 22.0904 -1.55895 0.172881 0.00323335
22.0201 22.7945 24.5759 2.49613 1.28296 -1.82291
24.4284 21.9356 23.7315 -0.844171 -0.461404 -0.675153
24.2981 19.2042 22.994 -0.477803 0.449482 -1.1683
25.8965 20.6869 21.5158 -1.71056 2.11673 -1.89466
17.2939 22.3561 21.7349 3.21283 -3.66398 -2.91197
16.6176 23.4586 25.1172 -1.73061 0.373942 -0.649818
17.3334 25.1471 20.8619 -0.619952 -1.73844 2.42558
15.364 24.4753 22.8815 -2.41786 1.91582 1.21138
18.1918 24.4728 23.1821 -1.52437 0.486204 0.138686
19.3726 23.3589 25.3385 1.86006 0.871819 1.85174
21.9048 23.9774 21.5994 -0.640372 0.512393 -3.28709
20.9771 25.0713 23.8006 0.0488882 0.133951 -1.14233
19.8845 25.9386 21.7125 -0.615897 -2.71627 -1.48411
22.5672 26.6168 22.3441 0.52708 -0.525421 -2.70123
24.4602 23.1091 21.2179 0.464068 -1.76003 -1.43893
23.6047 24.6182 23.5384 1.64581 -0.0486548 2.00021
23.8364 25.9017 20.4552 -2.01675 -2.55827 0.209324
ITEM: TIMESTEP
3000
ITEM: NUMBER OF ATOMS
80
ITEM: BOX BOUNDS ss ss ss
1.4520473007915081e+01 2.6724042488900075e+01
1.4933364973899625e+01 2.6192515090973707e+01
1.4863995298978182e+01 2.5748868306832193e+01
ITEM: ATOMS x y z vx vy vz
16.8333 15.8179 20.3265 -0.568313 -0.449462 2.59874
16.723 16.7779 17.5271 0.214975 0.961608 0.782348
14.6507 16.582 18.7533 0.869469 -1.23942 1.05786
17.2238 18.4126 19.4958 -1.06651 1.38845 0.829663
18.5628 17.4651 15.955 0.450589 2.31965 -1.77688
22.3874 17.5657 19.2781 -1.70812 -0.313288 -0.965208
21.0529 18.5772 15.0661 1.37243 0.493614 -0.91788
19.0939 16.0919 18.8832 0.662566 1.82504 -0.62903
21.37 15.1849 19.8664 1.02814 0.814912 -3.11621
20.857 16.6809 17.1693 2.28183 -0.616952 2.68288
23.2158 15.5014 18.1453 2.17225 2.07633 -0.0215874
23.2551 17.2837 16.2101 -1.61553 -0.387187 -0.606942
24.9617 17.3086 18.3019 1.86594 -1.86552 -2.29995
17.9736 21.1 18.6758 1.98665 1.11277 -2.63098
17.3082 21.9794 16.1111 -0.233676 1.31657 -0.00697416
15.2121 21.7722 18.7502 1.27975 2.03345 -1.23671
16.3542 19.6718 16.9449 0.231118 -0.529428 0.665593
14.4367 18.8937 18.4849 -1.60312 1.11728 0.62921
19.2066 20.1605 15.8685 1.40671 0.638455 0.728519
20.7716 20.7595 20.1797 0.0244923 0.244429 0.551131
20.3601 21.678 17.6842 1.89143 1.12051 0.603219
22.2538 19.6329 17.284 -0.782496 0.329961 -0.0501302
21.9168 21.5056 15.1149 -0.083539 -1.77485 -1.7956
19.7515 18.7396 18.2037 -1.15703 2.00389 1.35622
24.0453 19.7 19.659 -0.419315 -0.168417 -0.367207
24.0955 21.7317 16.7498 0.30797 -0.886009 1.92099
23.3517 19.4919 14.8691 -1.28815 -0.22119 -0.739525
25.4987 21.703 19.0591 1.78875 -1.66171 0.726316
25.0538 19.4164 17.0755 0.573835 2.26351 2.07262
26.6789 19.5657 19.4334 -0.270992 -0.263039 -1.45103
16.6303 23.8572 19.1317 0.211565 -1.11517 1.24231
18.7683 26.0674 19.2964 -1.8874 -0.2404 1.25864
14.7422 23.2938 20.9041 0.721078 -1.16394 -3.3026
19.7649 23.2408 15.455 -0.708627 -0.962598 -1.10138
22.8147 22.3197 19.2139 -1.28014 0.334799 1.59507
19.256 23.1602 19.9215 0.656634 -1.31958 -0.213584
18.7032 23.887 17.3475 -0.494617 -1.77142 1.5827
22.0776 23.4827 16.6546 -3.05202 0.143763 1.27657
21.4199 24.4541 19.0785 0.949649 0.406678 -0.685772
24.2338 24.1302 18.2066 -0.554663 -2.90706 0.367536
23.6735 25.0569 20.4149 -1.57478 -2.48456 0.312418
17.5211 17.245 22.2059 -0.868037 0.798305 0.228081
15.0155 17.5953 21.0205 -1.51983 0.260151 1.0287
20.6841 18.3225 25.906 0.547973 -0.368498 1.47873
22.7015 17.2002 24.5523 -0.781746 -2.10483 1.93985
20.1212 16.8225 23.5092 -0.258831 -0.164801 -0.74967
19.9171 17.7282 20.9565 1.74306 -0.925845 -0.514957
21.9168 15.65 22.2528 1.25165 -1.7071 0.876719
19.4312 14.9052 21.5284 1.65584 1.46155 0.236065
22.7391 18.3133 21.6827 -0.0915058 0.925546 1.01474
24.246 15.4703 20.3816 1.05277 0.208452 1.17387
24.3114 16.3658 22.9498 -1.31188 0.767192 -1.0025
25.5175 17.7104 20.9605 0.644114 -0.29586 0.503658
18.3188 18.6421 24.5654 0.58423 -0.0270494 -1.8635
18.3205 19.7844 21.5649 0.403951 -2.44616 0.398783
15.9598 19.4901 23.4479 -0.443712 0.908963 -1.09974
15.5401 20.2641 20.8356 -0.907723 0.279582 3.11028
17.6416 21.424 24.3075 -1.38217 0.166683 0.0798788
15.2496 21.8738 23.193 -3.12586 -2.00333 -1.31435
20.8457 19.5226 23.2646 -1.75359 1.73984 0.65651
20.019 20.7091 25.5995 -0.346054 -0.979636 -0.982484
19.8524 21.9982 22.5831 -0.376362 3.06524 -0.390232
23.0479 20.996 21.9447 -1.2586 -0.508069 -0.849425
22.7274 19.9155 25.1255 -2.11887 2.4952 -0.472827
24.439 21.6886 23.9355 0.502539 0.566772 -0.555041
24.8621 18.9703 23.5763 -0.862689 1.39561 -0.970328
25.6916 20.6449 21.7314 -0.847497 -0.1091 0.131836
17.2453 22.5863 21.3613 0.416839 -1.41476 -0.318648
16.5105 23.5716 25.1016 2.8656 -0.166331 1.27485
16.9007 25.5802 20.9878 2.92863 1.14462 -0.915529
15.438 24.5439 22.9596 1.0812 0.797335 -0.511432
18.3101 24.3589 23.18 1.95847 -1.48609 0.248956
21.8133 22.1617 24.3952 -0.440577 1.68617 -2.0176
19.0963 23.2358 25.3444 0.37033 -0.766084 0.557282
21.9209 23.2842 21.5896 -0.166311 -1.63445 -1.41794
20.9059 24.7419 23.9003 -1.37135 -2.56759 0.646354
19.6537 25.3971 21.5013 -1.8596 0.00785204 1.60334
22.221 26.0252 22.1533 1.9579 -1.09632 -0.693372
24.8797 23.0742 21.3602 -0.634378 0.364145 -1.28619
23.5256 24.0848 23.434 0.163291 1.12822 -0.188075
ITEM: TIMESTEP
4000
ITEM: NUMBER OF ATOMS
80
ITEM: BOX BOUNDS ss ss ss
1.4267589851363255e+01 2.6492089045290619e+01
1.4983814218285401e+01 2.6353755924049999e+01
1.5093368685588183e+01 2.5951566027757639e+01
ITEM: ATOMS x y z vx vy vz
16.3534 15.478 20.2154 1.53567 0.191972 1.54149
16.4159 16.4257 17.5787 2.73452 0.16868 2.1461
14.2414 16.4147 18.9392 -2.06422 1.00248 0.527532
17.2976 18.0793 19.8104 -1.43002 0.107569 -0.268524
15.2099 18.6426 18.5568 0.0698544 1.03049 -2.97184
18.5338 17.0127 16.1069 -0.929425 -0.450178 -1.02705
21.8377 17.9651 18.9971 -0.888662 0.440401 -1.22051
20.844 18.6001 15.5225 -0.541967 0.097435 1.35146
18.7311 15.966 18.8907 -1.25606 1.44364 -3.15901
20.9914 14.9136 19.4844 -2.59926 -0.0257007 -0.449183
20.698 16.0231 16.8729 1.53669 1.70498 0.204878
23.1418 15.3043 17.8861 -0.597085 -0.018815 0.772493
23.2633 17.5921 16.4171 -0.310987 0.697705 -0.834463
24.7621 17.6301 18.5077 0.129942 0.248659 0.861477
23.738 15.9259 20.2501 0.437178 1.4617 -1.33154
18.0942 20.7274 19.3434 -0.831699 2.10558 -1.01027
17.3681 22.1219 16.5296 2.9506 -1.77375 -1.66211
15.5565 21.1371 18.3417 0.757803 -0.506625 -1.11499
17.0479 19.3962 16.8796 2.29951 0.387026 -0.423945
19.0337 20.3755 15.3098 -1.92279 0.390603 -0.427623
21.0076 20.1124 20.307 0.462317 -0.433122 -1.33828
19.9469 21.7661 17.6018 1.06944 -0.269614 -3.10296
22.2183 19.982 17.4724 1.32807 2.86934 0.407835
21.7162 21.5323 15.1539 -2.60681 -1.98302 0.605771
19.6067 18.8717 17.938 1.49673 -1.85592 5.33413
23.7056 19.8524 19.7638 -0.632301 -1.81909 1.39623
23.7521 22.2104 16.4869 -2.51782 -1.35131 2.80934
23.5461 19.6687 15.1378 -3.32396 4.13554 1.05859
25.2452 22.0569 19.0186 -0.813555 -1.62686 -0.640671
25.0672 20.0295 17.337 -0.0814493 -0.415979 -1.40159
26.4798 19.6497 19.6959 -0.790105 -0.600655 0.0572487
22.3668 22.4457 19.0554 -1.02808 2.19455 0.552182
16.875 23.5425 18.3135 0.748994 -1.51026 -0.598382
18.6138 26.0489 19.3045 2.7147 -0.839384 -1.74998
19.7474 23.188 15.006 -0.133025 -1.56052 -1.67234
19.4797 23.6029 19.9832 1.47787 1.72123 0.689965
19.3899 24.3323 17.3958 0.579299 -0.867875 0.121276
21.9052 23.78 16.7209 0.718787 -0.601093 2.51384
21.6423 25.278 19.3418 1.67876 -0.00211583 -0.0635897
24.2482 24.3495 18.2195 -0.608736 0.195717 -0.893319
23.7701 25.2644 20.6096 -0.123305 -0.563605 1.211
17.6011 17.1272 22.5277 -0.376909 1.91101 1.35599
15.0173 17.5248 21.3011 0.438146 -0.354163 1.03142
21.0233 18.3657 25.9238 -1.76267 -0.848981 0.937291
22.6113 17.059 24.453 1.33854 -0.845577 1.29261
19.8262 16.632 23.6481 2.72099 -2.29259 0.214272
20.0063 17.5647 20.8293 0.383665 -0.182517 -2.54225
21.6215 15.5002 22.1872 1.20911 0.735845 0.111035
19.1212 15.1373 21.4519 0.492509 -0.450648 0.525354
18.3686 18.6663 24.741 -1.40885 -0.0780008 -0.185033
22.9047 18.1825 21.8205 -0.632454 0.434748 0.991463
24.3532 15.8652 22.8685 0.923148 -0.185731 -0.649102
25.5292 17.6698 21.2062 -0.926809 -0.395224 0.502951
24.7026 18.4506 23.8026 -0.138389 1.08793 -0.366807
15.8763 19.1582 23.2301 1.87219 -2.15768 1.86209
15.7886 20.1999 21.0065 0.327588 -0.181545 -2.03733
17.5783 21.112 24.2389 0.895468 -0.528661 -1.56463
15.2878 21.8641 23.1123 0.507055 -3.08357 -0.00733524
17.6277 22.5458 21.9664 -0.766242 3.23607 -0.764852
18.3729 19.6794 22.2814 -1.94093 1.04827 1.455
20.7872 19.1406 23.2497 -0.159317 -0.594931 1.08199
20.1445 20.773 25.4463 -1.55199 -0.597684 0.398799
20.1955 21.8457 22.5285 1.1267 1.48109 -1.41232
22.8437 20.7955 22.2165 0.114944 0.253815 0.698258
22.782 20.1425 25.0713 2.69578 1.04584 -0.0733618
24.5786 21.7686 23.81 -0.570857 -0.649579 -0.220543
25.3798 20.2374 22.0056 -0.627233 0.748449 -0.0150814
15.4477 22.7605 20.4373 -1.32743 -1.26334 0.504337
16.7231 23.5462 24.7247 0.454132 0.0821791 1.87419
16.9743 25.1719 20.7344 1.59408 0.390776 1.26191
15.5814 24.236 22.5988 -0.0202718 -1.26723 -0.540692
18.5759 24.8945 22.7852 0.352412 -1.19922 0.396896
21.9736 22.6991 24.4362 -1.12353 -2.85098 1.00494
19.2412 23.3015 24.7835 0.894093 0.990668 -2.8665
21.6026 23.8622 21.737 -1.00067 0.274366 1.53961
20.8594 24.9948 23.7231 2.21257 2.38453 -0.802415
20.2976 26.1744 21.3934 0.621617 3.36101 -1.81916
22.6224 26.477 22.4503 -2.08088 -0.00533754 1.21443
24.3989 22.8186 21.2451 -2.39928 -1.85091 0.0363913
23.8823 24.3589 23.3236 -1.05544 -1.1223 -1.22448
ITEM: TIMESTEP
5000
ITEM: NUMBER OF ATOMS
80
ITEM: BOX BOUNDS ss ss ss
1.4723419267808813e+01 2.6623768436770607e+01
1.4840028147101496e+01 2.6227216597838353e+01
1.5022633303629611e+01 2.5753456661330503e+01
ITEM: ATOMS x y z vx vy vz
16.4292 16.653 17.6189 -2.3041 0.163174 0.399249
14.6606 16.1811 19.3467 0.276888 0.559999 -2.16373
17.2669 18.1825 19.723 -2.70307 -0.861257 0.808056
14.8552 18.7632 18.501 -2.33407 -0.120538 1.56577
18.8132 17.266 15.9591 -1.06522 -1.89743 -1.10223
22.0768 17.7603 18.7425 -0.129112 0.345299 -1.55742
21.1167 18.3927 15.2858 1.61604 -1.20692 -1.30592
19.0715 16.2028 18.5292 0.623034 0.1991 1.35879
21.2382 15.209 19.5093 -2.57047 -1.42846 -0.0662298
21.0176 16.0866 16.6484 1.06315 -2.26875 -0.810249
19.6069 18.6042 17.8386 0.202064 0.164629 -0.757106
23.253 15.2798 17.7439 -2.1709 -2.1353 -1.59131
23.4689 17.5411 16.3104 -0.876284 -0.0677285 1.99019
25.1138 17.4343 18.8559 -1.13066 1.42311 1.55128
23.83 15.8507 20.3045 -0.309862 0.438023 0.449563
17.7419 20.9128 19.7051 2.05985 0.0628201 1.69474
17.5012 21.8298 16.7252 1.20066 -1.67286 2.56626
15.3837 21.5364 18.2036 -0.0513414 -1.84095 -0.000835723
17.0022 19.3207 17.0606 2.76283 1.96817 -2.73791
19.2006 20.0008 15.5655 -2.22096 -0.401713 -0.148029
20.4228 20.4555 20.2286 1.86919 0.161646 1.57171
20.0496 21.6633 17.7826 0.219646 2.12312 -0.0316388
22.4715 20.1786 17.7491 0.275515 -0.788309 0.418208
21.623 21.1074 15.4181 0.444116 -0.633427 -0.782031
22.3066 22.502 19.1352 0.920146 0.181315 2.65025
24.1469 19.6605 19.7778 -0.422269 0.0891718 -0.643864
23.8275 21.9822 16.6402 -0.41999 0.167542 2.15369
23.7246 19.846 15.0604 2.12545 -1.70355 -1.14154
25.5295 21.7575 18.7083 0.069797 -0.39369 1.07846
25.2424 19.5025 17.2975 1.23885 1.10031 -0.300803
26.933 19.5259 19.3561 2.00633 -2.19599 1.17599
17.1897 23.4856 18.9052 -0.891341 0.1134 -0.120967
18.6426 25.9382 19.2998 -2.34703 0.491775 -0.605376
19.5435 22.7933 15.162 -1.79313 -0.340756 -1.00817
19.5034 23.5238 20.083 1.60043 -0.0530251 1.64282
19.1067 24.3167 17.4257 2.48368 0.767529 2.65676
21.6422 23.5408 16.5779 -0.914133 0.718898 -2.79675
21.4845 24.8983 18.9392 -3.39606 -0.103081 0.0781864
24.1322 24.1461 18.2201 1.02052 1.48393 -1.07045
16.9438 15.642 20.0591 -1.13771 -0.145585 -1.8301
17.515 17.0354 22.458 -0.0152438 2.04616 1.31158
15.1758 17.6157 21.4708 2.35542 -0.161969 0.00729205
15.8297 19.5656 23.3583 -0.547599 -1.28574 -0.534766
20.1025 18.0366 25.913 1.09066 1.1413 0.0279457
19.7219 16.4845 23.6083 -0.504072 0.865131 -0.00169475
19.9625 17.6994 20.8781 2.5426 0.357155 0.891166
21.7908 15.6333 22.2673 0.327351 2.84686 0.433669
19.4306 15.1597 21.4413 1.96875 1.94887 -1.70657
18.2338 19.0744 24.4185 -2.34902 -1.03424 -0.0571375
22.3758 17.1175 24.46 -2.15768 -0.571827 -1.94706
22.7053 18.0061 21.3475 1.26867 0.148874 -2.75356
24.3891 16.4368 22.9046 0.516518 -2.32101 1.26018
25.7445 18.0349 21.397 -0.180126 1.1865 -0.00067234
24.2532 19.0708 23.4446 -0.289759 0.969279 0.337053
15.0737 20.2811 20.7754 -2.03423 -2.25602 0.180198
17.4376 21.5714 24.2799 1.93932 1.04909 0.290777
15.0013 22.2916 23.8335 0.817969 0.0961673 0.421108
17.2855 22.6517 21.9521 -3.02148 2.0585 -1.45075
18.158 19.5514 21.8608 1.76286 1.59538 1.32123
15.1705 22.9841 20.7441 2.31503 -1.07522 0.623305
20.8567 19.1102 23.0768 3.3064 0.0895215 -0.194116
19.8236 20.5858 25.3507 0.480211 2.02604 1.29593
19.8515 21.8055 22.7871 -0.610295 1.98704 -3.184
21.8529 22.2569 24.2137 0.819576 -0.506994 -0.930878
22.6515 20.7839 21.773 0.919372 -1.34357 0.797502
22.3333 19.9248 25.0829 -0.939832 -2.29285 -0.456803
24.4592 21.5868 23.6964 -0.676482 -2.49788 0.356996
25.9172 20.8733 21.429 -1.05689 1.29114 -1.49927
24.4269 22.9322 21.0826 -1.80873 1.01785 -0.683925
16.8716 24.0356 24.3516 1.27647 -0.907933 -0.608702
17.1409 24.9891 21.1281 -1.57819 -2.42284 0.685448
15.0743 24.719 22.7759 -1.61618 0.467447 0.33427
19.1782 24.6591 22.8997 -1.68397 1.55298 0.330009
19.3439 23.2426 25.298 -1.27567 0.174276 -0.948709
21.9727 23.5245 21.6186 0.322948 2.2083 -0.250904
21.2921 24.7748 24.2914 -1.38063 -0.24701 0.725133
20.5684 26.0402 21.0332 3.27875 -0.608006 0.557421
23.3304 25.3786 20.5864 -1.20158 -1.21239 1.91846
22.3432 26.4712 22.8004 1.96228 1.33786 0.625636
23.8399 24.1297 23.5083 0.766044 -0.179854 -0.760091
ITEM: TIMESTEP
6000
ITEM: NUMBER OF ATOMS
80
ITEM: BOX BOUNDS ss ss ss
1.4168399817237256e+01 2.6448087985850901e+01
1.4653646907408881e+01 2.6510651539525107e+01
1.4997155075363530e+01 2.5760060115142888e+01
ITEM: ATOMS x y z vx vy vz
16.338 16.3099 17.4508 1.24147 1.32541 0.674631
14.6731 16.4478 19.2836 0.500647 -1.1003 0.805762
17.3498 18.1462 19.7064 0.779119 1.64398 -0.503783
14.7463 18.7708 18.367 -2.26087 -1.29224 0.0601689
16.8029 15.3119 20.0421 1.94356 0.594312 -0.199834
18.4355 17.4775 15.7833 -1.5246 -0.340421 1.19924
22.0182 17.8347 18.8891 0.0704532 3.16236 -1.34188
21.0284 18.541 15.7852 1.96579 -0.432701 1.51676
18.7418 16.1359 18.4746 0.80786 1.54649 -0.0800548
21.1789 15.202 19.6855 -0.731066 1.83463 0.580391
20.7558 16.2111 16.9057 -0.332114 -0.317825 -0.123085
23.0577 15.384 17.8462 1.68727 0.504202 -1.64816
23.1745 17.5741 16.4245 0.56588 0.488779 1.35891
24.8316 17.3372 18.6567 2.87854 -1.09155 0.814358
23.636 15.855 20.3959 1.15426 1.46651 2.20159
17.7145 22.4389 16.834 -0.515064 0.115526 -0.651728
15.5147 21.3936 18.1474 -1.53388 -0.828964 3.27866
16.8899 19.3136 17.2251 1.70953 1.25973 -1.4667
19.5516 18.6481 18.0442 2.56047 1.28689 0.935683
17.8847 20.8566 19.096 -1.29844 -0.350431 -0.987332
19.1196 20.3717 15.8235 0.985899 1.75995 0.523993
20.6507 19.9657 20.0917 -1.41151 -1.21882 0.0860759
20.009 21.755 17.843 -1.97921 -2.58777 -0.63046
21.5998 21.3106 15.0934 -0.219282 -0.0117662 -0.5025
22.2309 20.156 17.2901 -0.584004 0.418963 -3.22606
22.5667 22.2178 19.2777 2.97759 -0.326292 -2.38354
23.9177 19.6273 19.7762 -1.24535 -1.42856 -1.66637
23.8617 22.0863 16.638 -0.31398 1.20186 1.33447
23.6444 19.8179 14.9558 1.46776 -1.22124 -1.2046
25.3892 21.6489 18.7035 0.807501 -1.87822 0.555012
25.0323 19.4929 17.0047 -0.159244 -0.597896 0.877128
26.6494 19.613 19.5042 2.12616 0.380406 1.67304
17.3715 23.7586 19.3182 -2.14897 1.84466 -1.2816
18.5736 25.7694 19.9622 -0.926903 -0.330729 0.163062
19.5765 23.1681 15.2027 -0.599297 -0.0697503 -2.54081
19.9103 22.9712 20.1013 -0.17695 -0.267731 0.793748
19.4867 24.397 17.7223 -0.766467 1.36158 1.15068
21.7362 23.6075 16.6194 -0.000217094 -0.0319055 -0.27793
21.8096 24.813 19.1223 -0.889143 -0.193726 0.0608067
24.432 24.1495 18.4363 -1.29546 -0.763032 -0.928382
17.9168 16.7058 22.2781 1.01795 -1.80673 -0.403814
15.4539 17.3148 21.7347 0.415442 0.203257 1.17562
18.0668 18.6452 24.4942 1.53732 -0.481547 -0.496393
20.2917 18.3999 25.8575 -1.59255 -1.35884 -1.40704
19.9115 16.4189 23.8171 -0.509614 -2.41296 -1.29176
20.014 17.3831 20.639 0.564212 -0.991677 0.702322
21.8001 15.6821 22.3976 -0.844484 1.13554 1.30625
19.2507 14.6885 21.5137 -0.23764 -1.64831 3.44926
22.3109 17.6446 24.3845 -0.63186 2.00121 2.80433
22.7874 18.0546 21.7184 0.622432 2.36039 1.83049
24.378 16.3966 23.2279 -0.447162 -0.981483 -0.801389
25.493 17.7148 21.1401 -1.30057 -0.862178 -3.1485
16.004 19.2899 23.1157 0.102637 -0.56934 1.66758
15.7161 20.1959 20.5059 -0.3698 2.78338 -1.30738
17.6337 21.3937 24.4289 -1.14441 -0.193693 -0.924536
15.148 21.7245 23.0463 -2.34881 0.338946 0.169516
18.2705 19.6723 21.7349 -1.83736 1.53349 2.93179
20.4911 19.0649 23.1195 0.0394301 0.740244 -2.79368
20.0702 21.0989 25.6223 -1.25932 -2.79842 2.34724
19.7387 22.0208 22.4411 0.966607 0.923888 2.10369
22.0547 22.7633 24.3762 2.25711 -0.0826904 -1.54227
24.4832 18.9258 23.5716 -1.33504 -0.336017 -1.61786
22.6552 21.1255 22.0743 -1.88806 -1.79524 -1.00192
22.2847 20.0945 24.8625 -0.182269 -0.86965 0.430885
24.5687 21.6204 23.8869 -1.33651 -0.160709 -1.34911
25.58 20.6636 21.5791 1.35256 -2.95045 -1.99538
17.2494 22.2898 21.7439 -0.7094 -1.83039 -0.86794
14.7305 22.7365 20.4112 0.903149 2.26291 0.263169
16.6862 23.7017 24.035 0.699262 0.684378 1.77407
16.3662 24.8961 21.5075 0.437726 2.27979 1.69734
14.383 24.2911 22.6466 2.27869 0.109226 -3.53834
18.9017 24.6383 22.574 0.82599 -0.761154 0.0166036
19.4956 23.674 24.8675 -0.867987 -1.79494 -0.798415
21.972 23.9232 21.8343 1.05828 -1.77199 2.26411
21.249 25.2531 24.0187 0.272259 -0.707341 0.715079
20.7576 26.3183 21.2219 0.673192 0.210958 -2.39742
24.435 22.7645 21.062 0.525699 0.0321748 -0.123171
24.0057 25.4845 20.6639 -1.38432 1.02695 0.189366
22.7984 26.5412 22.6407 -1.0708 1.63379 0.389782