ITEM: TIMESTEP
0
ITEM: NUMBER OF ATOMS
807
ITEM: BOX BOUNDS ss ss ss
5.5309186922748141e+00 3.5259081307725161e+01
5.0751587783057355e+00 3.5714841221694279e+01
4.8944043141185327e+00 3.5895595685881489e+01
ITEM: ATOMS x y z vx vy vz
21.2031 12.7083 7.90839 -0.891646 0.383496 0.0113635
20.7489 15.3694 6.90508 -0.0726877 0.210578 -1.05057
22.951 14.8597 8.68988 2.14895 1.09476 1.4575
16.2032 18.399 8.73146 -0.608264 -2.11186 -0.751813
18.0218 19.5453 6.81497 1.36768 0.100173 -0.800043
18.476 16.8842 7.81827 2.27693 -0.888981 -0.690332
20.2239 19.0356 8.59976 -0.00313321 -1.04073 0.806193
22.4967 17.5208 7.68657 0.552237 -0.161721 1.6813
20.2947 18.0305 5.90178 0.953632 -2.89028 0.612698
22.0425 20.1819 6.68327 -0.779391 0.384473 2.02321
24.2446 19.6722 8.46806 0.00739842 1.2425 2.14752
13.4761 22.5749 8.64135 1.4948 -0.190925 -1.5151
15.7489 21.0601 7.72816 0.719541 -1.14725 1.35024
17.4968 23.2115 8.50965 -1.06891 0.709735 0.0544653
15.2947 23.7212 6.72487 -0.731117 1.22314 1.61971
17.5676 22.2064 5.81167 -0.419538 -1.94683 0.0623382
19.7697 21.6967 7.59646 -1.63458 1.40589 1.71876
21.5175 23.8481 8.37795 -0.174257 -1.10482 0.670653
19.8404 20.6916 4.89848 2.21508 -2.31909 -1.35561
21.5883 22.843 5.67997 -1.2552 0.242219 1.24459
23.7904 22.3333 7.46476 0.828346 0.0438953 0.477281
13.0219 25.236 7.63806 0.0298948 0.889467 -1.54928
14.7697 27.3874 8.41955 0.895327 -2.46008 -2.96927
17.0426 25.8726 7.50636 -0.477227 -0.403837 0.525858
18.7904 28.024 8.28785 -0.236415 0.897472 -0.692292
19.3154 24.3578 6.59317 -0.689127 0.370962 -2.07843
21.0633 26.5092 7.37466 0.466892 -0.257035 0.752426
25.5382 24.4848 8.24625 -1.21363 -0.410842 -1.20554
23.3362 24.9944 6.46146 1.02355 0.785173 -1.42216
25.084 27.1459 7.24295 -0.608223 -2.95723 -0.351994
22.8112 28.6607 8.15615 2.40448 0.334609 -0.0536869
22.0408 8.39119 12.613 0.525797 0.947934 0.269431
19.8387 8.90086 10.8282 0.831078 -0.417951 -0.849118
17.5658 10.4157 11.7414 0.207703 0.782832 -0.795094
19.3137 12.5671 12.5229 1.04698 1.60835 0.410718
21.5866 11.0523 11.6097 4.49252 -0.943349 0.547115
19.3845 11.562 9.82488 1.51732 0.0124795 3.56874
21.6573 10.0472 8.91169 -0.988545 -1.26636 0.189159
26.0615 9.02783 12.4813 0.928793 1.93926 0.680053
23.8594 9.5375 10.6965 1.78828 1.64305 0.167277
25.6073 11.6889 11.478 -1.48321 0.413069 -1.08971
23.4052 12.1986 9.69318 -0.279457 2.6057 -0.248398
12.5659 16.1063 12.5645 -0.394024 -2.29232 1.06663
14.8388 14.5915 11.6513 1.2197 0.685045 0.314547
17.1116 13.0768 10.7381 -3.20459 -1.0519 0.456995
16.6574 15.7379 9.73477 1.07143 -1.75664 -0.363846
18.8595 15.2282 11.5196 1.62911 1.66702 -1.51969
21.1323 13.7134 10.6064 1.70611 -0.657205 2.35276
18.9303 14.2231 8.82158 -0.226295 -0.100311 -0.340548
20.6781 16.3745 9.60307 0.550179 1.1421 -0.860523
23.3344 13.2037 12.3912 1.70434 0.408829 2.11332
22.8802 15.8648 11.3879 0.256887 0.162842 -1.02526
25.153 14.35 10.4747 -0.963609 -1.87725 -0.27021
27.3551 13.8404 12.2595 1.54151 -1.6382 1.49024
26.9009 16.5015 11.2562 0.0706743 -2.08602 -0.324378
9.83882 20.2822 12.4743 1.84377 -1.24319 0.602709
12.1117 18.7674 11.5612 -0.66119 0.706091 0.709874
13.9303 19.9138 9.64466 -0.825365 -2.1692 0.231078
16.5866 16.743 12.4328 -0.51997 0.660554 0.54705
14.3845 17.2526 10.648 1.16191 -0.926907 -1.25031
16.1324 19.4041 11.4294 0.773366 0.29638 -0.0398343
20.6073 17.3796 12.3011 1.21979 -0.644867 -0.0845094
18.4053 17.8893 10.5163 0.905993 -0.899524 2.82952
20.1531 20.0407 11.2977 -0.442519 -1.35192 0.037596
22.426 18.5259 10.3846 0.795201 0.514282 0.219928
24.628 18.0163 12.1694 -1.65101 0.3076 -1.45979
24.6988 17.0111 9.47137 0.777904 -1.75745 0.291438
26.4467 19.1626 10.2529 1.15501 0.526786 0.451853
28.6488 18.6529 12.0377 0.828365 -1.45786 -0.803556
9.3846 22.9433 11.471 -1.21343 -0.121273 -0.289016
13.8595 20.9189 12.3426 0.0338018 -0.457759 0.488732
11.6575 21.4285 10.5578 0.197963 0.583102 -2.55256
13.4053 23.58 11.3393 -2.12402 0.249309 2.07457
11.2032 24.0896 9.55454 -2.40066 -2.97613 0.345007
17.8803 21.5555 12.2109 -0.336122 -1.16907 -0.41778
15.6782 22.0652 10.4261 -0.175806 2.35135 -1.08582
17.426 24.2166 11.2076 0.82873 0.281432 0.360368
17.951 20.5504 9.51295 -0.293498 -1.35001 -0.682766
21.901 22.1922 12.0792 0.418821 -0.769593 -0.419584
19.6989 22.7018 10.2944 -0.635569 -2.48313 -1.58044
21.9717 21.187 9.38125 2.5374 -1.5695 -1.76493
24.1738 20.6774 11.166 0.559698 1.66343 -0.0823303
25.9217 22.8288 11.9475 0.341815 -0.751511 0.0184049
23.7196 23.3385 10.1627 0.749449 -0.0224867 0.151186
25.9925 21.8237 9.24955 -1.00425 1.9305 0.574525
28.1945 21.314 11.0343 -0.430225 2.87547 0.757085
29.9424 23.4654 11.8158 -1.69894 1.20763 1.50259
27.7403 23.9751 10.031 1.23305 -0.0730231 -0.338777
11.1325 25.0948 12.2525 -0.851357 0.549401 1.29131
12.9511 26.2411 10.336 0.526815 -0.857325 0.179251
15.1532 25.7314 12.1208 -0.441063 0.966103 -1.39963
15.2239 24.7263 9.42284 -1.20347 -0.690475 0.703445
16.9718 26.8777 10.2043 -0.421733 0.610836 0.817078
19.1739 26.3681 11.9891 -0.369425 0.197973 -0.0774971
21.4467 24.8533 11.0759 0.214784 1.65696 -0.100559
19.2447 25.3629 9.29114 -1.51534 -2.30602 -1.33599
20.9925 27.5144 10.0726 0.284368 0.660817 -0.407655
23.1946 27.0047 11.8574 -1.35382 0.969901 0.86045
25.4675 25.4899 10.9442 -0.903898 0.0311993 0.0302532
23.2654 25.9996 9.15944 -3.2371 -1.20117 0.272091
27.2153 27.6413 11.7257 -0.554141 1.6274 -0.675311
29.4882 26.1265 10.8125 -0.413748 0.430713 1.09767
27.2861 26.6362 9.02774 0.419882 -0.165529 1.5388
31.6902 25.6169 12.5973 1.85345 -0.377315 -1.04668
14.6989 28.3925 11.1175 -1.03729 -1.0088 0.494526
16.4468 30.544 11.899 -0.730034 -3.5112 -2.70311
16.5176 29.5388 9.20104 -0.26923 0.0850639 -1.87613
18.2654 31.6903 9.98253 -1.74178 -0.648288 1.16374
18.7197 29.0292 10.9858 0.752972 1.21112 -0.843706
20.4675 31.1806 11.7673 1.48758 0.554144 -0.301767
20.5383 30.1755 9.06934 -0.330119 0.119766 2.02672
24.9425 29.1561 12.6389 0.922789 -1.15672 -0.398176
22.7404 29.6658 10.8541 -0.648275 0.632315 -0.220699
25.0132 28.151 9.94093 -0.887765 -0.777174 0.317311
13.9286 8.12303 15.5744 -1.09933 -0.587073 -1.13395
16.2014 6.60824 14.6612 0.145389 -0.170888 -0.296049
17.9493 8.75967 15.4427 -0.75897 -0.142326 1.8183
18.0201 7.75455 12.7447 -0.338356 1.68314 -0.00552213
20.2221 7.24488 14.5295 0.724488 -0.847169 1.05736
18.4035 6.09857 16.446 0.874809 -0.66384 -0.607775
22.4242 6.73521 16.3143 -1.8105 -1.57156 -1.17722
24.2429 7.88152 14.3978 -0.242479 -0.99395 0.869907
26.4449 7.37185 16.1826 -2.62465 0.171199 -0.263123
28.2636 8.51817 14.2661 1.57949 1.05709 0.492519
11.6557 9.63783 16.4875 0.06561 0.859384 -0.784548
11.2015 12.2989 15.4842 -0.50059 1.49974 -0.617531
13.4744 10.7841 14.5711 -0.170158 -0.70662 2.68272
15.6764 10.2745 16.3558 0.648245 0.18868 1.8388
15.7472 9.26934 13.6579 1.79299 -0.965826 0.753158
17.4951 11.4208 14.4394 -2.75251 0.6541 -1.5855
15.293 11.9304 12.6546 -1.23221 0.426802 -0.120345
19.6971 10.9111 16.2241 0.332832 -0.552877 -0.101755
21.97 9.39632 15.311 -1.46861 0.958511 1.4844
19.7679 9.90599 13.5262 -0.168683 -0.562653 0.416411
21.5158 12.0574 14.3077 -1.5242 0.120487 -0.923912
23.7179 11.5478 16.0924 -0.48544 1.4889 -0.471082
25.9907 10.033 15.1793 -1.11742 -0.186822 2.16445
23.7886 10.5426 13.3945 -0.363438 -2.40411 -2.39813
25.5365 12.6941 14.1759 -0.463124 -0.77362 -0.423699
27.7386 12.1844 15.9607 -0.16128 1.46833 1.14001
30.0114 10.6696 15.0476 -0.867955 -0.37689 2.01152
27.8094 11.1793 13.2628 -0.783931 -1.7385 0.270565
8.92864 13.8137 16.3974 -1.29827 -0.834751 -0.618887
8.47441 16.4748 15.3941 -1.04529 0.669015 -0.847237
12.9494 14.4504 16.2657 -0.733672 -0.45391 -0.521425
10.7473 14.96 14.4809 0.148788 -0.981102 0.745016
13.0201 13.4452 13.5677 0.46414 0.0566372 0.144006
15.2222 12.9356 15.3525 1.15481 0.385607 -0.968105
16.9701 15.087 16.134 0.117399 1.70901 2.09297
14.768 15.5967 14.3492 -0.575845 -2.05501 -1.51726
17.0408 14.0819 13.436 -2.58152 -0.549881 0.466184
19.2429 13.5722 15.2208 1.13021 -0.411469 0.824737
20.9908 15.7236 16.0023 0.678834 2.01498 -1.76116
18.7887 16.2333 14.2175 0.114725 2.72417 -0.272526
21.0616 14.7185 13.3043 1.35933 -0.134077 -0.156639
23.2636 14.2089 15.0891 1.2344 2.43531 -0.561421
25.0115 16.3603 15.8706 -1.39745 -0.030553 -3.09784
25.0823 15.3552 13.1726 1.22787 0.514444 0.903317
27.2844 14.8455 14.9574 -0.345236 -2.48475 1.29692
29.5572 13.3307 14.0442 0.393435 0.152053 0.0234566
29.103 15.9918 13.0409 1.90522 -0.0783782 -0.420068
31.7593 12.821 15.829 -0.631914 0.11379 0.524927
31.3051 15.4821 14.8257 0.374845 -0.443787 -1.11924
6.20155 17.9896 16.3073 -0.928618 0.8643 1.79752
8.02019 19.1359 14.3908 0.929453 0.70777 0.251941
10.2223 18.6263 16.1756 0.156487 -0.92317 -0.243271
12.4951 17.1115 15.2624 -1.28007 -1.31776 -0.433279
10.293 17.6211 13.4776 0.675299 -2.25279 1.52896
12.0409 19.7726 14.2591 0.479504 -0.0986957 0.369673
14.243 19.2629 16.0439 -1.67451 -1.11207 0.805809
16.5158 17.7481 15.1307 -1.26933 1.05109 -1.12318
18.2637 19.8995 15.9122 1.35788 0.12079 -0.0163684
14.3138 18.2578 13.3459 0.436104 1.18543 -3.07054
20.5366 18.3848 14.999 0.106672 0.92393 0.795461
18.3345 18.8944 13.2142 0.650647 -0.0151084 0.972766
22.3552 19.5311 13.0825 0.558798 -1.54503 0.624355
22.8094 16.87 14.0858 2.60317 -0.35178 0.498124
24.5573 19.0214 14.8673 0.951584 0.300948 -1.99775
26.3759 20.1677 12.9508 -0.754069 -0.519804 2.26259
29.0322 16.9969 15.7389 -0.125483 -0.435222 1.24112
26.8301 17.5066 13.9541 -1.7086 -0.448467 0.234712
28.578 19.658 14.7356 -1.23031 0.713018 -1.20182
30.8508 18.1432 13.8224 -0.0937493 0.83548 1.21854
33.0529 17.6336 15.6072 1.86198 1.17209 1.7114
34.8008 19.785 16.3887 1.47882 -0.419096 -1.95571
32.5987 20.2947 14.6039 1.47033 -0.515992 -0.884085
5.74733 20.6507 15.304 0.664409 -0.105557 1.87657
7.49519 22.8022 16.0855 -0.0460371 -0.433745 -0.548758
9.76805 21.2874 15.1723 -1.27847 2.50459 0.960015
7.56597 21.797 13.3875 0.210153 0.532112 -0.0949619
9.31382 23.9485 14.169 0.866306 0.842612 -0.201658
11.5159 23.4388 15.9538 0.821617 0.276796 -1.73189
13.7888 21.924 15.0406 -0.441769 -2.26607 -0.783669
11.5867 22.4337 13.2558 -0.888441 -0.141996 1.23969
15.5366 24.0754 15.8221 1.81792 0.0262289 0.18078
16.0616 20.4092 14.1274 -1.15213 0.993428 1.72715
17.8095 22.5606 14.9089 0.712173 1.08602 0.094237
15.6074 23.0703 13.1241 -0.0391692 -1.45106 -0.931802
22.2844 20.5362 15.7805 0.459153 0.485563 -2.44933
20.0823 21.0459 13.9957 0.734537 -0.735317 -0.919675
21.8302 23.1973 14.7772 -1.17234 1.00416 1.93567
19.6281 23.707 12.9924 0.0109737 0.836148 0.0197082
26.3051 21.1728 15.6488 1.18427 0.577407 2.37407
24.103 21.6825 13.864 -0.977209 -1.06639 -0.696791
25.8509 23.8339 14.6455 0.815416 1.29858 1.34356
28.053 23.3243 16.4303 -0.951985 0.529215 0.513326
30.3258 21.8095 15.5171 -0.917034 -1.31773 1.07228
28.1238 22.3191 13.7323 -0.356406 0.688337 0.130138
30.3966 20.8043 12.8191 1.6747 -0.0873483 -0.611984
32.0737 23.9609 16.2986 -0.685225 0.0709387 0.398804
34.3466 22.4461 15.3854 1.97718 -1.42412 -1.63503
32.1445 22.9558 13.6006 -0.368948 0.537651 -0.49007
11.0617 26.0999 14.9505 1.24059 0.295354 -0.830575
13.3345 24.5851 14.0373 -1.27007 0.219173 0.410807
12.8803 27.2462 13.034 0.186522 0.0743786 0.62341
15.0824 26.7365 14.8188 -0.338949 -0.222468 -0.16869
17.3552 25.2217 13.9056 1.06254 1.21371 -0.092513
16.901 27.8829 12.9023 -0.540962 -0.627167 1.95768
19.5573 24.7121 15.6904 -1.62374 0.454382 0.613126
21.3052 26.8635 16.4719 -0.62046 -1.13602 -0.765006
19.1031 27.3732 14.6871 -1.55985 0.464685 2.03082
21.376 25.8584 13.7739 1.39314 -0.895787 -2.47971
23.578 25.3487 15.5587 0.353695 -0.0342928 1.33768
25.3259 27.5002 16.3402 -0.752907 -0.183887 1.57191
23.1238 28.0098 14.5554 -1.69601 0.706664 2.93402
23.6488 24.3436 12.8607 -0.23567 0.416335 -2.06344
25.3967 26.495 13.6422 -0.268184 -0.5676 0.526174
27.5988 25.9854 15.427 -0.492453 -0.942746 -0.0310006
29.8716 24.4706 14.5138 -2.1979 0.291611 -0.529666
27.6695 24.9802 12.729 -0.9177 0.293755 -1.71061
29.4174 27.1317 13.5105 0.00513079 -1.71248 -0.881625
31.6195 26.622 15.2953 -0.0832662 0.819951 -1.46991
33.8923 25.1072 14.3821 -0.209509 3.59783 -0.517879
12.8095 28.2513 15.732 -0.363244 -0.215454 -0.852696
14.5574 30.4028 16.5135 0.907071 0.434236 -1.0464
16.8302 28.888 15.6003 0.423927 -1.5407 -1.16635
14.6282 29.3976 13.8155 1.83455 -0.463189 -0.798412
16.376 31.5491 14.597 0.864241 0.423797 -0.956355
18.5781 31.0394 16.3818 0.961635 0.92937 -0.775243
20.851 29.5246 15.4686 1.1708 -0.4419 1.36935
18.6489 30.0343 13.6838 -0.567948 0.069463 1.72914
20.9217 28.5195 12.7706 0.397566 1.04987 -0.639781
22.5988 31.6761 16.2501 -0.916454 -0.289274 0.893416
24.8717 30.1613 15.3369 0.212345 0.632485 1.04279
22.6696 30.6709 13.5521 -0.654093 0.151349 -1.60883
29.3466 28.1368 16.2085 0.193402 -0.179105 1.55581
27.1445 28.6465 14.4237 0.0214553 -0.311029 -0.450394
18.1239 33.7005 15.3785 0.2197 0.516547 -0.729641
18.1947 32.6954 12.6805 -2.7541 -0.210163 -1.66014
20.3967 32.1857 14.4653 0.986385 -0.805181 0.1109
16.1307 7.61336 17.3592 0.282595 2.4972 -1.38048
16.0599 8.61849 20.0571 -0.0222985 0.0295161 -0.759421
20.1514 8.25001 17.2274 -1.93282 0.133345 -0.424301
18.3327 7.1037 19.1439 0.769111 -0.34061 -1.05676
20.6056 5.5889 18.2308 -0.0978244 1.98033 0.879403
22.3535 7.74034 19.0122 -1.62609 -1.25218 -1.83743
24.1721 8.88665 17.0957 -0.418706 -1.45846 -0.579444
24.6263 6.22554 18.0991 -0.107008 -2.29237 1.46843
26.3742 8.37698 18.8805 1.04845 -1.99632 -0.270609
22.8077 5.07924 20.0155 -0.0264781 0.750547 -1.91125
7.11 12.6674 18.3139 -0.713261 2.0335 -2.30605
9.38286 11.1526 17.4007 -1.10803 0.327727 0.573376
9.31208 12.1577 20.0987 -1.09146 1.33514 -0.44413
13.4036 11.7893 17.269 -0.656134 -0.0718293 -1.71941
11.5849 10.643 19.1855 -1.83863 0.998403 0.610203
13.8578 9.12816 18.2723 -1.08217 -0.297336 -0.0482739
17.4243 12.4259 17.1373 0.514202 0.589648 1.61548
15.6057 11.2796 19.0538 -0.593436 2.30431 -0.954734
17.8785 9.7648 18.1406 -0.068545 -1.83626 -0.770802
19.6264 11.9162 18.9221 -0.90775 1.38486 0.964213
21.8992 10.4014 18.0089 -0.55938 -0.726443 0.462358
20.0806 9.25513 19.9254 0.50874 -0.801077 -0.386324
23.6471 12.5529 18.7904 -0.583304 -0.393671 1.57654
25.9199 11.0381 17.8772 0.0614128 -0.743742 0.0434426
24.1013 9.89177 19.7937 0.695149 -0.441921 1.82736
28.1928 9.52329 16.964 -0.897996 1.87885 -1.1935
29.9407 11.6747 17.7455 0.134039 0.131124 -0.841243
28.122 10.5284 19.662 0.252338 0.638687 1.40973
6.585 16.3336 20.0086 0.807905 -0.0453584 0.660788
8.85786 14.8188 19.0954 -0.559721 -0.0233727 -0.106205
6.65578 15.3285 17.3106 -0.358858 -0.21279 2.94677
11.1307 13.3041 18.1822 -0.107165 0.205153 1.70027
12.8786 15.4555 18.9637 1.16337 -0.544682 -1.0398
10.6765 15.9652 17.1789 0.034831 0.714399 1.43858
13.3328 12.7944 19.967 1.78556 -0.825157 -1.26666
15.1514 13.9407 18.0505 1.60538 0.0747573 -0.8019
16.8993 16.0921 18.832 0.126243 -0.236966 -0.291575
17.3535 13.431 19.8353 1.16492 1.24738 1.56542
19.1721 14.5773 17.9188 -0.105971 -0.54581 -0.566917
21.445 13.0625 17.0056 0.303956 0.909947 1.35537
21.3742 14.0677 19.7036 -1.02946 -0.654824 0.192378
23.1929 15.214 17.7871 0.316266 -0.135291 0.929789
25.4657 13.6992 16.8739 0.698493 0.274755 -1.21458
25.3949 14.7043 19.5719 -0.0981826 -1.02499 0.350826
27.2136 15.8506 17.6554 -0.279545 -0.591211 -1.34223
29.4864 14.3358 16.7422 0.708833 -0.3995 1.80021
27.6678 13.1895 18.6587 0.399477 -1.03935 -2.6729
29.4157 15.341 19.4402 1.22375 0.595314 -0.178465
31.2343 16.4873 17.5237 0.944766 0.207104 1.01556
33.5071 14.9725 16.6105 -0.900919 0.295655 0.561319
31.6885 13.8262 18.527 -0.999229 -0.404529 -1.7574
33.4364 15.9776 19.3085 -0.330414 -1.76636 -0.101805
6.13078 18.9947 19.0053 -0.939412 -0.0242745 1.41
8.40364 17.48 18.0921 -0.30642 1.9754 0.210341
7.94941 20.1411 17.0888 -0.57019 0.491779 2.07352
10.6057 16.9703 19.8769 1.04035 0.502942 1.1995
10.1515 19.6314 18.8736 -0.119314 -0.917895 0.25275
12.4243 18.1166 17.9604 0.0388993 -0.308063 2.11059
14.6264 17.6069 19.7452 0.850336 1.9848 -0.221414
14.1722 20.268 18.7419 0.847612 0.481782 0.976967
14.6972 16.6018 17.0472 -1.43117 -1.30711 0.272555
16.4451 18.7532 17.8287 0.106569 -1.74549 -0.509022
18.6471 18.2436 19.6135 -1.95478 -0.278531 -1.87746
20.92 16.7288 18.7003 -1.58927 0.11871 -0.939892
18.7179 17.2384 16.9155 0.80431 -0.235078 0.427483
20.4658 19.3899 17.697 0.796372 -1.16983 0.441523
22.6679 18.8802 19.4818 -1.7672 2.00792 0.437268
24.9407 17.3654 18.5686 1.02546 -0.080887 0.264269
26.6886 19.5168 19.3501 0.288272 1.29449 0.775587
22.7386 17.8751 16.7838 0.569542 0.258015 0.308792
24.4865 20.0265 17.5653 -2.4884 0.599491 0.849925
26.7593 18.5117 16.6521 1.33634 0.123043 1.85449
28.9614 18.0021 18.4369 -0.336305 0.0531804 0.925313
30.7093 20.1535 19.2184 -1.125 -0.333742 -1.37787
30.7801 19.1484 16.5204 -0.0359184 -0.800329 1.51119
27.1428 16.8557 20.3534 -1.4923 0.921721 -0.0806422
32.9821 18.6387 18.3052 3.54147 -0.576939 0.485135
35.255 17.1239 17.392 -0.790122 -1.989 -0.231686
31.1635 17.4924 20.2217 -0.539639 2.7084 0.393002
35.1842 18.129 20.09 1.96 -0.258684 -1.52103
7.87863 21.1462 19.7868 -0.238398 -1.20411 0.899468
5.67655 21.6558 18.002 0.144264 0.302238 -0.616146
7.42441 23.8073 18.7835 1.39713 0.0531652 -1.11944
9.69727 22.2925 17.8703 -0.184405 -1.31769 -1.99504
11.8993 21.7828 19.6551 -1.00775 -0.861075 1.52308
11.9701 20.7777 16.9571 0.738597 -0.587609 1.05411
13.718 22.9291 17.7386 -2.35966 1.28603 0.649571
15.9201 22.4195 19.5234 -1.1443 -0.109686 0.682135
18.1929 20.9047 18.6102 -0.476942 0.52629 1.00749
15.9908 21.4143 16.8254 -0.28577 0.535589 0.42609
17.7387 23.5658 17.6069 0.656589 0.87184 -0.532247
19.9408 23.0561 19.3917 -0.750846 0.43258 0.133836
22.2136 21.5413 18.4785 0.730168 2.0962 -0.475713
20.0116 22.051 16.6937 1.12538 1.53765 1.03814
21.7594 24.2024 17.4752 -0.507902 2.58681 0.696746
24.4157 21.0316 20.2633 0.603807 2.37912 -2.79108
23.9615 23.6927 19.26 -0.918963 0.646332 -1.24598
26.2343 22.178 18.3468 0.0929881 0.24399 -1.49272
24.0323 22.6876 16.562 0.146474 0.238611 1.12889
28.4364 21.6683 20.1316 1.253 0.617351 1.30804
28.5072 20.6632 17.4336 0.210272 0.591719 -0.869121
30.2551 22.8146 18.2151 -0.407978 -2.20674 -0.793023
32.4571 22.3049 19.9999 0.681222 -0.540901 2.38811
34.73 20.7901 19.0867 0.393212 0.822927 0.501125
32.5279 21.2998 17.3019 0.503835 0.344641 -0.698771
34.2758 23.4512 18.0834 0.378992 0.907733 0.723176
9.17227 25.9587 19.565 -1.495 0.198231 -1.1136
9.24304 24.9536 16.867 0.0573362 -0.549318 -0.795112
11.4451 24.4439 18.6518 -0.703243 2.19304 -0.45077
13.193 26.5954 19.4333 -0.387265 0.227864 -0.454457
10.9909 27.105 17.6485 0.189209 1.23423 0.92799
13.2638 25.5902 16.7353 -0.343829 2.36112 1.01058
17.6679 24.5709 20.3049 -2.0941 1.42134 -0.149727
15.4658 25.0806 18.5201 -0.674157 1.32022 0.5746
17.2137 27.232 19.3016 0.16408 1.61365 -0.420132
15.0116 27.7417 17.5168 0.799663 -1.24577 -0.775097
17.2845 26.2269 16.6036 0.0625017 -2.61236 1.36075
21.6886 25.2075 20.1732 1.29664 2.00092 -0.366669
19.4866 25.7172 18.3884 1.48767 2.09986 1.20981
21.2344 27.8686 19.1699 1.61885 -0.888166 0.794754
25.7093 25.8442 20.0415 -0.746542 -0.19207 0.897469
23.5073 26.3538 18.2567 -0.616898 0.517527 1.71256
25.7801 24.8391 17.3435 2.17446 1.29237 0.259772
27.9822 24.3294 19.1283 -1.05533 0.410221 -0.472598
29.7301 26.4808 19.9098 0.516168 -1.00838 1.17241
27.528 26.9905 18.125 -1.38211 1.81721 -0.0781197
29.8008 25.4757 17.2118 0.0718093 1.03561 -0.687919
32.0029 24.966 18.9966 -0.497693 0.752115 -1.39673
33.7508 27.1175 19.7781 2.99513 -0.604471 0.419614
31.5487 27.6271 17.9933 -1.78383 1.80047 0.558734
33.8216 26.1123 17.0801 0.0910326 0.235526 0.789633
10.9201 28.1102 20.3465 1.09537 0.784546 -0.259278
12.7388 29.2565 18.43 -1.1148 -1.07997 -0.37835
14.9408 28.7468 20.2148 0.172201 0.483854 0.0452507
14.4866 31.4079 19.2115 -0.182392 2.01468 1.2954
16.7595 29.8931 18.2983 -1.21048 -1.83953 -1.17793
18.9615 29.3834 20.0831 -0.759063 -2.19455 -0.214109
19.0323 28.3783 17.3851 0.871639 -0.797617 -0.902747
20.7802 30.5297 18.1666 0.821055 0.218814 -0.0473459
22.9823 30.0201 19.9514 -1.022 -0.584072 -0.242408
25.2551 28.5053 19.0382 0.450141 0.635179 -1.13443
23.053 29.0149 17.2534 0.487944 -0.420333 1.42119
24.8009 31.1664 18.0349 0.103398 2.1868 -0.798374
27.003 30.6567 19.8197 2.67972 -0.781616 1.41632
29.2758 29.1419 18.9065 -1.83805 0.428491 0.535561
27.0738 29.6516 17.1217 2.3378 1.73124 1.30748
16.2345 33.5593 19.993 0.94012 -1.92292 -1.22967
16.3052 32.5542 17.295 0.191756 2.30383 -1.84121
18.0531 34.7056 18.0765 1.08931 0.0782409 -1.75823
18.5073 32.0445 19.0798 0.88167 0.00821518 1.98228
20.2552 34.196 19.8613 1.33005 0.66078 0.0875903
20.326 33.1908 17.1633 -0.598966 0.952468 0.87186
22.528 32.6812 18.9481 -1.50372 -0.469476 0.904903
18.262 8.10882 21.8419 -0.151354 -0.0755327 -0.337307
20.5348 6.59403 20.9287 -0.549347 -0.675528 0.393584
22.2827 8.74547 21.7102 -0.900855 -0.149038 -3.11519
20.464 7.59916 23.6267 -0.322073 -0.582233 0.180576
24.5555 7.23067 20.797 -0.133456 0.461109 0.202302
22.7369 6.08436 22.7135 1.24336 1.64117 0.835271
24.4848 8.2358 23.495 -1.71927 -0.0126442 0.218783
11.5142 11.6481 21.8835 2.01739 -0.975023 0.227385
13.787 10.1333 20.9703 -0.364866 -0.139521 -0.429311
13.7162 11.1384 23.6683 -0.149708 1.04009 -1.40579
15.5349 12.2847 21.7518 -1.0394 -0.983579 -0.806189
17.8077 10.7699 20.8386 -2.41809 1.79325 -1.15054
15.9891 9.62362 22.7551 1.04626 2.07904 1.5908
17.737 11.7751 23.5366 -0.062775 0.715789 -1.29964
21.8285 11.4066 20.7069 -0.275176 0.543184 -1.17457
20.0098 10.2603 22.6234 0.058235 0.813602 -3.19519
21.7577 12.4117 23.4049 1.00339 0.286631 -0.672525
25.8492 12.0432 20.5752 0.917522 0.713538 -1.40233
24.0305 10.8969 22.4917 1.34628 1.08651 -0.368277
26.3034 9.38211 21.5785 -0.239435 0.94525 -0.328626
29.8699 12.6798 20.4435 0.268803 -0.867105 -0.0857534
28.0512 11.5335 22.36 -0.636252 -0.307823 0.360267
7.03923 13.6725 21.0119 -1.00806 3.06106 -2.41949
8.78708 15.824 21.7934 -0.135917 0.164718 -2.062
6.96845 14.6777 23.7099 0.532316 0.547108 -0.0988546
9.24131 13.1629 22.7967 0.205524 1.13547 -1.08258
11.0599 14.3092 20.8802 0.883063 0.668409 1.43897
12.8078 16.4606 21.6617 2.24386 -0.260626 0.0372857
10.9892 15.3143 23.5782 -0.883611 0.0153053 -1.08898
13.262 13.7995 22.665 1.74507 0.630588 0.557359
15.0807 14.9458 20.7485 -0.588724 1.16423 1.9353
15.0099 15.9509 23.4465 -0.83236 -2.51153 2.97621
17.2827 14.4362 22.5333 -0.274244 0.734339 1.86573
19.1014 15.5825 20.6168 1.19546 1.22614 0.505347
19.5556 12.9214 21.6201 -0.0486729 -0.73175 -1.38087
21.3034 15.0728 22.4016 -0.86195 1.2049 -0.754043
23.1221 16.2191 20.4851 0.940028 0.540267 1.78954
23.5763 13.558 21.4884 -1.78302 1.0718 0.928795
25.3242 15.7094 22.2699 0.108036 0.56995 0.178685
23.5055 14.5631 24.1864 -1.26898 1.49994 -1.63693
25.7784 13.0483 23.2732 -1.75478 0.6473 0.610472
27.597 14.1946 21.3567 -1.16527 -1.61494 -1.13638
29.3449 16.3461 22.1382 -0.746656 0.625676 0.249708
27.5262 15.1998 24.0547 0.736329 1.65026 -1.707
29.7991 13.685 23.1415 1.2445 1.05423 0.667829
31.6177 14.8313 21.225 -1.05482 -0.823087 -0.189884
31.547 15.8364 23.923 -0.0484341 1.12893 -0.336979
6.06 19.9999 21.7033 0.473846 0.446523 -0.949694
8.33286 18.4851 20.7901 0.122223 -0.221874 1.23944
6.51422 17.3388 22.7066 -0.321241 0.234029 -0.564788
8.26208 19.4902 23.4881 0.932028 -0.341821 -0.0150914
12.3536 19.1217 20.6584 -1.4087 -0.652787 -2.05426
10.5349 17.9754 22.5749 -1.08617 -1.06276 0.498643
12.2828 20.1268 23.3564 -0.42524 -0.146512 -0.866832
16.3743 19.7584 20.5267 0.763321 -0.908707 1.79415
14.5557 18.612 22.4432 -0.897671 0.770421 -1.05904
16.8285 17.0973 21.53 -0.555493 0.327204 0.772594
16.7577 18.1024 24.228 -3.40211 0.14292 -1.0916
18.5764 19.2487 22.3115 -1.85464 -2.31627 1.75509
20.8492 17.7339 21.3983 -0.855225 -0.20796 0.500121
19.0306 16.5876 23.3148 -0.417093 -0.354517 0.703342
20.7784 18.739 24.0963 0.533223 0.0589363 1.39061
22.5971 19.8853 22.1798 0.667998 0.880982 0.331275
24.8699 18.3705 21.2666 0.910464 0.275706 1.58372
23.0513 17.2242 23.1831 -0.104867 1.04696 0.914084
24.7992 19.3757 23.9646 -1.12052 -2.07212 -0.337083
28.8907 19.0072 21.1349 -0.451632 -0.0624864 0.61315
27.072 17.8609 23.0514 -0.284949 1.33011 -0.832552
28.8199 20.0123 23.8329 0.414586 0.353722 -0.720214
32.9114 19.6438 21.0032 -0.235897 -1.17252 -0.477255
31.0927 18.4975 22.9197 -0.396484 -0.33105 0.957245
33.3656 16.9827 22.0065 0.281173 -1.90095 -2.01588
35.1134 19.1342 22.788 0.740241 -0.641274 -1.71404
5.535 23.6661 23.398 1.08795 0.399293 1.06153
7.80786 22.1513 22.4848 1.07461 0.994218 0.429756
5.60578 22.661 20.7 1.00994 0.919829 -0.052921
9.62649 23.2976 20.5683 -0.330409 -0.386603 0.331307
10.0807 20.6365 21.5716 0.440211 -0.013071 -0.277375
11.8286 22.7879 22.3531 -1.0204 0.979734 -0.863793
13.6472 23.9343 20.4366 -0.758447 -0.618395 0.348001
10.0099 21.6416 24.2696 1.28981 -0.649368 -0.508357
14.1014 21.2732 21.4399 0.0688021 0.304836 1.29159
15.8493 23.4246 22.2214 -0.450696 -1.20559 0.0375605
18.1221 21.9098 21.3082 1.68909 -0.63513 0.0955839
14.0307 22.2783 24.1379 0.0253278 -1.06807 1.56684
16.3035 20.7635 23.2247 0.736118 -0.621294 -0.894369
18.0514 22.9149 24.0062 -0.0930237 -0.720587 0.379498
19.87 24.0612 22.0897 2.40435 -1.06093 -0.461189
20.395 20.395 20.395 -0.512602 0.465287 -1.85321
22.1429 22.5464 21.1765 -1.40135 -0.462887 -0.564108
20.3242 21.4001 23.093 -0.168069 -0.464026 1.9311
22.0721 23.5516 23.8745 0.208637 -2.61225 -0.0621986
26.1636 23.1831 21.0448 0.237475 1.27724 0.600631
24.3449 22.0368 22.9613 -2.62978 -0.471407 1.36273
26.0928 24.1882 23.7428 -1.07629 -0.262411 -0.158372
26.6178 20.522 22.0481 -1.16255 -0.735523 0.615446
30.1843 23.8197 20.9131 -0.32642 -0.43296 -1.41477
28.3657 22.6734 22.8296 0.797725 -0.149288 -1.18607
30.6385 21.1586 21.9164 1.78855 1.19227 -1.11334
32.3864 23.31 22.6979 -0.70064 1.55169 0.801367
34.6592 21.7953 21.7847 -2.07675 -1.13685 -0.343401
32.8406 20.6489 23.7012 -0.296709 -0.908284 0.594397
7.28285 25.8175 24.1795 0.891048 0.167156 0.0396548
9.55571 24.3027 23.2663 1.41252 0.475231 0.579544
7.35363 24.8124 21.4815 0.0585979 -0.809804 1.45028
9.10149 26.9638 22.263 0.703835 0.653998 1.21177
11.3036 26.4542 24.0478 -1.33187 1.17336 0.993358
13.5764 24.9394 23.1346 1.03244 -0.171308 0.877951
11.3743 25.449 21.3498 1.05111 0.366177 0.965156
13.1222 27.6005 22.1313 -0.122817 2.25775 0.273721
15.3243 27.0908 23.9161 0.876338 -0.712246 1.19114
17.5971 25.576 23.0029 -2.78252 -1.76693 -0.224667
15.3951 26.0857 21.2181 -1.01406 -0.332869 0.916026
19.345 27.7275 23.7844 -2.19079 -0.349035 -0.265373
21.6179 26.2127 22.8712 0.298358 -1.83441 0.269107
19.4158 26.7223 21.0864 0.811659 -0.126966 0.270537
23.8907 24.6979 21.958 0.94834 -1.41849 -1.63836
25.6386 26.8493 22.7395 -1.30048 -0.479258 -1.8411
23.4365 27.359 20.9547 -0.0770269 -1.60293 -0.200357
27.9114 25.3345 21.8263 -0.975095 0.0379613 1.05749
29.6593 27.4859 22.6078 1.73024 -0.402183 -0.284144
27.4572 27.9956 20.823 -0.171811 -1.26978 1.41689
30.1135 24.8248 23.6111 -0.604966 0.432177 -0.509531
31.9321 25.9712 21.6946 0.823132 1.56046 0.0134415
34.205 24.4564 20.7814 0.0643384 -0.281489 -0.419483
34.1342 25.4615 23.4794 -0.788393 -0.725571 0.588132
10.8493 29.1153 23.0445 1.07756 -0.134026 0.0245167
12.5972 31.2667 23.826 -0.465458 0.164872 0.0142208
12.668 30.2616 21.128 -2.18807 0.848916 0.605343
14.8701 29.7519 22.9128 -1.09243 -1.22761 1.13709
17.1429 28.2371 21.9996 -0.349681 -1.51581 0.429365
16.6887 30.8982 20.9963 0.94963 -1.19058 -0.0425485
18.8908 30.3886 22.7811 -0.086746 -1.63043 -0.178048
21.1636 28.8738 21.8679 -0.0755299 -1.20153 -0.653109
20.7094 31.5349 20.8646 1.36128 -0.260923 0.471428
23.3657 28.3641 23.6527 1.04593 1.61913 -1.74427
22.9115 31.0252 22.6494 0.551102 0.661377 -1.44687
25.1843 29.5104 21.7362 2.14237 -1.18306 2.31497
27.3864 29.0007 23.521 0.180632 0.840294 -0.99224
26.9322 31.6618 22.5177 1.47931 -1.54634 1.00749
29.2051 30.147 21.6045 -0.862802 -1.20458 -1.05607
31.4071 29.6374 23.3893 0.184893 -1.20605 0.812361
33.68 28.1226 22.4761 -0.274908 -0.317594 0.105411
31.4779 28.6323 20.6913 1.23656 -0.941572 -0.66405
16.6179 31.9034 23.6943 0.46268 -0.666498 0.871268
14.4158 32.413 21.9095 0.0972199 0.212382 0.76107
16.1637 34.5645 22.6909 0.608356 -0.842767 -0.575269
17.9823 35.7108 20.7745 -0.476163 -0.170767 -1.76912
20.6386 32.54 23.5626 1.44942 2.1568 0.6965
18.4365 33.0497 21.7778 -0.464424 -0.566189 1.86987
20.1844 35.2011 22.5592 -0.721886 -0.223673 0.709745
22.4573 33.6863 21.6461 0.623301 -0.11356 1.02931
24.6593 33.1766 23.4308 -0.984597 -1.23829 1.64
24.7301 32.1715 20.7329 -2.33735 -1.99785 1.262
20.3933 8.60428 26.3247 -1.01743 0.476875 0.452492
22.6661 7.08949 25.4115 0.460203 0.196137 1.01811
22.5953 8.09461 28.1095 -0.768013 -1.62685 -0.895313
11.4434 12.6532 24.5815 -2.31657 -1.96133 -1.67828
13.6455 12.1435 26.3663 1.02138 -1.36123 0.449972
15.9183 10.6287 25.4531 0.33133 -1.6292 -0.762912
18.1912 9.11395 24.5399 0.422809 1.18809 -1.41695
18.1204 10.1191 27.2379 0.101214 -1.33013 -0.32116
19.939 11.2654 25.3214 0.423861 0.268715 -2.10148
22.2119 9.75059 24.4082 -0.178678 -0.328038 0.310787
19.8683 12.2705 28.0194 2.68119 0.975927 1.19758
22.1411 10.7557 27.1062 -1.52331 -0.345328 -1.15976
23.9598 11.902 25.1897 2.60343 -0.351537 1.07536
26.2326 10.3872 24.2765 1.30006 -0.289566 0.121879
24.414 9.24092 26.193 0.312563 -0.270545 -1.77117
26.1618 11.3924 26.9745 -0.502275 -1.33515 -0.372486
27.9805 12.5387 25.058 0.601416 -0.752405 -1.55784
6.89767 15.6828 26.4079 0.85573 0.716232 1.05045
9.17053 14.168 25.4947 0.844129 0.284865 -0.263024
10.9184 16.3194 26.2762 1.76996 -1.98334 0.00976507
13.1912 14.8046 25.363 -0.519748 1.37015 2.62233
11.3726 13.6583 27.2795 -0.945537 1.16583 0.907552
13.1205 15.8098 28.061 -0.315425 -1.21709 0.18792
15.4641 13.2898 24.4498 0.0114011 1.19698 1.14259
17.212 15.4413 25.2313 -0.265516 1.02714 0.581054
15.3933 14.295 27.1478 0.758236 -0.37418 0.0489111
17.1412 16.4464 27.9293 0.0499687 -1.37935 0.355094
17.6662 12.7802 26.2346 -0.738412 0.586908 -0.615682