ITEM: TIMESTEP
0
ITEM: NUMBER OF ATOMS
831
ITEM: BOX BOUNDS ss ss ss
4.2422423705195316e+00 3.5077312762283732e+01
4.2421140245357138e+00 3.6477033826571649e+01
7.3049038324539124e+00 3.3485096881772527e+01
ITEM: ATOMS x y z vx vy vz
16.9652 7.75905 10.3431 0.997478 1.53755 -0.587166
14.8591 9.65785 9.82628 1.40586 0.111512 2.26749
13.2064 11.8038 10.9576 -0.613823 1.67696 -0.739975
12.5097 9.03848 11.3771 1.04601 0.0267638 1.04315
17.6619 10.5244 9.92359 1.27186 -0.0127167 0.507916
23.2676 12.2574 10.1182 0.331694 1.51463 1.11886
20.4648 11.3909 10.0209 -0.302533 0.855351 -0.278146
22.5709 9.49209 10.5378 -0.436352 -0.814911 -0.126905
19.7681 8.62558 10.4405 0.0580118 -1.72696 -0.589622
25.3737 10.3586 10.6351 -1.18684 -1.13252 -1.10364
30.9794 12.0917 10.8297 -0.845427 -1.77143 -0.78414
28.1766 11.2251 10.7324 -2.39319 0.110546 -0.518067
15.5558 12.4232 9.40673 0.0993941 0.0421273 -0.829884
13.9031 14.5691 10.538 1.7382 -0.552829 0.515832
19.0553 16.055 9.0845 -2.07109 0.232709 2.09517
16.5236 14.0175 11.6044 -0.150114 2.36098 -1.08871
16.2525 15.1885 8.98718 0.897527 0.258751 0.358325
18.3586 13.2897 9.50405 1.22183 0.495021 -0.151264
21.1615 14.1562 9.60136 -0.661999 1.4227 0.84551
26.7672 15.8893 9.796 -1.13293 -0.87937 0.685807
23.9643 15.0227 9.69868 -0.590568 -0.825896 0.520915
26.0705 13.1239 10.2155 -0.620584 -0.776436 0.475526
28.8733 13.9905 10.3129 -1.2927 1.37738 -1.55542
31.6761 14.857 10.4102 0.242876 -0.0175102 0.748407
15.2965 20.0997 9.69895 0.736732 -0.0483474 1.85125
14.5998 17.3344 10.1185 0.29075 1.63402 -0.124396
12.9471 19.4804 11.2498 -0.823677 -0.00933624 -0.0119597
17.917 19.5482 10.7653 1.60897 -1.6337 1.0002
17.2203 16.7829 11.1848 -0.632687 -0.034832 0.402531
16.9492 17.9538 8.56763 0.185357 0.110347 0.788114
22.826 18.5159 11.3795 0.195941 0.730129 -0.769145
22.5549 19.6868 8.76226 1.07737 1.54005 0.436127
20.0232 17.6494 11.2822 -1.71121 1.69071 0.575398
19.752 18.8203 8.66495 0.833788 -0.48397 -0.842998
21.8582 16.9215 9.18182 -1.15405 -0.133748 -0.26932
25.6289 19.3824 11.4768 -2.58296 -0.624257 0.51143
24.661 17.7881 9.27913 -0.885436 0.28279 0.0575996
27.4639 18.6546 9.37645 -0.202433 -0.207668 -0.283965
29.6496 19.4373 11.0848 -0.825297 -0.327424 0.571119
29.57 16.7558 9.89331 0.24992 2.41471 -1.30527
31.7557 17.5385 11.6016 -0.0809991 0.610032 -1.21489
13.6438 22.2457 10.8303 1.0014 0.771592 0.198472
18.6137 22.3135 10.3457 -1.71102 1.95866 0.423367
18.3426 23.4844 7.72853 0.710976 2.31165 -2.83113
17.6459 20.7191 8.14808 -0.14766 -0.722457 2.68306
15.9932 22.8651 9.2794 -0.723891 -1.29829 -1.10118
21.4166 23.18 10.4431 -1.31663 -0.540392 -0.571778
21.1454 24.351 7.82585 1.08393 -1.52187 -1.65974
23.2516 22.4522 8.34272 0.115467 -0.349553 2.13166
20.7199 20.4147 10.8626 -0.490874 1.50302 -0.616735
20.4487 21.5856 8.2454 -0.687997 -0.482265 -0.527576
23.5227 21.2812 10.9599 0.0740707 0.699172 1.46326
25.4373 23.2349 10.051 1.44781 0.0389371 0.00461524
25.3577 20.5534 8.85958 0.166161 2.64834 -0.239048
27.5435 21.3361 10.5679 1.12148 -1.85444 -0.321006
14.3405 25.011 10.4107 0.380491 -0.172509 0.880813
19.3104 25.0788 9.92619 0.0856308 0.574275 0.23344
19.0393 26.2498 7.30898 -1.27033 -0.374261 0.543184
16.9611 24.4594 11.4771 2.17734 -0.311405 0.560826
16.6899 25.6304 8.85986 1.00687 0.492867 -0.890236
18.4714 27.8232 9.65637 -1.59772 -1.18378 1.21791
16.122 27.2038 11.2072 -0.437894 1.44891 -0.524509
21.4962 25.8615 11.6345 0.4242 -1.91082 0.252275
21.225 27.0324 9.01732 1.2134 1.54229 -1.78023
23.4108 27.8151 10.7256 -0.205977 -0.400407 0.314512
23.3312 25.1337 9.53418 -0.905921 -0.89675 1.52677
25.5169 25.9163 11.2425 0.773773 0.803333 -0.528216
20.6571 28.6059 11.3647 -0.703077 -2.1471 -0.258636
15.4013 7.31595 15.0607 0.400849 0.57954 -1.43368
12.7808 7.86752 13.9944 0.323734 -0.233329 1.10467
18.2042 8.18247 15.158 -0.127014 1.04824 -0.287549
17.5075 5.41715 15.5776 -0.255734 -0.171151 0.804976
17.2363 6.5881 12.9603 -0.949664 0.572311 0.0212682
23.1132 7.15019 15.7722 1.47588 0.814879 -1.57392
20.3103 6.28367 15.6749 0.0804873 0.488402 0.436486
20.0392 7.45462 13.0577 0.684536 -0.53866 0.0629612
25.916 8.01671 15.8695 0.0665061 -1.61141 0.77637
11.1282 10.0135 15.1257 0.437685 0.547133 -1.04472
10.857 11.1844 12.5085 0.627904 -0.619703 0.61645
14.4454 12.2272 15.7725 0.50994 -0.0508825 -0.310216
15.1302 8.4869 12.4435 -1.90699 0.644152 -0.591566
13.4775 10.6328 13.5748 -0.371115 -1.17419 0.190371
18.9009 10.9478 14.7385 -0.0218283 -0.81105 0.0869291
18.6298 12.1187 12.1212 0.355493 -1.12872 -2.6526
16.098 10.0813 14.6411 -2.74983 0.123151 -0.233421
15.8269 11.2522 12.0239 -0.975904 1.82031 -1.17667
17.9331 9.35342 12.5408 2.2019 2.05693 1.12794
21.7037 11.8143 14.8358 -0.486161 -0.16008 0.671211
21.007 9.04898 15.2553 -0.162955 0.70024 -1.8549
20.7359 10.2199 12.6381 -0.233246 0.388773 0.263351
22.842 8.32114 13.155 -0.666342 2.55711 -0.280385
26.6127 10.782 15.45 -0.702431 1.33481 -0.0238078
26.3416 11.953 12.8328 0.55522 0.974233 0.378438
23.8099 9.91551 15.3526 -1.84956 0.562178 0.692665
23.5387 11.0865 12.7354 0.693235 1.55057 -1.64569
25.6449 9.18766 13.2523 -1.03125 0.314092 -0.0678465
29.4156 11.6486 15.5473 -0.0324278 0.727791 -3.10768
28.7189 8.88324 15.9668 0.368204 1.80378 -1.5381
28.4477 10.0542 13.3496 0.528669 -2.1002 -0.210476
31.2506 10.9207 13.4469 2.10169 -1.75552 1.16112
7.55167 15.4763 14.7711 -0.843349 0.529341 -1.09457
11.8249 12.7788 14.7061 -0.0725471 0.394768 -1.03245
11.5537 13.9497 12.0889 0.983564 -1.31737 0.428396
10.1722 14.9247 15.8374 2.67952 -0.226884 0.674
9.90105 16.0957 13.2202 0.862554 -0.438394 -0.517737
9.20434 13.3304 13.6398 0.740622 -0.408206 0.340217
15.1421 14.9925 15.3529 -0.295076 -1.3496 -0.694959
14.8709 16.1635 12.7357 -0.601818 -2.50962 -1.60532
14.1742 13.3982 13.1553 1.53418 -0.390225 0.579279
12.5216 15.5441 14.2866 0.504394 0.644546 -0.128939
17.4915 15.6119 13.802 -0.90314 -1.41116 1.0874
19.5976 13.7131 14.3189 0.296014 0.495661 -0.714223
19.3265 14.8841 11.7017 0.227001 0.588788 -2.55117
16.7948 12.8466 14.2216 -0.840729 -2.16531 0.243293
22.4004 14.5796 14.4162 -1.68873 1.09959 1.55571
22.1293 15.7506 11.799 1.92148 -0.514869 -1.01579
21.4326 12.9853 12.2186 1.80426 1.08156 -1.07275
25.2033 15.4461 14.5135 -0.889173 0.17658 -1.66367
27.3094 13.5474 15.0304 0.907185 0.444504 1.88169
27.0383 14.7183 12.4132 0.914755 0.158057 1.66717
24.5066 12.6808 14.9331 0.777294 -0.722215 -0.540393
24.2354 13.8518 12.3159 -2.00924 0.0592149 -0.363361
28.0061 16.3127 14.6109 -0.222096 -0.693606 0.598409
30.1123 14.4139 15.1277 0.476511 1.10858 -0.117824
29.8411 15.5848 12.5105 0.794307 -0.364117 -0.791559
29.1444 12.8195 12.9301 0.955493 0.177418 -0.577952
32.2184 12.5151 15.6446 -0.382975 -2.32361 1.05704
31.9473 13.686 13.0274 -0.558295 0.298657 0.835529
34.133 14.4687 14.7357 2.4775 0.3124 0.839283
33.8619 15.6397 12.1185 -0.665241 -0.146247 -0.603757
5.899 17.6222 15.9024 -1.23034 -1.00234 -0.332881
10.8689 17.69 15.4179 -0.243394 0.711149 -1.75701
10.5978 18.861 12.8007 -0.536271 2.3353 0.738675
8.24838 18.2416 14.3516 0.188012 -0.645631 -0.278876
15.5677 18.9288 12.3162 2.04319 -1.53661 -1.66181
13.2183 18.3094 13.867 0.801913 -0.0429735 0.117174
12.2504 16.7151 11.6694 -0.583249 -1.15226 -1.3672
19.156 19.9716 15.5801 -0.114813 -0.5691 -0.571613
18.4593 17.2063 15.9997 -0.030964 -1.6499 -0.199614
18.1882 18.3772 13.3825 2.23855 -1.24796 2.32274
15.8388 17.7578 14.9334 1.49611 -0.602877 -0.899032
20.991 19.2437 13.4798 -0.880039 -1.31749 1.65589
23.0971 17.3449 13.9967 -1.77661 0.317189 0.571607
20.2943 16.4784 13.8994 0.117845 0.941788 -0.670952
23.7939 20.1103 13.5771 -1.30404 -0.838565 -0.598583
25.9 18.2115 14.094 -1.26316 0.378425 -0.0709833
24.9322 16.6171 11.8963 0.0762912 -1.8616 -0.837402
28.0857 18.9942 15.8023 -1.63948 0.607148 3.00655
27.8146 20.1651 13.1851 0.3172 0.512181 1.09689
27.735 17.4836 11.9937 0.10652 -0.455911 -0.391301
29.9207 18.2663 13.702 1.19993 1.13532 0.583878
32.1065 19.049 15.4103 -0.208078 0.174035 -0.814825
31.8353 20.2199 12.7931 0.39775 -1.47137 0.116371
32.0269 16.3675 14.2189 0.997133 2.00151 1.69975
34.2126 17.1502 15.9272 -2.0854 -1.80903 0.596066
33.9415 18.3212 13.31 -1.00986 0.0555765 -0.9742
7.29241 23.1529 15.0634 1.57182 -0.106876 -1.62351
6.5957 20.3876 15.4829 0.398223 0.331799 -2.19626
9.64179 23.7723 13.5125 1.48535 0.692198 -0.0023326
11.5656 20.4554 14.9983 1.29902 -0.102007 -0.39475
11.2945 21.6263 12.3811 -0.319981 0.384279 1.04249
8.94508 21.0069 13.932 0.275267 2.65967 -0.47046
14.8828 22.6691 15.6451 0.322543 -0.551789 -0.141683
14.6117 23.8401 13.0279 0.330805 0.899124 1.31635
12.2623 23.2207 14.5788 0.158829 0.223784 -1.56326
13.915 21.0747 13.4475 -0.33994 -0.158449 -1.83148
19.5816 23.9079 12.5434 -1.23328 1.19389 0.972597
17.2322 23.2885 14.0943 0.0584505 -0.475699 0.530163
18.8849 21.1425 12.9629 -1.56937 0.078899 -0.954243
16.5355 20.5232 14.5138 -0.681569 -0.239213 0.878646
16.2644 21.6941 11.8966 -0.0662146 -1.34351 1.39357
19.8527 22.7369 15.1606 1.48965 0.512097 0.563895
21.9589 20.8381 15.6775 -1.94786 -0.314254 -1.8777
21.6877 22.0091 13.0603 -0.460057 0.4135 -1.86082
23.8735 22.7917 14.7686 -0.275146 1.99682 0.221461
23.6023 23.9627 12.1514 -0.0496553 -0.933538 0.256612
25.9796 20.8929 15.2855 -0.571696 -2.10871 -1.48994
25.7084 22.0639 12.6683 -1.23188 0.994966 -1.10109
27.8942 22.8466 14.3766 -0.799429 -0.39577 0.933052
27.623 24.0175 11.7594 1.23116 -1.00078 -1.2262
30.0003 20.9478 14.8935 -0.125253 -0.863663 0.119374
29.7292 22.1187 12.2762 2.38377 -1.65274 -0.303717
31.9149 22.9014 13.9846 -0.996176 0.685425 0.506889
34.1006 23.6841 15.6929 -0.355534 0.132521 -3.49253
34.0211 21.0026 14.5014 -0.792669 -0.398133 -0.614136
11.4232 25.9651 14.309 0.961361 0.235533 -0.13441
9.07386 25.3457 15.8599 -0.993491 0.766594 -0.0419739
11.9912 24.3917 11.9616 -0.958814 0.370616 -0.544753
14.0438 25.4135 15.3753 -1.36488 -0.0543706 -3.17365
13.7726 26.5844 12.7581 1.422 0.0797538 1.79978
13.2047 28.1579 15.1055 -0.500527 -1.13928 -0.852576
19.0137 25.4813 14.8908 -2.0942 -0.371361 -0.301436
18.7425 26.6522 12.2736 -1.73166 0.382103 -0.200818
16.3931 26.0329 13.8244 -1.46404 0.935821 1.44977
18.1746 28.2256 14.621 -1.09764 -0.248516 2.13665
21.7673 24.6905 14.2517 2.50505 -1.11253 -0.474735
20.9282 27.4349 13.9819 -0.851818 0.171107 0.546451
23.114 28.2176 15.6902 0.303014 0.467629 0.0224984
23.953 25.4732 15.9601 -0.893105 0.00473121 1.41444
23.6819 26.6442 13.3429 -0.150738 -1.20227 0.893456
25.8676 27.4269 15.0512 -0.570653 1.28367 0.578552
25.788 24.7454 13.8597 -0.211332 0.485499 0.443157
27.9738 25.5281 15.5681 -0.46142 0.872273 0.897763
27.7026 26.699 12.9508 -0.583775 0.660782 0.731697
29.8884 27.4817 14.6592 -0.0593226 -1.44998 0.640736
29.8088 24.8002 13.4677 -0.55385 1.09701 1.9899
31.9945 25.5829 15.176 1.58676 -1.32179 -0.545218
15.5541 28.7772 13.5546 -0.281341 -2.55524 1.24262
14.9861 30.3507 15.902 -1.06764 1.00112 1.86733
17.9034 29.3966 12.0038 -0.0986692 1.39583 1.09879
17.3355 30.97 14.3511 0.456092 -0.534887 -1.18458
20.0892 30.1793 13.7121 0.274704 0.209507 0.711667
22.8428 29.3886 13.073 1.12224 -1.23684 -0.0733102
22.2749 30.962 15.4204 -0.226495 2.54945 -0.278415
25.5965 28.5978 12.434 0.30973 1.55844 -0.429427
25.0286 30.1712 14.7814 0.321087 0.540205 -0.114677
27.7822 29.3805 14.1423 1.95434 -1.28062 0.610305
29.968 30.1632 15.8507 -1.05608 1.31324 -0.427951
11.6704 7.67155 20.3601 -0.120765 -0.033714 0.503964
15.6725 6.14499 17.6779 0.0066585 -1.1014 1.83899
13.3231 5.52562 19.2288 1.07739 -0.146627 1.38016
13.052 6.69657 16.6116 -1.23782 0.326446 0.0354627
16.6403 7.73935 19.8755 -0.324819 -1.24428 -0.438142
18.7465 5.84056 20.3924 -0.792836 -0.356094 0.428728
18.4753 7.01151 17.7752 1.13609 0.993468 0.730564
15.9436 4.97404 20.2951 0.871289 -0.404288 -0.158932
17.7786 4.24619 18.1948 -0.551151 2.38329 0.425997
21.2782 7.87803 17.8725 1.19827 0.759291 0.31195
23.3843 5.97924 18.3894 -1.07305 -0.0373232 1.33016
20.5815 5.11272 18.2921 -1.05928 -1.11769 0.391544
26.1872 6.84575 18.4867 -0.329964 2.70697 1.15173
28.99 7.71229 18.584 -0.319003 -0.907135 -1.22263
11.3993 8.84251 17.7429 1.23758 1.47376 -0.632471
9.74662 10.9884 18.8742 -0.284493 -0.182282 -0.62867
9.47548 12.1594 16.257 -0.673109 1.48721 -1.31396
14.7165 11.0562 18.3897 1.90653 -0.333486 -1.51385
14.0198 8.29094 18.8092 -2.38687 -0.203792 0.120754
13.7487 9.46189 16.192 -1.04217 1.24284 0.92166
12.3671 10.4369 19.9405 -0.869304 -1.58852 0.59696
12.096 11.6078 17.3233 -1.13396 1.11205 -0.688879
17.337 10.5047 19.456 -0.571979 0.0804465 1.76102
17.0659 11.6756 16.8388 1.02863 -0.819606 0.12593
19.4432 8.60588 19.9729 -1.97916 -1.60293 -1.12578
19.172 9.77683 17.3557 -0.542023 -1.50954 -0.532052
16.3692 8.91031 17.2583 -2.139 -1.22876 -0.311018
22.9427 12.2377 19.6506 1.10708 0.455529 0.513905
20.1399 11.3712 19.5533 1.84558 -0.449016 -0.768386
22.246 9.4724 20.0702 -0.20528 -1.08743 0.422376
21.9749 10.6434 17.453 -1.57015 0.850169 -0.0190857
25.0489 10.3389 20.1675 -0.650694 0.333817 -0.43203
24.7777 11.5099 17.5503 0.110926 0.357219 -0.342404
26.8839 9.61108 18.0672 0.427511 1.00525 1.23405
24.081 8.74456 17.9698 1.2321 1.02429 -0.284234
30.6546 12.072 20.3621 -2.69355 -0.576635 1.47834
27.8517 11.2054 20.2648 -1.02587 1.33469 1.0666
29.6867 10.4776 18.1645 -0.280531 -0.14612 -0.225793
32.4896 11.3441 18.2618 -0.362017 -0.522157 0.632805
34.6753 12.1268 19.9701 -0.735519 1.56528 -1.66459
31.7929 8.5788 18.6813 -0.0106085 0.502777 -0.907025
31.5217 9.74976 16.0641 -2.10981 0.0195302 0.396723
8.09394 13.1344 20.0055 1.14664 0.766826 0.539521
7.8228 14.3053 17.3883 -0.98355 0.933779 -1.33958
10.4433 13.7538 18.4546 -1.72623 -0.226703 0.00521073
8.79065 15.8997 19.586 -0.818221 0.670388 -0.668839
15.4132 13.8216 17.9701 -0.648964 -2.09549 -0.756903
13.7605 15.9675 19.1014 -0.0296236 -1.02638 0.790968
13.0638 13.2022 19.521 0.996025 -0.778132 -0.606291
12.7927 14.3732 16.9038 0.830918 0.465724 -0.267226
18.7304 16.0353 18.6169 1.31333 1.99512 -0.359384
18.0337 13.27 19.0364 -1.77389 -0.496161 0.259998
17.7626 14.4409 16.4192 -1.25552 0.651672 -1.19233
16.3811 15.4159 20.1678 1.85889 -0.122019 -0.41733
23.3683 16.174 16.6139 -1.35534 1.73429 -0.0381143
20.8366 14.1365 19.1338 1.16213 0.52166 2.42372
20.5654 15.3075 16.5166 -0.949165 0.452831 0.544732
22.6716 13.4087 17.0334 -0.449997 2.79741 0.813397
19.8687 12.5422 16.9361 0.906973 0.422733 -0.934744
26.4423 15.8696 19.3284 0.476615 0.551812 -1.08101
23.6394 15.003 19.2311 2.18446 1.22678 0.309231
25.7456 13.1042 19.7479 0.522148 1.59488 -0.0109839
25.4744 14.2752 17.1307 0.340311 -0.854364 0.0828307
28.5484 13.9708 19.8453 0.394267 -0.856048 -0.337806
28.2773 15.1417 17.2281 -0.226699 0.31637 -1.99865
30.463 15.9244 18.9364 -0.673909 2.26043 -0.86963
30.3834 13.2429 17.7449 -1.09379 -0.38679 -0.0590534
27.5806 12.3764 17.6476 -1.11098 -0.737129 0.282802
32.5691 14.0256 19.4533 0.785358 0.611739 -1.73024
32.298 15.1966 16.8361 0.583687 -0.588486 0.790642
34.4837 15.9792 18.5444 -0.620112 -0.171052 -1.05932
34.4042 13.2978 17.3529 1.27408 -0.2138 -0.4105
6.86684 19.2166 18.1001 0.359861 1.27684 -1.50027
6.17013 16.4513 18.5196 0.587007 0.0787986 -0.35873
4.51746 18.5972 19.651 -0.748709 1.40334 0.476438
4.24632 19.7682 17.0338 -1.35916 2.05044 0.595985
11.8367 19.2844 17.6156 -0.988503 1.93344 0.531328
11.14 16.5191 18.0351 0.31668 2.55654 -1.19576
9.48736 18.665 19.1664 1.85806 -0.994324 -1.75268
9.21622 19.836 16.5492 1.1092 0.597536 0.242064
8.51951 17.0707 16.9688 -0.607213 -2.02793 -0.798067
14.4573 18.7328 18.6819 -0.119081 2.08034 1.26574
14.1861 19.9038 16.0647 1.04722 -1.90036 -1.28141
13.4894 17.1385 16.4842 2.56288 -1.57856 -1.8025
12.1079 18.1135 20.2328 -0.00831616 1.26183 2.12091
19.4271 18.8006 18.1973 0.471637 0.593274 1.63089
17.0778 18.1813 19.7482 0.72906 2.10299 -0.48746
16.8066 19.3522 17.131 -0.89229 0.624389 -1.26968
16.1099 16.5869 17.5506 -0.114311 0.776758 1.22324
22.23 19.6672 18.2947 0.107868 -0.252091 -0.275164
21.5333 16.9018 18.7142 -0.0403313 -1.2398 -0.635464
21.2622 18.0728 16.097 0.627223 0.613506 -1.44131
24.3361 17.7684 18.8115 1.51986 2.12395 0.733952
24.065 18.9393 16.1943 -0.075276 -1.00722 -1.89287
26.2507 19.722 17.9027 0.43699 0.0354902 0.188423
26.1711 17.0405 16.7112 2.75637 -0.893524 1.47696
28.3569 17.8232 18.4195 1.43021 -0.984199 -2.43094
30.5426 18.6059 20.1279 -0.176912 -0.545247 2.0178
30.2715 19.7768 17.5107 0.239274 -2.72623 0.00548924
30.1919 17.0954 16.3192 1.1319 1.17704 1.65758
32.3776 17.878 18.0275 -0.302967 0.952669 0.676969
34.5633 18.6607 19.7359 0.513126 -0.0232515 -0.821831
34.2922 19.8317 17.1187 1.59975 2.93205 -1.97203
7.83468 20.811 20.2978 -0.668632 -3.44203 -2.80701
7.56355 21.982 17.6806 -2.66708 -0.142293 -1.76551
5.21417 21.3626 19.2314 -0.748296 1.17077 -2.13552
4.94304 22.5336 16.6142 2.0116 -0.854064 0.121562
6.99562 23.5554 20.028 -0.510561 0.155773 0.786271
4.3751 24.107 18.9616 1.19954 0.237003 1.22341
10.1841 21.4304 18.7469 -1.14446 -1.78183 -1.26015
9.91292 22.6014 16.1297 0.997072 0.0562234 1.9108
9.34499 24.1748 18.4771 0.767979 -1.08075 1.26879
15.154 21.4982 18.2623 -0.812867 -0.118508 1.79696
12.8046 20.8788 19.8132 0.563527 0.278607 0.263656
12.5334 22.0498 17.196 -2.47477 0.601696 0.800412
14.3149 24.2425 17.9925 1.24486 2.44609 -0.615081
11.9655 23.6232 19.5434 0.123819 -2.57128 1.29682
17.7745 20.9466 19.3287 1.07246 -0.129621 0.860222
17.5033 22.1175 16.7115 0.952758 -0.694042 1.16772
19.5559 23.1394 20.1252 -0.418672 -1.19214 0.0182515
19.2848 24.3103 17.508 -2.72666 -1.77708 -0.252992
16.9354 23.691 19.0589 -0.203119 -0.393968 0.0723661
20.395 20.395 20.395 0.470952 0.52394 -0.959169
20.1239 21.566 17.7778 1.11249 1.05444 0.420745
22.3096 22.3486 19.4861 0.779935 -0.918702 1.80863
22.0384 23.5196 16.8689 1.74836 -0.663904 0.0927547
24.2242 24.3023 18.5773 1.41526 -1.23479 -2.06167
24.4157 20.4498 20.003 -1.07835 -0.581537 0.460067
24.1446 21.6208 17.3858 -0.365191 -0.183645 2.98119
26.3303 22.4035 19.0941 -1.28598 -1.33784 -0.40617
26.0592 23.5744 16.4769 -1.6454 -1.15132 0.832571
28.2449 24.3571 18.1853 1.07089 0.8694 -0.751349
28.4365 20.5047 19.611 -1.52115 0.40326 2.09203
28.1653 21.6756 16.9938 1.26257 -0.528919 1.41923
30.351 22.4583 18.7021 -1.88558 0.970945 0.672158
30.0799 23.6293 16.0849 1.79684 -0.883504 -1.22304
32.4572 20.5595 19.219 1.25694 0.258186 -0.00774068
32.186 21.7305 16.6018 -0.882373 -0.688742 -1.43435
34.3718 22.5132 18.3101 -1.21019 0.611222 0.852862
6.72448 24.7264 17.4107 -1.01636 -1.56365 2.09391
6.15654 26.2998 19.7581 2.60556 -0.293797 0.970354
11.6944 24.7941 16.9262 0.974933 -0.766409 -0.987249
11.1264 26.3675 19.2736 -1.58654 1.45474 1.64235
10.8553 27.5385 16.6564 -0.0804821 -1.09083 0.580681
8.50593 26.9191 18.2073 -1.04035 -0.903147 -0.913602
13.747 25.816 20.3399 0.765193 1.13632 0.0266331
13.4758 26.9869 17.7227 -1.54691 0.480671 0.541017
16.6643 24.8619 16.4417 0.704412 -0.859927 1.02777
18.7169 25.8837 19.8554 0.126037 -0.369802 -0.451921
18.4457 27.0547 17.2382 -0.254945 -1.03995 0.842135
16.0963 26.4353 18.789 -0.374257 -2.43342 -2.45876
15.8252 27.6063 16.1718 -0.437214 -0.813876 -0.480428
21.4705 25.093 19.2163 -0.893272 -0.464604 2.02003
21.1994 26.264 16.5991 -0.618564 0.00855127 0.517351
20.6314 27.8374 18.9465 1.20401 0.825692 -0.299569
23.3851 27.0467 18.3074 -0.296987 0.23052 -0.472593
26.4099 25.085 20.2856 0.775651 -0.594458 1.07583
26.1388 26.2559 17.6684 -2.30319 1.26964 0.661457
25.5708 27.8293 20.0158 -0.303835 0.418232 -0.487554
28.3245 27.0386 19.3767 0.315252 2.27093 -1.83708
28.0534 28.2096 16.7595 1.25529 0.0121273 -1.76112
30.4306 25.1398 19.8936 0.773207 -0.67946 -0.85617
30.1595 26.3108 17.2764 -0.0234178 -0.799685 0.41755
32.3452 27.0934 18.9847 -0.535602 -1.51158 1.9263
32.0741 28.2644 16.3675 -0.727927 1.48991 1.20707
32.2656 24.412 17.7933 -0.517956 1.32162 2.69785
34.4514 25.1946 19.5016 -0.0455256 3.02081 -0.602746
34.1802 26.3656 16.8844 1.58256 0.310585 -0.971046
10.2874 29.1119 19.0038 1.6844 -1.56977 -1.08137
15.2573 29.1797 18.5192 0.812941 -0.728044 -0.996999
12.9079 28.5603 20.0701 0.9038 0.0524885 0.396602
12.6368 29.7313 17.4529 -1.11266 -0.425233 -1.30344
14.4182 31.9241 18.2494 -0.621996 1.27103 1.53547
12.0688 31.3047 19.8003 -0.021411 -0.690342 -1.48722
17.8778 28.6281 19.5855 -0.783984 -1.79636 0.228255
17.6067 29.7991 16.9683 0.437485 0.0847527 -0.0277828
17.0387 31.3725 19.3157 1.28895 -0.649219 -0.153372
19.5212 31.7527 16.0595 0.335367 0.11764 -1.08341
20.3603 29.0083 16.3293 -2.06109 0.870075 0.562542
19.7924 30.5818 18.6767 1.75565 -0.686783 2.32162
22.546 29.791 18.0376 -0.976982 -1.32462 0.169171
21.9781 31.3644 20.385 1.55966 -0.252085 -0.336635
25.2997 29.0003 17.3986 -0.106171 3.47572 -0.523026
24.7318 30.5737 19.746 -2.17406 -0.409394 1.22258
24.4606 31.7447 17.1288 0.403067 0.557148 0.920112
27.2143 30.9539 16.4897 0.12744 -1.10906 1.56989
27.4854 29.783 19.1069 -0.363034 -0.161827 -0.870334
30.2391 28.9922 18.4679 -1.07162 -0.133705 -1.5449
29.4 31.7366 18.198 0.119641 0.328395 1.14352
32.4248 29.7749 20.1762 1.47477 -0.547939 -1.25789
32.1537 30.9459 17.559 0.894508 0.254031 -0.236356
34.2598 29.0471 18.0759 -0.492924 -1.48848 -0.315109
16.7676 32.5434 16.6985 0.661443 -1.57494 0.552083
16.1997 34.1169 19.0459 0.608745 -0.260205 0.665728
18.9533 33.3261 18.4069 0.362513 1.44363 0.465577
21.707 32.5354 17.7678 -0.248122 0.287288 -0.617714
21.139 34.1088 20.1152 -1.12021 -1.6856 -1.19255
23.8927 33.3181 19.4761 -0.103505 -2.37186 1.45168
26.6464 32.5273 18.8371 0.348951 -2.04988 -2.03309
31.5857 32.5193 19.9064 0.469609 0.16115 1.28577
14.2909 7.11998 21.4264 -1.13701 -0.58035 -1.73606
17.8793 8.16277 24.6904 -0.51897 1.02298 -1.37082
16.9115 6.5684 22.4927 -0.667619 2.67941 0.444642
19.7143 7.43493 22.5901 -0.866136 -0.808608 0.652183
21.5493 6.70708 20.4897 0.0946171 -0.421618 -0.989017
24.3522 7.57361 20.587 -1.06532 -0.198041 -3.0395
10.9856 11.4119 23.6891 0.63961 -0.277691 0.0326337
10.0178 9.8175 21.4914 1.48385 1.48662 -1.79866
8.36508 11.9634 22.6227 0.87821 1.12736 1.44807
15.2588 8.71434 23.6241 -1.14439 -0.439456 -1.73658
14.9876 9.8853 21.0069 -0.434409 -1.82951 -0.0789265
13.6061 10.8603 24.7554 1.06685 -1.32472 -0.0316787
13.335 12.0312 22.1382 0.03926 0.827258 2.09437
12.6383 9.26593 22.5577 1.15977 -0.161196 -0.782306
18.576 10.9281 24.2709 1.58416 0.406803 2.16446
18.3049 12.099 21.6536 1.14224 0.492669 0.939966
17.6082 9.33372 22.0732 -0.582142 -0.599847 1.99838
15.9555 11.4797 23.2045 0.37252 1.07867 -0.633212
21.3789 11.7946 24.3682 2.5146 -0.372175 0.55195
23.2139 11.0668 22.2678 0.6905 -1.82154 0.360066
20.411 10.2002 22.1705 0.150732 0.112015 0.669148
22.5171 8.30145 22.6874 -0.730507 -0.432101 1.66267
26.0167 11.9333 22.3651 0.721707 0.459456 0.300523
25.32 9.16797 22.7847 0.722792 -0.230648 -1.10497
27.155 8.44013 20.6844 -1.01605 -0.300292 0.957941
30.9257 10.901 22.9793 0.585967 0.803923 0.448426
28.1228 10.0345 22.882 -0.219124 -1.88467 -0.670935
29.9578 9.30664 20.7817 0.180422 0.528377 -0.720084
32.7607 10.1732 20.879 0.551379 -1.87716 -1.89466
6.71241 14.1094 23.754 0.326105 1.96495 0.000105372
6.44127 15.2803 21.1368 0.728234 -0.854272 -0.45276
11.6823 14.1772 23.2695 0.925141 1.28348 1.05403
11.4112 15.3481 20.6523 0.424097 0.467693 -0.769155
10.0296 16.3231 24.4008 0.106579 1.28503 -1.13627
10.7145 12.5828 21.0719 -0.0354425 -1.30903 0.333082
9.06179 14.7288 22.2032 0.220394 -1.53816 -0.809417
15.6844 12.6506 20.5873 -0.647907 0.154601 -1.61536
14.3028 13.6256 24.3358 0.911492 -1.14887 -0.409344
14.0317 14.7966 21.7186 2.22631 -0.853395 -0.706697
19.2727 13.6934 23.8513 -0.545102 0.552693 1.03772
19.0016 14.8644 21.2341 -0.783283 0.438083 0.151513
16.6522 14.245 22.785 1.45578 -1.67049 1.51151
22.0756 14.5599 23.9486 -2.14517 1.43893 -0.114171
21.8044 15.7309 21.3314 0.814676 -0.138671 0.301017
21.1077 12.9656 21.751 0.890787 0.263964 -1.96584
24.8784 15.4264 24.0459 -0.364242 -1.52915 0.480279
26.9846 13.5277 24.5628 -0.561568 2.55543 0.775748
26.7134 14.6986 21.9456 -0.63389 0.453839 1.78993
24.1817 12.6611 24.4655 0.38464 0.456026 -2.40051
23.9106 13.8321 21.8483 0.107459 0.187289 1.19087
28.8991 15.4813 23.6539 -0.383651 -1.21834 -0.342098
28.8196 12.7998 22.4625 -0.509351 -1.42138 0.129516
31.0053 13.5825 24.1708 -1.01127 0.391755 0.483351
30.7341 14.7535 21.5536 -1.20277 -0.335881 0.0495674
32.9199 15.5361 23.2619 -0.2611 1.00641 -1.30634
32.8403 12.8547 22.0705 0.603473 1.27539 -1.25273
34.7549 14.8083 21.1616 1.66525 -0.406082 -2.56518
5.75645 19.0207 24.4658 1.14336 -0.0327974 0.0884305
5.48531 20.1917 21.8486 0.682786 0.808988 1.65873
7.40911 16.8747 23.3345 1.31135 0.586529 -1.3701
7.13797 18.0457 20.7173 -1.98441 0.0523145 -0.793728
4.7886 17.4263 22.2682 -0.745476 0.371917 -1.17873
10.7263 19.0885 23.9813 -0.347418 2.48379 0.955992
10.4552 20.2594 21.3641 0.839983 -1.16429 -0.847494
8.10582 19.6401 22.915 -1.01496 -0.904827 0.416599
9.7585 17.4941 21.7836 -0.951541 0.138039 -1.15021
15.6962 19.1563 23.4968 0.209399 -1.24481 0.794401
15.4251 20.3272 20.8795 0.0594093 -0.126877 -0.322094
13.0757 19.7079 22.4304 0.636145 2.06608 -1.81075
14.9995 16.3909 23.9163 0.180058 1.33609 0.911213
14.7284 17.5619 21.2991 -1.09417 -1.01182 -0.410172
12.379 16.9425 22.85 0.502364 -0.130141 1.6595
18.3168 18.6047 24.5631 0.402199 0.0702469 -0.286771
18.0456 19.7756 21.9459 -1.02954 1.04843 -0.884078
17.3489 17.0103 22.3654 0.758342 -1.16154 0.442575
20.6661 19.224 23.0122 -1.67762 1.37232 0.502909
22.8519 20.0067 24.7205 1.10768 -0.511858 -1.02668
22.7723 17.3253 23.5291 -0.753635 -0.045283 -1.69624
22.5011 18.4962 20.9119 1.55824 0.0817914 -0.780933
19.9694 16.4587 23.4318 -1.22582 -0.549525 -1.11941
19.6983 17.6297 20.8145 0.569149 0.210349 1.863
24.6869 19.2789 22.6202 0.508802 -0.676166 0.903623
24.6073 16.5974 21.4287 -0.0624851 -1.66479 -0.138143
26.8726 20.0616 24.3285 0.67609 -0.162874 1.07479
26.793 17.3801 23.1371 -1.01002 -0.645113 -0.190306
26.5219 18.551 20.5199 -2.29566 -2.08741 1.31528
28.7076 19.3337 22.2282 1.07907 1.17696 -0.0360635
28.628 16.6522 21.0367 0.00275296 0.778097 0.0904143
30.8933 20.1164 23.9365 0.109123 -0.0258031 0.494407
30.8137 17.4349 22.7451 -1.91053 -2.38783 1.84827
32.9995 18.2176 24.4534 -1.16014 1.78466 -0.285943
32.7283 19.3886 21.8362 0.537138 2.89717 -0.272999
32.6487 16.7071 20.6447 -0.0617553 1.14384 1.24925
34.9141 20.1713 23.5445 1.04595 -2.5853 -1.18365
34.8345 17.4898 22.3531 -0.21353 -0.859203 1.1384
7.26676 22.3845 22.6452 -3.4414 0.252358 -1.19039
4.91737 21.7651 24.196 0.944768 0.716763 -1.00617
4.64623 22.936 21.5788 -0.426677 0.499282 0.104068
9.88727 21.8329 23.7115 0.798828 1.29552 -0.926453
9.61613 23.0038 21.0943 1.57498 0.614397 -0.388887
11.6687 24.0256 24.508 -0.597318 0.680988 -0.29694
14.8572 21.9006 23.2269 -0.240936 -0.528467 0.383402
14.586 23.0716 20.6097 -1.56698 0.138259 -0.972163
12.2366 22.4522 22.1606 1.85207 0.102911 0.11754
17.4777 21.3491 24.2933 -0.329537 -0.469283 -1.44159
17.2065 22.52 21.6761 0.863957 1.51529 -0.012632
16.6386 24.0934 24.0234 3.05142 -0.659584 0.385173
19.8271 21.9684 22.7424 0.066522 0.347362 1.28702
22.5807 21.1777 22.1033 0.830148 2.01187 -0.211069
22.0128 22.7511 24.4507 0.385023 0.736312 0.511925
21.7417 23.9221 21.8335 1.531 0.998017 0.49976
24.7664 21.9604 23.8117 1.12068 -0.101246 0.0391036
24.4953 23.1313 21.1945 -0.393946 0.179019 0.0212459
26.681 23.914 22.9028 0.152875 -0.911599 -0.221536
26.6015 21.2325 21.7113 0.113823 -0.978873 0.786432
28.7872 22.0152 23.4197 -0.311814 -0.248372 -0.126289
28.516 23.1862 20.8025 0.492772 -1.59458 -1.13721
30.7018 23.9689 22.5108 -0.907321 0.740651 -1.01429
30.6222 21.2874 21.3193 -1.83052 -0.769268 0.700357
32.8079 22.0701 23.0277 0.778806 -0.460067 1.81509
32.5368 23.241 20.4105 -2.36246 -2.00874 -1.6201
34.9936 22.8527 24.736 1.83117 1.40127 0.288583
34.7225 24.0237 22.1188 -0.117888 -0.479189 -0.941116
34.6429 21.3422 20.9273 -0.182418 1.90536 2.04805
6.42768 25.1288 22.3753 -0.229923 -0.249803 0.208868
11.3976 25.1966 21.8908 1.39575 0.16184 -0.883504
9.04821 24.5772 23.4417 -1.95293 0.753524 0.141048
8.77707 25.7482 20.8245 -0.399226 -0.0338567 -0.527046
10.8297 26.77 24.2382 0.53915 0.127411 1.31053
10.5585 27.941 21.621 0.449752 1.70692 -0.62475
8.20913 27.3216 23.1718 -0.285294 -0.247756 -0.231033
14.0181 24.645 22.9571 -1.14718 1.06355 1.67648
15.7995 26.8378 23.7536 -0.523419 0.716604 0.493201
15.5284 28.0087 21.1364 0.691262 0.0166817 0.913874
13.179 27.3894 22.6873 -0.750525 0.415391 1.95896
18.988 24.7128 22.4726 0.709179 -0.610353 2.37939
16.3675 25.2644 21.4062 0.482809 0.958336 0.231709
18.1489 27.4572 22.2028 0.901326 1.92299 0.64761
21.1737 25.4955 24.1809 1.4329 0.130806 -1.14969
20.9026 26.6664 21.5637 -1.43862 0.256351 -1.15132
20.3347 28.2398 23.9111 0.269301 -0.231995 1.53034
23.0883 27.4491 23.272 -2.15823 0.216285 -0.543523
23.9274 24.7047 23.5419 -0.167564 -1.28324 -2.00707
23.6562 25.8757 20.9246 -0.652094 2.2274 -0.461382
25.842 26.6584 22.633 1.71431 -0.190018 -0.60267
28.8668 24.6967 24.6111 -0.317561 -0.222187 -0.827854
28.5956 25.8677 21.9939 0.997393 0.410896 -1.03018
28.0277 27.4411 24.3413 -0.146649 0.191918 -2.0574
30.7814 26.6503 23.7023 0.187331 -1.30593 0.260317
30.5102 27.8213 21.0851 0.500275 1.43769 0.124348
32.8875 24.7515 24.2191 1.00251 -1.1835 -1.81447
32.6164 25.9225 21.6019 -2.39882 0.999001 -1.79903
34.8021 26.7052 23.3103 0.400504 0.0923711 1.09852
34.531 27.8761 20.6931 0.289315 -0.397364 -1.71437
7.93799 28.4926 20.5546 -0.892188 -0.101363 -0.774161
9.99058 29.5144 23.9684 1.27985 -0.251587 0.0232468
9.71945 30.6853 21.3512 0.614473 -0.737457 -1.67367
14.9605 29.5822 23.4838 -0.172839 0.140794 -1.96881
14.6893 30.7531 20.8666 -1.61659 -0.617152 1.08111
12.34 30.1338 22.4175 -2.44182 1.8696 -1.24806
14.1214 32.3265 23.214 -0.349936 0.404457 1.40291
17.581 29.0306 24.5501 -3.23559 -1.01788 0.406264
17.3099 30.2015 21.9329 1.66333 1.69638 -1.58934
16.7419 31.775 24.2803 -0.357412 -1.91904 -0.0133406
19.4956 30.9842 23.6413 1.10946 0.77322 -1.48386
19.2244 32.1552 21.0241 -0.494439 -3.01115 -0.415015