ITEM: TIMESTEP
0
ITEM: NUMBER OF ATOMS
888
ITEM: BOX BOUNDS ss ss ss
5.7547095835842006e+00 3.4220683527778633e+01
4.8273188474673931e+00 3.5792830296072857e+01
5.9577397199328379e+00 3.5265441123199388e+01
ITEM: ATOMS x y z vx vy vz
16.409 11.7376 9.63616 1.59083 -0.539473 -1.76959
13.6043 14.9557 7.30358 1.34155 0.0730848 0.410193
11.5736 14.2286 9.05525 -1.0582 -0.532811 -0.255035
14.779 16.3153 9.31765 0.19977 0.0744172 0.36572
16.9443 14.4486 9.36051 0.24938 -0.368575 -1.11278
16.2685 15.8593 6.91292 1.33963 0.830208 0.195114
14.1835 13.4653 9.58816 2.2824 2.12027 1.01941
15.7505 13.1911 7.31949 -0.864902 -0.655029 0.135463
19.6827 15.3251 9.10771 -0.603804 1.43991 -0.146846
21.8217 13.475 9.13219 -2.13703 -0.805477 0.851666
21.1493 14.9584 6.81766 1.78384 1.06664 2.06746
19.0842 12.5719 9.35875 -0.145334 -1.04344 0.615305
18.4126 14.0503 7.0442 2.13498 -1.67008 0.960955
22.4101 16.2308 8.89669 0.282363 0.14455 0.626464
24.5576 14.3896 8.93543 -1.3084 1.99608 0.677869
23.8877 15.8683 6.62059 1.01965 -1.51674 2.0428
27.2102 15.3249 8.80057 0.456358 1.89424 0.0572085
12.629 19.6867 8.39562 2.38957 -1.49874 -0.412378
12.0526 16.9066 8.66473 -0.925943 1.26851 0.843398
15.3528 19.1161 9.02401 1.74463 -0.633891 2.3228
17.5165 17.2299 9.02255 -1.07063 -0.0139219 -1.60882
16.8489 18.6382 6.64224 -1.06705 1.45021 -0.484619
14.1565 17.7301 6.97382 -1.74883 -0.648477 0.58065
18.0934 20.0116 8.74947 2.4741 1.73066 1.28386
20.2504 18.1261 8.79534 -0.985401 3.18647 -2.4555
19.5959 19.541 6.41372 -0.0843289 0.277342 -2.09486
21.7517 17.6623 6.46505 0.336631 0.640156 -0.851907
19.0144 16.7534 6.67692 0.640129 1.09964 0.26389
25.7317 19.9527 8.46961 2.30363 -2.30524 -1.35225
22.9795 19.044 8.59966 1.55683 -0.198679 -0.305309
25.1346 17.1686 8.72671 0.889611 0.735336 -1.84123
24.4903 18.5895 6.27646 0.676678 -0.443168 0.684793
27.9367 18.033 8.52339 -0.842832 -0.554261 -1.49137
27.1911 19.4678 6.25147 -0.968883 0.836885 0.455513
29.4743 20.1739 7.66887 -0.567086 1.47196 -1.25292
26.5445 16.7756 6.48411 0.845629 -0.901103 -0.385684
30.2042 18.7978 10.0113 -0.166954 -0.21428 -0.577399
13.2075 22.4669 8.13375 0.899647 -1.47714 -0.843914
11.1348 21.6434 9.92919 -0.994119 -0.259885 -0.213075
15.9321 21.903 8.75176 3.11943 -0.651554 0.39313
15.3149 23.3002 6.43079 0.542761 0.983014 0.249191
17.433 21.4169 6.37805 -3.1755 -0.998148 0.436168
14.7336 20.5178 6.69568 0.314461 0.18853 -1.06741
21.4154 23.7239 8.32713 -0.641832 -0.192317 0.903098
18.6758 22.797 8.49514 0.628352 -1.03442 1.16406
20.8296 20.9202 8.53761 -0.511065 -1.11581 -0.781818
20.187 22.3314 6.16477 0.627203 -0.397988 1.41514
23.5701 21.845 8.3877 1.92247 0.0837027 0.183363
22.9031 23.2307 6.06298 0.184811 -2.56681 1.36972
25.9718 22.5146 9.80997 -1.6098 -0.620483 1.18157
25.2996 23.8945 7.41432 -0.62871 1.28423 1.64414
25.0572 21.3501 6.12966 -1.15591 0.265748 1.26022
22.3395 20.4615 6.21712 -0.259933 0.35934 -0.576692
28.102 20.6105 9.92683 -0.61236 -0.151233 -0.146532
27.4475 22.0194 7.47246 0.863638 -0.347052 1.76257
29.7304 22.6449 8.98373 1.13413 0.0511987 1.07669
12.3868 27.1837 9.48494 0.76813 -0.579303 2.37405
13.7954 25.2544 7.88884 0.427636 -0.473012 -1.14503
11.7239 24.4345 9.68109 1.24994 0.12794 -1.8156
17.113 27.452 8.27511 0.92234 -0.154091 -0.0513464
15.0319 26.6449 10.0404 1.09354 0.595858 1.18443
14.4424 28.01 7.68909 -1.34052 -0.565622 -2.081
16.5146 24.6784 8.49387 0.359561 1.29795 0.764432
15.8977 26.0798 6.17108 1.35331 0.616969 1.30089
19.2672 25.5924 8.28069 -1.70646 2.0369 0.439845
18.5995 26.9769 5.96182 0.699354 2.40862 -2.80038
21.6629 26.2612 9.70332 1.4016 2.02875 -0.357234
20.9933 27.6446 7.33137 0.0474914 -1.59084 -0.18875
20.7507 25.1052 6.00977 -0.0397407 -1.27551 1.42617
18.0257 24.2032 6.13116 1.37695 -0.968191 -0.678344
23.8212 24.3897 9.74761 -1.20746 2.60149 0.975275
23.1512 25.769 7.36363 0.926624 0.363697 -1.72631
25.5312 26.4243 8.81438 1.0247 -2.88208 0.648539
27.6887 24.548 8.86645 1.48488 -0.429544 -1.25719
16.4968 28.7768 5.99991 0.877584 0.0830178 0.656893
16.2447 30.1001 8.41801 0.842772 -0.851161 1.80109
19.4857 28.1239 9.69551 -1.90321 -0.240135 -1.87559
18.8139 29.4616 7.35051 -0.429995 0.505849 -1.84993
18.597 30.8227 9.8308 -0.910333 -0.273976 0.929507
21.1822 30.1043 8.80377 0.931117 -0.0900579 0.292569
23.3698 28.3017 8.77924 0.747763 0.00874839 1.90634
12.7954 11.3767 13.8007 1.12145 0.189105 0.808367
14.8259 12.062 11.9717 -0.0308008 1.09368 -0.402956
17.0418 10.3224 12.0362 -0.173717 0.482515 -0.466253
21.0105 12.4409 13.8918 -0.893211 -0.231692 0.814877
18.2588 11.5811 14.1416 0.742465 1.63039 -1.76536
20.3913 9.7204 14.1802 -0.0348637 1.4249 1.2224
19.7369 11.137 11.7648 -0.0328057 -1.65049 -0.60291
25.8915 11.5478 13.7553 -0.672147 0.280996 -1.11221
23.1456 10.6191 13.9579 -0.0779843 0.0434696 -0.17935
22.4861 12.0382 11.5389 -0.586396 -0.978903 0.27639
28.545 12.5207 13.6034 -0.919252 0.882468 -1.29044
13.3227 14.0619 13.5248 -0.997261 -0.591108 -1.82857
12.7137 15.4995 11.1184 -2.25688 -0.195582 0.0346909
12.1405 12.7977 11.41 0.696083 -1.40166 1.06775
10.63 14.6718 12.8714 0.393901 -1.05503 -2.04107
10.083 16.1196 10.5052 -1.14871 -0.817115 0.832229
16.6708 16.269 13.8973 0.283999 -0.219312 1.51447
16.0697 13.4508 14.1344 -0.102644 -1.33031 0.547814
15.4288 14.8694 11.7453 -0.461271 -1.92825 -0.716985
17.6088 12.9976 11.7439 0.369666 1.61409 1.00389
21.5773 15.2727 13.6819 0.350725 0.623185 0.914537
18.8414 14.3832 13.9097 0.209513 -1.22377 0.17515
18.1802 15.8176 11.5095 0.510132 1.535 0.0486025
20.3527 13.8656 11.491 0.536178 1.09134 1.09972
24.3039 16.1977 13.4873 -0.670821 -0.777156 0.453092
25.8035 15.7194 11.11 0.719906 1.37836 -1.37371
23.7412 13.3481 13.6807 -0.318771 -2.19696 0.916185
23.0798 14.7714 11.2801 -0.505631 0.440653 0.704194
25.2299 12.9616 11.3402 -0.687139 1.3304 0.549392
29.2543 15.2348 13.2956 0.598208 2.98673 -0.35007
26.4657 14.3075 13.5072 0.393209 -1.33738 0.0314684
27.8857 13.9245 11.1977 -0.791097 0.498309 -1.03673
9.72833 19.3816 14.1653 -0.746973 0.630731 -0.685012
8.59842 18.0767 12.0322 -0.587411 0.489915 -0.624234
7.1335 20.0312 13.5811 0.357629 -1.4239 -1.37721
13.2505 18.2897 10.7951 -0.103523 -0.730506 0.000772839
11.7626 20.235 12.3217 -2.57941 -0.468968 1.31255
11.1976 17.4331 12.6331 1.02182 -1.29693 0.383543
10.5505 18.8563 10.1935 0.783191 -0.306383 -0.0174413
17.2517 19.0703 13.6209 -0.348923 -2.25926 -0.82783
16.0152 17.6931 11.4686 1.52944 0.0391246 3.54216
14.5096 19.6544 12.9747 -0.950745 -1.89696 -0.311671
13.945 16.8696 13.2691 0.271888 -2.60996 -0.121915
19.9918 19.9764 13.3894 0.152159 0.224249 -1.51538
21.4894 19.5093 11.0001 -1.54421 0.481682 0.600391
19.4137 17.184 13.6624 0.43042 -0.0411503 1.31089
18.7525 18.6004 11.2119 -0.655113 -0.191901 1.54774
20.9137 16.7095 11.2818 0.535813 -1.25177 -1.14123
24.8976 19.0017 13.2606 0.527342 -0.0405667 0.369736
22.1492 18.0927 13.4508 0.77573 1.11648 0.0777009
23.6399 17.6309 11.087 2.00033 -1.41753 -1.47073
27.0839 17.1098 13.2823 0.556434 -0.259535 0.758075
26.4149 18.5183 10.8949 2.52738 0.333798 -0.0497987
28.8096 19.2066 12.326 -0.750378 1.60648 1.18495
28.5947 16.6357 10.9062 1.30494 0.371591 -0.0761574
31.169 19.8513 13.7431 -1.12209 0.311231 0.0530736
30.8638 17.3795 12.4023 1.61039 1.43235 -1.75464
9.67127 23.6094 11.4805 -1.10773 -0.743368 0.566279
9.07591 20.8119 11.7314 -0.547967 -2.04348 -0.804803
7.62357 22.7805 13.284 1.01167 0.635509 -0.967499
13.8286 21.0712 10.5214 0.113488 -2.10709 -0.364512
12.3547 23.0261 12.0588 0.32338 2.36358 -1.90068
10.3076 22.1926 13.8644 0.948544 0.272853 1.5368
17.8339 21.8586 13.3553 0.336569 -0.136523 0.916017
17.1771 23.2711 10.9299 1.07422 -0.0825266 0.249391
16.5947 20.4878 11.1924 -0.413463 0.711222 -1.43237
15.0957 22.4423 12.7108 -0.786844 -1.7717 0.247208
14.4175 23.8551 10.2644 0.421026 0.126142 0.000625823
20.5752 22.769 13.143 -0.0894635 -0.526178 -0.571823
19.3335 21.3894 10.9502 -0.975319 0.390588 -0.489389
22.7322 20.8906 13.1967 0.78984 2.10662 -0.479088
22.0718 22.3067 10.7683 -0.840575 0.650132 -1.2509
24.4655 22.9611 12.2039 0.983918 0.797759 0.262499
24.2318 20.4221 10.8325 -0.372198 -2.21753 -0.786746
26.8467 23.5908 13.682 -3.16282 -1.22114 0.299575
26.6105 21.0765 12.2886 -0.156956 0.116361 -1.87273
29.0787 21.7297 13.7071 -0.751114 1.07103 0.135215
28.3618 23.1338 11.3042 -0.265406 -2.25971 0.190478
30.7147 23.7896 12.7299 0.127433 -1.66219 -0.593367
30.4874 21.2676 11.334 0.425137 -0.22798 1.12958
8.28451 25.5179 13.0985 0.0941994 -0.397475 0.433533
13.6441 24.4007 14.2698 -0.304312 0.0187977 0.901772
12.9784 25.8204 11.8326 -1.07068 -0.370309 -1.40931
10.9262 24.9867 13.641 0.745593 -0.796855 -0.63031
10.3329 26.3543 11.2858 -0.882116 0.983015 1.75881
10.0234 27.6904 13.7615 0.0865435 0.863427 -0.0200557
17.7675 26.0445 10.6923 -1.32322 -0.282975 0.569222
15.7005 25.2293 12.47 -0.538703 0.0679711 -0.128286
17.529 27.3498 13.2096 1.19377 -0.484119 -1.04776
14.7729 27.9733 12.566 -0.869379 -0.415942 2.01531
18.421 24.6395 13.1054 0.0423186 0.644377 0.25085
20.1356 26.7021 12.1266 0.160859 -0.19778 -0.284855
19.9181 24.1813 10.7176 -1.55338 0.140461 -0.944693
22.5063 27.3438 13.5837 -1.0836 -0.0711908 0.702856
22.306 24.8369 12.1526 -0.680016 0.454478 0.143584
24.6826 25.4781 13.6108 1.52943 -0.584195 -0.857754
24.0383 26.9061 11.1541 2.06407 -1.49661 -1.61004
26.4053 27.5386 12.6181 0.789794 -1.11823 1.39382
26.2041 25.0311 11.2036 -0.777946 -0.795837 0.346804
28.5781 25.6419 12.7062 0.316649 -1.9758 -1.97284
27.906 27.0653 10.2736 0.803189 -0.711505 -1.66814
29.9531 25.1687 10.3788 -0.389197 2.402 0.414775
30.9214 26.301 14.1478 -0.937482 0.00666507 1.29795
30.1648 27.6799 11.7983 1.5952 0.876989 -1.59288
12.0766 28.521 11.9651 0.210065 -0.840182 -0.272686
16.8681 28.7744 10.7831 0.904988 2.05521 -0.224315
14.1485 29.3455 10.1753 -0.607036 0.0759815 0.524219
16.6362 30.0624 13.3121 -0.177963 -1.11532 0.89997
16.013 31.3889 10.9515 -0.245217 -0.295336 0.330954
13.9138 30.6515 12.7081 -1.62627 -1.05851 0.798799
19.2508 29.4603 12.2193 -0.67897 -0.559915 0.357647
21.8506 28.7667 11.1456 -2.01173 1.46558 -0.130756
21.6224 30.11 13.6738 1.00464 0.287186 -1.97665
20.9762 31.4763 11.2758 1.26364 0.564047 2.41481
24.2221 29.4021 12.6115 -1.17794 0.678241 -1.16609
23.5515 30.7439 10.2621 -0.83827 -1.36182 1.11876
25.9222 31.375 11.7327 -0.923966 -0.967425 0.541949
25.7354 28.944 10.2367 -0.980749 0.745664 0.0942343
26.6006 30.0255 14.0995 0.621425 -0.814492 0.224051
28.7517 28.1426 14.1371 -0.359719 -0.390642 1.02079
28.0999 29.5805 11.6987 -0.233917 -0.970855 0.658204
30.3307 30.1003 13.2175 0.6101 -1.99247 -0.243184
15.7826 32.6744 13.49 1.42064 0.150648 -0.00896322
18.3572 32.1271 12.364 0.526992 0.494466 -2.4402
20.7383 32.7809 13.8135 -0.563189 -2.48131 -1.55616
23.3449 32.1143 12.7298 -0.447729 1.60338 -0.636495
25.7115 32.7478 14.1894 0.747718 -0.3229 -0.998924
28.2691 31.9631 13.2352 0.017661 -1.98588 0.261379
21.0493 8.31944 16.6038 1.19648 -0.535601 -0.568423
18.3482 7.51757 16.8523 -0.806931 0.333077 0.687191
13.4473 9.96761 16.2053 -1.88722 -0.408196 1.48077
11.9196 11.8234 17.6995 -0.434816 1.3792 0.375226
16.7173 12.0472 16.5303 -0.0549316 -0.700641 0.315838
16.1215 9.25685 16.7625 -0.671803 -0.347518 0.293861
15.4704 10.6552 14.3617 1.24214 1.01945 0.604323
14.6172 11.2455 18.332 -1.85874 0.659373 -0.689186
17.6909 8.91438 14.4421 -0.804727 -0.915097 -0.544449
21.6651 11.0352 16.3061 -1.28592 1.49271 -1.68206
18.9114 10.1797 16.548 -1.78438 0.623984 0.560082
22.8863 12.4612 18.5111 -0.13352 1.28781 -0.187458
24.3958 11.9426 16.0951 -0.286071 -0.418085 0.483514
23.8008 9.21569 16.3872 2.1984 0.193488 -0.361866
27.7605 11.5174 18.3296 -0.28277 1.04347 0.572911
29.8196 9.72305 18.4262 0.963077 1.03649 1.47431
29.1917 11.1211 16.0149 1.21927 0.696153 0.576467
26.5421 10.1448 16.1797 -1.0463 0.266691 -0.52122
30.5442 12.4497 18.0996 1.53666 -1.21841 -0.592683
9.77326 15.1953 16.8199 0.0369712 1.62818 -0.0967868
12.4352 14.5701 17.454 -1.06872 1.08933 -0.750704
11.7996 15.99 15.0443 -0.0208202 0.392831 -1.08445
11.2684 13.2399 15.2831 -2.42754 -0.368956 0.333572
17.3193 14.8542 16.3027 -0.430131 -0.985402 -0.0806045
15.2214 14.0326 18.0915 -1.85087 -2.31135 1.69937
14.5741 15.4429 15.6826 -0.131861 -0.452136 1.8778
13.9647 12.6471 15.9257 1.43691 0.147216 2.17435
18.5658 16.243 18.4727 1.35156 0.0814283 1.82734
20.7279 14.3536 18.494 0.761871 -0.743742 -0.959125
20.0729 15.761 16.077 -1.12742 1.00228 1.90968
19.4951 12.9716 16.3161 -0.413015 -2.01981 -2.31482
23.4649 15.2631 18.2825 0.44755 1.21763 -3.10349
25.6109 13.3907 18.3096 1.88552 1.86213 -0.669018
24.9613 14.7878 15.8937 -0.62035 -0.804149 -0.028904
22.2343 13.8581 16.0907 -2.21043 -0.361421 1.20736
26.2123 16.1919 18.0713 1.44008 0.656785 0.0785282
28.3843 14.3171 18.0809 -0.384443 -1.95486 0.0618808
27.7398 15.7098 15.678 -0.629746 0.371806 -2.08611
30.1292 16.4007 17.1325 -2.3949 1.07714 -1.83446
29.9052 13.8374 15.697 -1.08447 1.85642 -0.372108
27.1181 12.9067 15.914 -0.199819 0.28574 -0.907335
32.1692 14.5766 17.2198 0.497777 0.51208 -1.0122
31.5207 15.9735 14.8072 0.675896 -0.633224 0.655399
8.90754 19.9163 18.1287 0.392846 0.283295 -2.17715
9.14281 16.6246 14.3996 -0.96248 -0.23026 0.680327
8.30864 17.1641 18.369 -1.78676 1.11249 1.36607
7.68119 18.5821 15.9463 -1.17724 0.747798 -0.0821722
13.7055 20.19 16.9585 -0.285218 -0.165087 -0.911243
13.0813 17.3827 17.2112 -0.848767 -0.20331 0.442991
12.4551 18.8108 14.796 0.706256 0.889444 0.275301
10.3303 17.9382 16.5765 0.301713 -1.59382 -0.834881
17.9119 17.6546 16.0558 0.246311 0.551379 -0.90589
16.4262 19.6107 17.5862 0.426634 0.830074 0.694097
15.8237 16.816 17.8421 -1.02693 -1.28233 0.146251
15.1794 18.2357 15.4215 -0.289395 2.6051 -0.29138
21.8891 19.939 18.0103 0.616737 0.212559 1.84054
19.1534 19.0301 18.2219 0.302069 -0.554635 -0.123087
21.3095 17.1448 18.2549 0.579555 0.239541 0.290284
20.651 18.5615 15.8312 -2.46553 0.581793 0.835317
24.0482 18.0647 18.0488 0.813227 -0.233051 0.424553
23.3901 19.4745 15.632 0.83074 -1.17233 0.440288
25.7898 20.1272 17.0712 1.05301 -1.90931 -1.23325
25.5604 17.5923 15.6652 0.698523 -2.20288 1.53221
22.8099 16.6703 15.8653 -1.12178 1.02417 1.71571
27.9582 18.2649 17.1065 0.0925225 0.925451 -1.54761
27.2967 19.6695 14.6981 0.986977 -2.43866 -2.97187
29.477 17.8013 14.7255 -0.546518 -1.40975 1.89395
31.8322 18.4403 16.1594 1.20113 -0.180739 1.38649
9.5101 22.7178 17.918 -0.495153 0.963477 0.810262
8.87873 24.1401 15.4715 -0.628915 0.772076 0.653766
6.77434 23.2907 17.3156 -0.600912 -0.402687 1.51916
8.30134 21.3509 15.72 1.69561 -1.09163 -0.78699
6.32132 20.5143 17.4783 -0.480871 0.358079 1.04363
5.75879 21.9402 15.1196 -0.413233 1.34167 1.41813
11.5887 23.5631 16.0852 0.206712 0.263222 0.709899
13.0352 21.6097 14.5124 1.01599 0.486749 -1.10414
11.0036 20.7701 16.3366 0.952468 0.538936 1.74197
17.0174 22.4011 17.3266 0.929237 0.536554 -0.866452
16.3571 23.8169 14.8955 -0.718407 2.13399 -2.33889
14.299 22.9856 16.7002 -0.272872 -0.627647 -1.37683
15.7608 21.0275 15.1472 0.90739 1.92187 0.656772
19.736 21.812 17.9614 1.46747 0.542894 0.562484
19.0781 23.2267 15.5318 -1.26274 1.24329 0.979666
21.4494 23.8733 16.9836 -0.675847 -0.030716 -1.72192
21.2323 21.3542 15.5756 0.507714 0.614589 1.61796
18.4932 20.4443 15.7876 0.298646 0.91365 1.34171
23.614 21.9985 17.0301 0.129754 -1.73144 -0.505315
22.9594 23.4185 14.59 -0.430568 0.549169 1.01917
26.0066 22.6444 18.4783 1.91497 -0.143573 -0.3951
25.3359 24.0532 16.0585 -0.0667754 0.773429 1.25187
25.1191 21.5375 14.6523 -0.343648 -0.150545 -1.77335
28.2003 20.7797 18.5053 -1.60457 1.39805 1.74918
27.5358 22.1846 16.0929 -0.112742 -1.12373 0.698315
29.9712 22.836 17.5182 0.253375 -0.936342 -0.0375695
29.7549 20.3246 16.1143 -0.118242 -0.536191 -1.7854
32.0678 20.9703 17.569 0.173366 0.510191 0.413003
31.4019 22.3806 15.1466 0.764701 -0.495513 0.0491741
6.28512 24.6624 14.9374 -0.0885176 -1.03758 0.29068
8.65421 25.4421 18.0069 -0.458323 -1.48017 -0.626677
7.97525 26.8576 15.5629 0.0494031 -0.763034 0.000344165
6.10728 25.9795 17.3776 -0.418592 0.932566 -1.66939
13.389 25.7129 16.8058 -0.600816 -0.21327 0.675951
12.7105 27.1504 14.3639 -1.02205 0.759349 -0.880761
10.6634 26.3181 16.1703 -0.287401 -1.14939 -0.46094
16.1135 25.1191 17.4341 0.430164 0.743551 0.491392
15.4492 26.5406 15.0014 1.56261 1.02456 0.488385
15.2146 27.8303 17.5443 0.153596 -0.925663 0.734406
18.8445 24.5203 18.0658 -1.13812 0.393149 0.568781
18.1857 25.9377 15.6352 -0.10755 0.269454 1.702
20.7926 25.29 14.5521 1.62059 0.115867 -0.798942
17.9547 27.2257 18.1791 1.40883 -1.18724 -2.06866
20.5625 26.5968 17.0898 -0.088375 -0.859459 0.258549
19.9055 28.0205 14.6564 -0.954918 -0.803008 1.53583
23.8241 24.5127 18.4481 0.0533744 -0.269177 2.13393
23.1667 25.9309 16.0139 0.891012 0.523339 0.997274
25.5496 26.5676 17.4895 1.23923 0.479998 0.944496
24.8835 27.9786 15.0561 -1.68385 -0.487495 0.274723
27.7295 24.6931 17.5063 0.843827 1.21466 -0.816168
27.0434 26.0975 15.0952 1.60693 0.554305 -0.270504
29.4592 26.7427 16.5387 -0.736743 0.570721 0.308958
29.2948 24.2377 15.1091 -1.05029 -0.892817 -0.140613
31.7229 27.352 17.9771 -0.212256 -0.840463 -1.27132
31.6043 24.9028 16.5672 -1.14297 -1.04756 -1.12652
9.78197 28.9972 16.3063 0.124579 0.0868396 -0.870057
7.82835 28.0866 18.0837 0.586508 -0.789439 -1.60366
12.4707 28.4433 16.9094 -0.171675 0.403879 -2.09588
11.8408 29.8261 14.5025 -0.178911 -0.584856 0.506129
11.6079 31.1149 17.0448 0.147862 0.793318 2.07854
17.2977 28.638 15.7477 -0.907467 0.0699861 1.41094
14.5357 29.2673 15.1021 -1.25555 -1.26427 -0.447135
17.0696 29.92 18.3024 -0.571904 -2.03273 -1.51924
16.4077 31.3438 15.8581 -1.24263 1.08567 -1.12186
14.3076 30.5445 17.6442 0.0849805 -1.77247 -0.891585
19.6763 29.3121 17.1989 0.130167 2.74366 -0.257621
19.0204 30.7566 14.7549 0.147726 0.935402 0.816562
21.396 31.4075 16.2184 -0.245095 -1.3428 -0.656274
22.279 28.6655 16.1176 2.63741 -0.367679 0.527793
24.6441 29.2791 17.5973 0.810116 -0.0521207 0.190015
23.9886 30.7435 15.1385 -0.824344 0.00127578 0.0704292
27.286 28.6219 16.5421 -2.34377 -2.94153 0.389012
26.355 31.321 16.6364 0.488891 -1.98982 -0.566843
29.6859 29.2984 17.9839 0.445987 0.296199 -0.656701
29.0275 30.6814 15.5928 -2.23897 2.09511 0.670182
31.0606 28.731 15.5639 0.462029 1.88571 -1.57728
13.6861 31.9381 15.2428 -0.887034 0.388011 0.0112046
13.4597 33.2182 17.781 0.3671 2.5198 -1.15486
16.1849 32.6135 18.4268 -0.788647 0.603578 1.29996
15.5561 33.9509 16.0396 0.278806 0.12579 0.630802
17.8931 34.6904 17.438 -3.39069 0.169959 -1.07085
18.7935 32.0342 17.297 -0.47007 0.0789604 1.75072
18.1236 33.4117 14.8993 1.11606 -0.800028 0.127237
20.5083 34.0706 16.3558 -0.266544 0.761375 1.91119
23.7713 32.0163 17.7193 -0.0558746 0.0517464 -0.714148
23.1113 33.4239 15.2742 -2.43597 1.82223 -1.10527
22.8433 34.5975 17.7942 -0.143047 2.00263 2.00387
25.4461 33.9377 16.7194 1.75072 -0.30382 -2.62248
28.6423 31.9379 18.0854 2.51394 0.430992 0.786954
27.9644 33.2385 15.6849 -0.635631 -0.00728939 -0.645112
17.4292 6.49386 21.5579 -0.217657 0.426073 0.132137
16.7763 7.87336 19.1633 -0.298725 0.91147 -0.399441
14.7501 7.19207 21.0333 -0.413815 0.68927 0.166064
14.1015 8.57126 18.6166 0.526002 -0.930395 0.502924
20.2098 7.43481 21.405 -0.977938 -0.174395 -3.18409
21.709 6.93599 19.038 -1.25662 1.0992 -2.70034
19.643 4.8314 21.6745 0.0928915 0.64047 -0.11302
19.0192 6.13308 19.26 0.458144 0.521146 0.879046
22.9564 8.29424 21.1834 -0.00432319 0.804721 -3.24989
25.0678 6.54344 21.2717 -1.08454 0.230917 0.540041
24.4506 7.83046 18.8279 -1.29988 0.223669 2.57259
22.3258 5.64636 21.4773 -0.640807 1.08538 1.5707
27.8003 7.46621 21.0549 0.601587 -0.0138004 -0.312726
30.436 8.41939 20.8415 0.745813 -0.459251 0.367287
13.7619 11.7725 22.2841 1.24483 -0.221167 -0.862099
13.2538 9.0337 22.5495 -2.30396 0.216256 0.299878
12.5802 10.4211 20.1215 -2.33941 0.601972 0.497513
11.0872 12.371 21.6673 -0.580781 2.01124 -0.482913
17.3705 10.6566 18.9321 0.752249 -0.600214 -0.964892
15.2797 9.85749 20.7429 0.457155 0.575221 -1.53896
18.6296 12.0604 21.1239 -0.967779 -1.10818 -0.752357
20.7979 10.1945 21.1663 0.0360775 -1.04596 1.51948
20.1486 11.5754 18.7316 -1.14718 0.254052 1.39989
18.0303 9.28084 21.3411 -0.913722 0.797955 -1.13174
19.5662 8.79398 18.9624 1.30406 1.06569 -0.424284
23.5338 11.0815 20.9487 -1.76156 0.666549 -0.123949
25.6835 9.20075 20.9729 -0.115292 0.718968 -1.33187
25.0428 10.5562 18.5211 0.637578 -1.79057 -2.04894
22.3158 9.64988 18.7317 0.970353 0.275016 -0.71525
26.2572 12.0092 20.7447 0.271219 1.43602 0.514162
28.3994 10.1572 20.7728 -0.0302718 1.21459 1.13523
27.1821 8.75511 18.6155 -1.22457 -1.07347 -0.278045
31.1813 11.0657 20.4959 -0.552757 1.40114 2.63599
33.3645 11.8185 22.0271 -0.0360641 -0.106944 0.515366
8.95544 15.7526 20.7894 -2.1947 0.410911 -2.46381
13.7264 15.9703 19.6245 1.18495 1.23742 0.446532
13.0895 13.1638 19.868 -0.792722 -1.6265 0.523916
11.6178 15.1145 21.4021 0.849979 -0.467937 -0.546985
10.4222 13.7779 19.2427 1.25118 0.496451 -0.379944
17.147 14.0063 22.6833 -2.18277 0.216707 -0.583465
16.4786 15.4084 20.259 -0.0338655 0.746609 -1.52604
15.881 12.6345 20.5042 -0.57179 0.34375 0.711224
14.3897 14.5699 22.0398 1.1288 1.25941 1.50942
21.9657 15.7362 20.6838 0.663758 2.00441 -1.78988
19.2225 14.8379 20.8927 -1.41905 -0.0721511 -3.14712
21.3818 12.9555 20.9246 0.652094 -0.019934 0.939541
17.9714 13.4532 18.7083 0.857732 1.26592 1.29802
24.1172 13.8647 20.7133 -0.411557 -2.2739 1.04919
26.8558 14.7948 20.4884 0.964371 0.00219293 1.97941
29.2267 15.4554 21.947 -1.18673 -0.474099 -1.20072
29.0156 12.9326 20.4925 -0.260973 0.0947399 2.02947
31.3656 13.5999 21.9737 1.75034 -1.95766 0.0209607
30.7657 15.0051 19.5461 1.0127 -1.12145 -1.85905
33.1098 15.6344 21.0155 -0.896055 0.572621 0.00521708
32.8125 13.1967 19.6377 1.30816 1.41755 -0.609705
9.54235 18.5099 20.5364 0.366352 1.2072 -1.49151
7.59795 17.7214 22.3033 0.157083 0.354033 1.3005
6.9524 19.1235 19.8929 -2.45054 -0.166994 0.721113
12.2757 17.9373 21.1625 -0.953905 1.38842 0.909695
11.6308 19.3452 18.7516 -1.05066 -0.660406 0.136354
10.9636 16.5209 18.9881 1.45615 -1.60685 0.310832
15.6113 20.1593 21.5531 -0.530685 1.46234 -0.505389
17.7407 16.7847 22.4385 -0.0410583 -0.883803 1.48207
17.0794 18.195 20.0119 0.526462 0.265285 -0.735419
15.0035 17.3635 21.7967 0.898427 0.898687 -0.260891
14.3488 18.7713 19.3799 1.29975 0.348497 -0.890769
18.3368 19.5704 22.1868 0.00573416 -0.469864 0.533364
19.8111 17.6163 20.6498 -0.819794 -0.141761 1.80327
22.5467 18.5254 20.4383 -1.16362 -0.565784 -1.14618
24.9281 19.1735 21.8831 -0.765032 -0.433252 -0.521069
24.7005 16.6585 20.4694 0.0979724 1.71974 2.09529
27.0862 17.3101 21.9154 -1.06144 -1.06156 -0.381758
26.4445 18.7203 19.4886 -0.0996394 2.04526 1.30064
28.8436 19.3737 20.9229 1.38463 0.0875987 -0.781751
28.6031 16.8629 19.5208 0.479074 -0.228431 1.55678
31.2555 20.0235 22.3513 0.985294 -2.06888 -0.226588
31.04 17.5156 20.9491 -0.18556 -0.0422737 -0.635925
30.4089 18.9195 18.529 0.054739 0.396698 1.16137
33.3406 18.147 22.4276 -0.422885 -0.771492 -0.153602
32.7149 19.5591 19.996 -0.952843 -1.11298 0.358951
32.4801 17.0352 18.5833 1.03623 1.55599 -0.593
8.04284 20.5018 22.1065 -2.00675 0.128037 -0.493351
7.40761 21.8982 19.7079 -0.602239 -0.736062 0.398677
9.26478 24.061 20.4458 -1.88145 -1.59311 -1.22869
7.30624 23.2297 22.1888 -0.237413 -0.343504 0.251346
12.8785 20.7413 20.9331 1.15796 0.839054 -0.31808
12.2384 22.1461 18.5196 -2.11362 0.902999 0.551824
10.1351 21.319 20.3229 1.04649 0.941019 -0.845416
11.9863 23.4718 21.0583 1.16558 -0.9051 -1.30025
17.6793 20.9843 19.759 2.10948 -0.286134 0.573121
14.9602 21.568 19.1338 0.683645 0.242506 -1.2503
17.4313 22.2855 22.2983 0.932874 0.126391 1.00464
16.7781 23.6962 19.8697 3.56588 -0.661524 0.473684
14.7026 22.8803 21.6767 1.02646 -1.18299 -0.0827886
20.395 20.395 20.395 1.10259 1.06463 0.410419
19.5039 23.101 20.4974 1.17519 -0.381766 0.390704
21.879 23.7634 21.9545 -0.38004 -0.150222 2.96041
22.7631 21.0414 21.8447 -0.276834 -0.809833 -0.175845
22.1057 22.4549 19.4166 0.0233165 0.904959 -0.78486
24.482 23.1068 20.8673 0.0237974 0.758174 1.45751
24.2758 20.5863 19.4555 -1.43988 -1.29062 0.277873
26.8642 23.7711 22.308 4.46652 -0.982448 0.583625
26.661 21.2375 20.8957 1.52427 -1.70919 1.52148
29.035 21.8864 22.3293 -1.17162 -0.693434 0.734116
28.3908 23.2919 19.9167 -0.361188 0.612575 0.849906
30.7784 23.948 21.352 0.883479 0.660345 -1.35309
30.6249 21.4308 19.933 0.211372 0.57636 1.46247
32.9144 22.0866 21.4076 0.131825 -1.56501 0.73217
32.2676 23.4985 18.9874 -0.975887 0.377027 -0.101489
6.67729 24.6421 19.786 2.58164 -0.367841 1.02087
8.38607 26.7577 20.5162 1.26256 -0.323987 0.0811946
11.3567 24.8658 18.6259 0.800973 0.322621 -0.0830509
13.7889 25.5986 21.8034 -0.430661 -1.3706 0.0105029
13.1603 26.9908 19.3679 0.459804 -0.786479 -0.446858
11.043 26.2094 21.1996 -2.69676 0.128238 -0.292962
10.436 27.5873 18.7517 -0.937351 1.84237 -1.22543
14.0584 24.2848 19.2472 -0.367907 -0.556641 1.83923
16.5281 24.9981 22.4154 1.44207 -0.278096 0.451275
15.883 26.4012 19.9854 0.726576 -0.13075 1.01315
15.6296 27.6982 22.5324 0.371805 -0.806398 0.00883273
18.6141 25.8066 20.6123 -0.385759 0.204552 0.00172076
21.2204 25.172 19.5261 -0.301847 2.04641 0.214273
20.9959 26.4824 22.0699 -1.2735 0.437968 -0.1081
20.3355 27.8802 19.6409 -2.60287 -0.543376 0.482437
23.599 25.8361 20.9886 1.02363 1.60175 0.436737
22.937 27.234 18.5601 1.3628 -0.148506 -0.131396
25.9691 26.5019 22.4413 0.00343661 -1.0733 0.844663
25.3117 27.8986 20.0273 2.57995 -1.60493 -1.73551
26.213 25.1716 19.9018 1.69222 0.374622 2.15796
28.6121 25.8471 21.3445 1.27851 -0.14443 -0.294042
27.9564 27.2393 18.9442 -0.349722 0.360666 1.14993
30.1269 25.3487 18.9447 -1.18251 -1.67848 -1.0844
30.3457 27.9117 20.3815 -0.281815 1.27737 -0.771047
32.3798 25.9555 20.3877 -0.829671 -1.6641 -0.828279
9.64534 30.2144 18.816 1.45658 0.453203 -2.06995
12.862 28.3194 21.9355 1.72626 -0.546609 0.506325
12.2552 29.6973 19.4875 1.18541 -1.37491 -0.0532592
10.1998 28.8858 21.2526 -0.0174002 0.326741 0.925949
12.0369 30.9925 21.9928 1.60775 0.813525 -1.2419
17.7258 28.511 20.7397 0.446806 0.0882504 0.147262
14.9985 29.0898 20.099 -0.867379 0.24257 -1.72564
16.8382 31.2174 20.8825 -1.17788 -0.0693486 -0.288521
14.7307 30.4013 22.6569 0.997892 1.20937 1.07282
14.1175 31.7786 20.2166 0.485984 0.41461 -0.738184
20.1168 29.1887 22.1854 -0.393914 0.980433 -1.39434
19.452 30.5689 19.7545 -0.468701 -0.62004 1.97837
19.2376 31.8982 22.3085 1.72669 0.660812 0.581908
21.8557 31.3068 21.2397 -0.4087 -0.11499 -0.396271
22.7223 28.5663 21.1123 -0.574142 0.119409 -1.59347
22.0548 29.9451 18.6795 -0.586908 -2.1073 -0.727432
25.1125 29.277 22.5842 -0.903231 -0.598578 -0.656347
24.4492 30.6627 20.1622 -0.627037 -0.731793 -0.756341
27.6938 28.5743 21.4813 -0.390968 0.340679 1.54419
27.0308 29.9626 19.0706 -1.05034 0.0169246 -1.85393
26.8062 31.2642 21.5699 1.60038 3.0254 -2.00751
29.3169 30.5421 20.4854 1.32433 -0.11397 -0.469794
11.4805 32.3224 19.5606 -0.338767 1.03611 -0.062303
13.8819 32.9988 22.7001 -0.167061 -0.352138 0.926988
13.3074 34.3302 20.2896 -2.50909 0.333647 -0.625119
15.9484 33.9309 21.0266 1.11193 0.543995 0.322856
15.3485 35.1736 18.6034 0.267475 2.62241 -0.379718
17.6998 35.7888 19.95 -1.06529 0.475506 0.489345
18.5663 33.256 19.8725 -0.835889 -2.4949 3.01216
21.1778 32.6606 18.7969 -1.06047 -0.963094 -0.773375
18.3706 34.4894 22.3532 -0.599182 -0.254052 -0.866785
20.9268 33.945 21.3051 0.401581 0.171572 1.06785
20.2396 35.2312 18.8829 0.278728 -0.297659 -1.73193
24.1993 31.9297 22.6572 1.53407 0.406911 -0.98754
23.5319 33.314 20.2207 1.09515 -2.50047 -1.2311
26.1319 32.6521 19.1424 -0.799881 -0.279652 -0.642852
16.6417 7.04504 25.5966 0.95026 -0.446449 -0.284284
15.9786 8.48438 23.1623 0.0753848 -1.12269 1.71961
15.4654 5.86759 23.4097 -0.855805 -1.07899 -1.5584
13.9948 7.7129 24.937 1.68116 1.36923 -0.0725462
19.3597 6.54963 26.1725 0.823509 0.696844 1.37372
18.7024 7.88568 23.7922 2.21518 -0.236837 -0.0323962
20.8583 5.99911 23.8455 -0.650595 -0.702479 0.337436
18.1195 5.25562 23.9592 -0.135491 0.7174 -1.99102
24.8528 8.24575 25.8141 0.905956 -0.303009 -0.0577283
22.102 7.35048 26.0273 -1.13114 -1.03939 0.443443
23.6089 6.88336 23.6286 -0.240401 -0.087532 -0.381831
26.346 7.7933 23.4174 0.972718 2.08842 1.56894
12.9999 12.3475 26.2397 -1.71106 -0.295989 -0.0426287
12.5149 9.65746 26.4842 0.479788 1.34498 0.668987
11.7702 10.9767 24.0937 0.0891227 0.0787287 2.20183
17.2061 9.78839 25.3916 1.72771 -0.812262 -1.3398
16.5622 11.2454 22.9254 -0.630645 1.18487 1.87729
14.47 10.3995 24.7075 -0.63052 1.66145 -0.813495
20.5406 12.0066 25.7569 -1.59745 0.0807269 -0.967499
19.954 9.22796 26.0039 1.18711 -0.683763 -0.140817
19.292 10.6518 23.5597 0.549015 -1.58822 0.572651
21.4728 8.72998 23.6198 -0.442066 -0.120068 -0.926024
25.4509 10.9897 25.595 0.866825 0.182082 -0.0775037
24.7825 12.4336 23.1541 -1.44195 -0.509625 0.8804
22.7149 10.08 25.8062 1.17226 0.684254 0.275203
22.0458 11.5238 23.3654 -0.54899 0.659096 0.510375
24.2098 9.61989 23.4056 1.29064 -0.612537 -0.551459
28.1705 11.9597 25.3695 0.830814 -1.25583 -0.792725
29.6541 11.5266 22.9465 -0.19254 0.876212 -0.702518
27.5921 9.17579 25.6035 1.04033 0.727268 -1.45032
26.9353 10.546 23.1981 -0.572805 -3.03134 -0.374225
29.0793 8.73224 23.211 -0.217649 1.05762 -1.42529
30.2593 10.1735 25.331 -0.459627 -0.429657 0.518994
32.0351 12.1629 24.4078 0.795077 0.320526 -0.254638
31.705 9.77232 22.9103 -2.38239 -1.94334 -1.68429
9.61969 14.3448 23.2073 -0.349255 -0.503206 -0.543235
8.25698 16.3171 24.7086 1.09724 -1.57475 -1.30758
13.6193 15.1449 25.9927 0.190443 2.50668 -1.44774
12.292 13.7203 23.8162 2.67578 -0.276437 0.633826
10.8628 15.7107 25.3466 1.33994 0.47876 -1.37971
10.3035 12.9431 25.6243 0.0357273 2.09921 -0.0935637
17.8023 12.5766 25.1276 -0.359284 0.615642 0.0773493
16.327 14.5313 26.6652 -0.20091 3.49852 -0.572211
15.6726 15.9602 24.2201 0.214047 0.58753 -0.155312
15.0741 13.1804 24.4618 -0.662323 2.32134 -1.02261
21.1269 14.7795 25.5125 0.224176 -1.30567 0.78402