ITEM: TIMESTEP
0
ITEM: NUMBER OF ATOMS
887
ITEM: BOX BOUNDS ss ss ss
5.6036725963488268e+00 3.5281175603400811e+01
4.9010735028522037e+00 3.5884889414506709e+01
6.3537327583881718e+00 3.4436278689308040e+01
ITEM: ATOMS x y z vx vy vz
16.2803 11.4269 9.10528 1.64252 -1.50839 0.856546
18.9945 12.1857 8.81486 0.0990386 -0.0874806 -1.66745
21.0553 10.3211 9.24302 -2.26482 0.241668 0.358012
18.3455 9.59705 9.4541 -1.17265 -0.844264 0.878693
26.5063 11.9111 8.94212 1.56089 -0.546451 -1.73397
23.815 11.1036 9.06992 -1.88117 -0.399621 1.53506
12.6693 15.451 9.9581 0.282276 -1.99043 -2.03673
14.8685 16.0361 8.29816 0.965777 -2.43933 -3.0068
16.8963 14.0933 8.51632 -0.16256 1.99181 0.866453
14.1975 13.3251 8.884 -0.272367 -0.984755 0.576937
20.8881 16.4279 10.3315 1.58126 0.56236 -0.329192
22.4654 15.6852 8.12761 -0.105177 1.05496 0.898029
19.6893 14.898 8.30182 -0.308383 0.549284 -1.19694
21.7664 12.9561 8.6404 -0.950379 0.0551856 -0.892093
25.2697 16.4675 7.99079 1.63615 -1.59008 -0.997531
24.5302 13.7554 8.46752 0.409216 -0.418772 0.864437
27.2526 14.5382 8.41668 -0.0120083 0.358912 0.93257
13.3619 18.1804 9.44265 -0.646283 0.368917 -2.10456
16.7331 20.3139 9.73552 0.569377 0.246688 0.300001
18.309 19.5423 7.491 0.860497 -1.20845 -0.79843
16.0326 17.5882 10.2493 0.116431 -2.60432 1.34413
15.5676 18.7706 7.77248 0.93828 -0.789011 -0.926004
17.6025 16.8181 7.99626 -3.19273 -1.22015 0.252271
21.5956 19.1463 9.83846 0.100182 -0.472707 -0.821059
21.1085 20.336 7.31527 0.242163 1.31132 0.910607
18.8119 18.357 10.0132 -0.296965 2.4185 0.992041
20.3931 17.6124 7.79713 0.748221 -1.11545 1.33473
24.3721 19.9528 9.72584 1.74602 1.64275 0.160493
26.455 17.9998 10.0956 -0.492781 1.61097 -0.697536
25.9409 19.1756 7.60309 -0.084143 0.228797 -1.06825
23.6744 17.2085 10.1768 0.586123 -0.804009 0.153831
23.1881 18.4019 7.64567 -0.974338 -0.962348 0.472318
28.2961 19.8821 8.97732 1.723 0.705971 0.544158
27.993 17.2369 8.01807 -1.93709 0.705704 0.210593
30.3253 18.0051 9.41831 0.5703 -0.766229 -1.57595
14.0625 20.9066 8.93941 0.552878 -0.439856 1.4126
12.591 23.0724 10.2203 2.40949 1.69019 1.30434
17.435 23.0262 9.23843 0.0710946 -0.143258 -0.299075
16.9717 24.2114 6.76366 -0.827081 -0.120932 1.82531
16.2692 21.4941 7.26392 -2.49057 0.583112 0.845176
14.7686 23.6342 8.45579 1.33589 0.0853485 1.85976
20.2274 23.8179 9.06319 -1.17132 -0.540807 -1.14107
22.2959 21.891 9.38638 -0.466988 0.556379 0.999555
21.7844 23.0576 6.91768 -0.732269 0.455856 0.124539
19.5185 21.0795 9.52123 0.804161 -1.16631 0.43229
19.0239 22.2671 7.00442 0.747316 2.10582 -0.486436
24.149 23.7663 8.30646 4.46113 -0.937099 0.54728
23.8597 21.1216 7.25191 -1.52826 0.40164 -1.0993
26.2243 21.8273 8.6354 -1.30757 0.977529 0.849966
28.5537 22.5541 10.1124 1.09522 0.579903 0.298576
13.3703 25.761 9.78749 0.650789 -0.85576 1.06701
18.1504 25.7416 8.77777 -1.38847 -0.301794 0.573305
17.6829 26.8553 6.35781 0.840651 -0.178746 -0.0468441
15.531 26.332 8.01787 -0.596319 0.0497408 -0.10937
15.1858 27.9165 10.3459 -1.18596 -0.224588 2.18309
20.4855 26.4675 10.2329 0.00157925 0.923615 -0.787149
19.9659 27.5892 7.73973 -0.71316 -0.0175691 -1.72369
19.7126 24.9884 6.59162 0.592567 0.231443 1.84498
22.0708 25.7043 7.99767 -2.07713 1.46106 -0.156931
24.4077 26.4226 9.47918 1.00598 1.63677 0.41356
26.4861 24.4865 9.78348 0.861594 0.319148 0.351912
17.3816 28.4196 8.62115 -0.154906 0.267636 1.70935
19.6988 29.1959 10.063 1.07816 0.431494 0.966118
22.294 28.2908 9.22797 -0.98931 -0.287549 0.915952
22.0741 7.85932 14.3013 -1.08281 -0.565579 -0.212562
18.8491 8.35599 11.9359 0.385199 -1.07664 -1.99344
24.8297 8.64086 14.1286 -0.376409 0.708784 0.219781
12.426 11.5384 13.0607 0.274081 -0.304172 -1.79835
9.89799 12.3101 12.3354 0.0388431 1.60022 -0.0381499
17.8669 11.676 13.6656 -2.25462 2.09372 0.576494
15.1053 10.8682 13.8575 -0.743096 0.56765 0.226793
14.6154 12.0594 11.3009 -0.381996 -0.398962 0.939032
17.2447 8.95797 14.1432 -1.05933 0.478185 0.426389
16.727 10.157 11.5938 -1.55755 -0.353463 -1.18997
20.6881 12.5337 13.5023 0.72067 -0.325513 -1.08267
22.2689 11.7602 11.2395 -1.07366 0.0379854 0.480423
20.014 9.77352 13.9773 0.0705733 -1.31555 -0.351058
19.5026 11.0004 11.4287 2.6699 0.99299 1.17554
21.5706 9.06239 11.7267 1.73475 1.4 -0.0155193
25.5298 11.3379 13.6315 0.219458 -0.947852 -0.127482
25.0241 12.5661 11.0823 -1.73128 0.53793 -1.03671
22.7779 10.5315 13.7909 0.75535 -1.39503 -0.287475
24.3265 9.8439 11.5539 0.547214 -0.915906 0.556995
28.3139 12.0975 13.4488 0.149472 -0.661571 -1.05842
27.5202 9.47526 13.9927 -0.802142 -0.910731 -0.509917
27.0182 10.6727 11.4236 -0.187183 0.480882 -0.431395
8.42704 14.3771 13.55 -0.319794 -0.512555 -0.476348
13.149 14.2578 12.5245 -1.0684 -0.902263 -0.205799
11.6662 16.4484 13.7559 -0.132528 -0.547049 -1.83344
11.9884 12.8054 10.5691 -0.534405 -1.37909 -0.392199
11.0014 13.7306 14.3281 1.09416 -2.50372 -1.302
10.4886 14.9177 11.716 -0.159441 1.99229 1.93287
16.5365 16.3958 12.8492 1.86894 0.0505066 0.157649
18.1091 15.6305 10.5261 -0.127832 -1.1171 0.650345
15.8199 13.6252 13.3571 0.489785 -0.218676 1.51955
15.3378 14.8475 10.7933 0.0874358 0.929292 -1.5834
17.3966 12.8935 11.0757 -0.0142833 -1.99126 0.169197
21.3878 15.2478 12.9588 0.834255 1.22796 -0.875183
18.6011 14.4399 13.1481 -1.60329 1.4093 1.70044
20.1885 13.7111 10.8493 0.468911 -0.793813 -0.407697
24.1855 16.0235 12.7977 -2.36209 -2.92472 0.318217
26.3111 14.0708 13.1359 0.548453 0.0756989 1.37066
25.7712 15.2683 10.5502 0.431575 1.66614 -0.551314
23.4614 13.3202 13.3284 -0.0679777 -0.718166 -1.40965
22.9598 14.497 10.6754 -0.874746 1.21977 -0.778451
29.0878 14.8336 12.9803 -0.939043 0.328005 -0.369961
28.582 16.0198 10.4243 2.26488 -1.23804 1.056
27.828 13.3051 10.8972 -2.56199 -0.5226 0.369937
9.72648 19.7773 12.4722 -0.572167 -1.42719 1.86201
9.02291 17.0494 12.9866 -0.811928 -0.286749 -0.717269
7.57856 19.2007 14.2487 1.31578 -0.118699 -0.547436
13.8272 17.0059 11.9865 -0.385301 -1.95148 0.042385
12.36 19.1673 13.24 0.280851 1.4407 0.517606
11.8832 20.3462 10.6995 1.87871 1.86102 -0.664786
11.1858 17.6295 11.2021 -0.780997 1.05409 0.0869926
17.237 19.127 12.3307 0.669488 2.01655 -1.77984
15.0493 18.5418 14.083 -1.58607 0.450634 0.597482
14.527 19.7335 11.4746 -0.569384 -1.15204 -0.783881
20.0171 19.8985 12.1306 0.802523 -0.22184 0.416205
22.0979 17.9643 12.4552 -0.0131865 -0.35054 -0.575761
19.3091 17.1735 12.6302 0.86332 0.332393 -1.76286
24.8713 18.7592 12.3261 0.142217 0.16939 0.77849
27.2274 19.4556 13.7895 -0.605789 -2.47619 -1.60421
26.9842 16.7912 12.6566 -0.853429 0.0150117 0.00866407
29.3258 17.4723 14.1187 -0.740041 1.10734 -2.05131
28.8122 18.6994 11.5416 1.98675 -0.899468 0.21093
30.9071 16.7792 11.9011 1.26207 -0.295055 0.108065
31.1102 19.4331 13.0664 -0.438094 0.945737 -1.62314
33.1305 17.5696 13.4162 2.07968 -1.67926 0.986906
32.554 18.7347 10.9135 0.113912 0.688743 -0.0565411
8.2676 21.9293 13.7893 -1.10583 1.83633 -0.386436
11.649 24.04 14.0651 -0.373016 -2.5535 1.30368
13.0638 21.8871 12.7483 -0.702593 -0.225959 1.56778
10.4259 22.5017 11.9983 -1.75655 0.668163 -0.0970562
16.4778 23.9956 13.1017 0.902908 0.529403 -0.847915
17.9392 21.8446 11.8296 0.248415 -1.27312 0.805756
15.7525 21.2684 13.5851 1.21434 2.41888 -0.569331
15.2342 22.4559 10.9825 -1.41794 -0.0625815 -3.1134
19.1436 23.3757 13.9184 -1.29625 1.23512 0.982914
21.2181 21.4447 14.2377 0.241594 0.807425 -1.00862
20.7194 22.6329 11.6551 -1.17507 0.576953 0.591153
23.0706 23.3434 13.1261 0.856551 0.530432 0.970073
22.7914 20.7018 11.9822 0.109153 -1.71787 -0.524739
25.1477 21.4052 13.4496 -1.73627 1.75288 0.549885
24.6636 22.6076 10.8386 0.77608 -0.40336 -0.856221
26.7401 20.6673 11.1762 0.257343 1.67353 -0.116656
26.994 23.3167 12.3222 -0.156409 2.40326 -1.10175
29.3172 24.0105 13.8256 0.465343 0.440448 -0.742837
29.0613 21.381 12.6646 1.87021 -1.02287 -1.70173
30.8901 23.2499 11.6149 1.17177 0.179089 1.32972
30.6199 20.6262 10.4527 -1.64023 -0.705979 1.88818
31.3921 22.0539 14.2141 -0.423612 0.426724 0.203056
33.1108 23.9227 13.1736 -0.630493 -0.967771 0.30246
32.8559 21.3042 12.0173 1.18459 -0.505704 -0.526488
9.0482 24.6024 13.3644 0.245764 -0.254832 1.55909
13.8091 24.6176 12.2809 -0.227443 -0.404772 0.104085
11.209 25.1859 11.5666 -0.142725 -0.502423 1.24958
13.0073 27.3459 12.1065 1.47985 -0.517925 -1.95463
10.8415 26.7692 13.8818 -0.0450052 0.736573 -1.47261
15.9673 25.1866 10.5162 -0.760147 2.12069 -2.3195
17.8526 27.3135 11.1308 -1.16936 0.396972 0.576325
15.6541 26.7674 12.8855 -0.317366 -1.02856 0.881695
18.6473 24.558 11.3495 -0.00754125 0.630798 0.254684
18.3549 26.1131 13.7137 1.15916 -0.372073 0.397942
20.9763 25.2709 12.8197 -0.282517 -0.785041 -0.178704
20.1979 28.0556 12.6007 -0.318329 -0.317853 0.327942
23.3045 25.9722 14.3089 -1.00231 -0.805155 1.52141
22.8099 27.1694 11.7166 -0.74248 -0.567736 0.343882
22.5861 24.5403 10.5213 -1.13337 -0.069429 0.676135
25.1424 27.8657 13.2192 -1.28792 0.46937 -0.118374
24.9208 25.2489 12.0047 0.15387 0.814457 -0.798822
26.7403 27.1272 10.9753 0.206777 0.654577 -2.56821
27.2541 25.9479 13.5076 0.303261 0.547653 -0.744327
29.0696 27.8271 12.4851 1.03483 -0.784833 -0.593509
28.8101 25.1882 11.2754 0.33053 2.53924 -1.15914
31.1312 25.8787 12.7719 -1.95985 0.00318943 -0.724194
33.3078 26.4779 14.3325 0.942942 -1.52396 2.05235
17.5649 28.8546 13.5054 -0.940788 0.214143 0.575832
17.0941 29.9617 11.0015 -0.819789 -2.08552 -0.218349
14.8975 29.4782 12.7227 -0.579372 0.561009 2.08157
16.8077 31.5017 13.3919 0.137352 -0.87083 -0.238808
19.4012 30.755 12.4405 -1.31205 -1.27394 -0.429722
22.5322 28.7646 14.0845 0.421933 0.104942 0.14746
22.0406 29.9069 11.5403 -0.612312 -2.02102 -1.51821
21.7425 31.4689 13.9139 0.42412 -0.779935 -0.413659
24.6258 28.9896 10.7255 -2.63263 -0.51745 0.472274
24.3765 30.6066 13.0336 0.352288 -0.778954 0.0252212
26.9637 29.6817 12.2414 -1.69062 1.17021 1.51418
29.2673 30.3269 13.7971 -0.366213 -1.8304 -0.0901165
31.3387 28.4161 14.0148 0.26714 -1.58027 -0.762724
17.7395 7.78105 16.7002 -0.577696 -0.245578 -0.930101
20.5106 8.59239 16.5438 -2.49843 0.335791 -0.662677
19.8458 5.98541 17.0867 -0.411499 1.36787 0.421548
19.3501 7.15795 14.5049 -2.41942 -0.385244 0.38019
25.3257 7.46759 16.7184 -0.802674 -1.05346 -1.50504
22.5699 6.68586 16.891 0.686459 -1.42892 1.10996
28.0148 8.30275 16.5747 -0.788542 0.342545 0.72093
13.3846 9.17926 18.1852 -0.698981 -0.46014 0.240741
12.89 10.3564 15.6282 0.412672 0.170457 0.999562
11.4542 12.5223 16.8966 1.54892 0.408257 -1.05906
10.7971 9.90424 17.4218 -0.546831 1.99424 -0.424893
10.3108 11.0979 14.848 1.2686 0.474384 -0.321538
16.3125 12.4342 15.9218 -1.15954 -0.458688 -1.23724
15.5943 9.69204 16.3971 -1.17293 -1.67522 -1.16655
14.1376 11.8418 17.6679 0.224626 0.577526 1.39582
19.5905 12.0562 18.3259 -0.560721 0.608803 -0.254049
21.191 11.3339 16.071 0.477989 -1.9862 -0.650998
18.3699 10.4829 16.2246 0.445178 0.300914 -0.750427
23.9624 12.1199 15.8973 -2.45599 1.82269 -1.18047
26.0263 10.157 16.1981 0.97176 2.70104 0.361061
23.2748 9.34957 16.3594 0.0096476 -0.678793 -2.8856
30.071 12.4947 18.0645 -0.500972 0.0964237 0.853671
27.3037 11.7095 18.268 -0.281319 0.766152 1.84361
28.8086 10.921 16.0061 1.52146 -2.38332 -0.084547
9.52537 15.8533 15.5855 1.60346 3.02279 -2.08201
8.82395 13.1561 16.0739 0.0809875 2.09447 -0.0273899
7.37502 15.2883 17.3347 0.334444 -1.47978 -1.31695
6.9762 16.5124 14.8126 0.671125 -0.346642 0.624028
13.6558 13.0284 15.1018 0.250757 -0.940208 -0.103357
12.2105 15.2564 16.3934 0.0562809 0.391058 1.11196
9.9799 14.6414 18.1552 0.546649 0.059097 -0.943593
17.5313 14.0107 18.0102 0.506262 -0.0624659 0.343237
17.0302 15.1982 15.4238 -0.408922 -2.2443 -0.812493
14.8612 14.6032 17.1857 -0.161515 0.889832 -0.722441
14.3522 15.8045 14.5972 -0.246008 0.102942 2.00895
20.3044 14.7936 17.8346 0.95239 0.777353 0.224509
19.8062 15.9832 15.2308 -1.25435 2.57484 0.937285
22.3884 12.8738 18.1656 -1.14882 -0.668515 0.673853
21.8877 14.0653 15.5763 -0.354523 0.631547 0.789931
19.091 13.2449 15.7433 1.40081 0.104775 -0.829973
25.8766 16.3777 17.4869 -0.88887 -1.37733 1.0582
23.1052 15.588 17.659 2.02191 -1.5144 -1.65889
25.1971 13.6466 17.9743 1.29056 -0.117547 -0.365565
24.6976 14.835 15.3916 -0.352914 0.381893 1.07835
27.9833 14.4264 17.7801 2.58174 -1.57927 -1.79734
27.4885 15.6038 15.2208 0.796611 -0.0326197 0.128054
29.837 16.2948 16.6833 0.715851 0.732219 1.72605
29.5846 13.6603 15.5196 -1.03337 -1.60557 2.1682
26.8074 12.8761 15.6955 -0.415068 -0.333077 0.678763
31.9257 14.4387 17.0226 1.18587 1.65559 0.820228
31.4312 15.615 14.4652 -1.77841 -0.0107787 0.203373
33.6427 16.3843 15.9889 -0.184437 -1.0476 0.64119
8.09858 18.0027 16.8543 -0.66222 1.6428 -1.80859
6.58994 20.1269 18.1402 2.13111 -1.66968 1.03258
5.60775 18.6243 16.0693 -0.492623 0.313918 1.11194
12.8883 17.9777 15.8574 -0.546778 -3.01948 -0.370764
11.4164 20.1249 17.1523 0.942002 -0.289847 -0.0315506
10.7525 17.402 17.6623 1.01821 -1.12795 -1.89044
10.2093 18.5925 15.0238 -2.40412 1.06441 -1.86552
18.238 16.7444 17.5086 -2.7941 0.662889 -1.60753
17.7366 17.9363 14.9165 1.11299 -0.412936 0.813899
16.2585 20.0776 16.1793 -1.56436 0.101454 -0.935214
15.559 17.3473 16.6791 0.749159 1.09089 0.0745988
14.0893 19.5101 17.9583 -1.1428 0.979012 1.92891
21.7172 20.253 16.831 -1.25474 -0.510957 -1.86272
18.9403 19.4656 17.0051 -0.935174 -0.0119557 1.0478
21.0182 17.5186 17.3264 1.13518 0.413583 -0.988712
20.5172 18.7097 14.7269 0.103405 1.73584 2.08603
23.7917 18.3195 17.1603 -0.753464 -0.408965 -0.541209
23.2916 19.5115 14.568 -1.44403 -1.27161 0.257806
25.6425 20.2068 16.0469 0.116868 0.991277 -0.703537
25.379 17.5658 14.9001 -0.646583 0.0104238 0.384157
22.6019 16.7761 15.0554 0.690372 -0.0149116 1.85679
27.7257 18.2517 16.379 -0.271978 -1.33256 -0.705159
30.0449 18.9836 17.8807 0.177479 1.22368 -1.10554
29.5304 20.1681 15.3072 -0.906198 0.0929927 -1.10997
32.1536 17.0716 18.1962 -0.225427 -0.318835 0.296541
31.6574 18.2523 15.6294 2.57689 -0.348661 1.06601
33.9675 18.9523 17.1083 -0.620328 1.12632 1.61086
33.4516 20.1402 14.5291 -1.25182 1.1345 -2.65815
9.49383 23.4484 15.8801 -0.452384 -1.01515 -0.035686
7.27325 22.8648 17.6916 -0.156826 0.205034 -2.07798
6.94553 23.9983 15.1964 -1.10097 -1.03314 0.494278
8.74644 20.737 16.3563 1.53022 -1.232 -0.607299
6.22035 21.2945 15.5897 -0.837835 -1.67124 -0.899448
12.1551 22.8439 16.6628 -0.500929 -0.829658 -0.425508
13.5833 20.6993 15.359 0.398631 -0.0695936 1.33065
10.9017 21.3115 14.5329 1.31074 -0.604741 -0.524689
17.4805 21.6139 18.2758 0.0116225 -0.465487 0.550711
16.9772 22.807 15.684 2.09872 -0.2874 0.590816
14.8164 22.2338 17.4583 -0.298326 -0.508154 -1.42591
14.3173 23.4241 14.8722 0.865194 1.48665 0.00974919
19.6433 22.1855 16.5044 1.44899 0.540545 0.565516
21.9735 22.8879 17.9942 1.10415 1.60788 -1.76237
21.4748 24.0822 15.4021 -0.467256 0.336575 2.12249
18.4384 20.6566 14.412 1.79005 -0.459975 -0.296928
24.0634 20.9546 18.3194 0.0215139 0.776297 1.42941
23.5662 22.1498 15.7211 0.0351762 -0.256237 2.106
25.9006 22.8595 17.218 -1.33907 1.78832 -0.0882256
25.4052 24.0513 14.6178 -1.78716 0.388132 0.529801
27.9568 20.9135 17.5554 1.07537 -0.799517 0.0914847
27.4729 22.1134 14.9428 -0.817999 -2.1284 0.218129
29.7865 22.7994 16.4691 0.993103 1.24036 1.06725
32.1665 23.4858 17.9404 -0.261688 -0.592403 1.37671
31.9396 20.8692 16.7784 0.972775 0.629809 -0.914508
34.2217 21.5669 18.2629 2.18515 0.215758 -0.33629
33.706 22.755 15.6837 -0.10641 0.0601557 -0.153452
9.16274 25.0114 18.2429 0.460981 1.48247 0.0888631
8.68197 26.1831 15.6668 -1.13544 -0.0717178 -1.56766
6.64099 25.6135 17.4959 -0.031047 1.20154 1.14846
8.41211 27.7602 18.0267 0.594147 -0.509618 0.689788
14.0007 24.986 17.2511 0.352443 -0.530254 -1.11895
13.4838 26.1992 14.6515 1.85478 1.08556 1.72453
11.3214 25.6205 16.4348 -2.17737 0.212452 -0.530714
13.1958 27.7493 17.0279 -0.354411 0.447997 -0.485524
16.6756 24.3632 18.071 0.700204 -0.628007 2.3969
16.1704 25.5601 15.4794 0.0905474 -0.373816 -0.419362
18.0674 27.6548 16.0949 -0.680329 0.0377938 0.537273
15.8835 27.1102 17.865 0.69393 -0.832831 -0.586008
18.8539 24.9242 16.2959 -1.70708 -1.13708 1.25589
21.1921 25.6438 17.788 -0.948765 0.0582315 1.40666
20.6932 26.8424 15.196 -0.235509 -1.13229 0.896215
23.8045 24.7825 16.895 -0.120082 -0.855982 0.244241
23.0306 27.5463 16.6853 -2.27768 -2.02795 1.26257
25.641 26.6677 15.8176 2.7514 -0.814228 1.41704
28.015 27.3845 17.3334 1.15482 0.499451 0.455565
27.743 24.7544 16.1289 0.940679 0.460668 -0.973917
30.1053 25.4846 17.6563 1.16072 -1.35849 -0.0389478
29.5856 26.6456 15.0499 0.107555 0.803379 2.09238
31.9321 27.3124 16.5515 1.43687 -1.5875 0.382524
31.6201 24.672 15.3797 1.35714 0.522184 -1.30896
33.8847 25.3207 16.8388 -1.36896 1.99318 0.687745
12.7175 28.9101 14.4793 -0.184705 3.51359 -0.511492
10.56 28.3347 16.2491 -0.144107 -1.36751 0.612724
12.4343 30.4492 16.8601 -0.58598 0.331811 0.783589
15.3632 28.3195 15.2643 -0.94883 0.941171 1.80258
17.2796 30.392 15.9008 -1.07877 0.733715 -0.846922
15.0788 29.8594 17.6598 1.1739 0.0766231 -1.76731
14.6129 31.0237 15.1113 1.84401 -1.19949 0.608918
16.9997 31.9161 18.3274 -0.680335 0.741841 0.719471
20.4011 28.391 17.582 0.701418 -0.129439 1.02938
19.9076 29.6079 14.9796 0.112552 -0.929688 0.751132
19.6199 31.1469 17.3754 0.764943 0.313508 -0.0336873
22.2401 30.3137 16.4613 -0.450171 -1.3582 0.04332
25.3744 28.2404 18.1911 0.788186 0.504098 0.223522
24.8672 29.4611 15.5859 0.56131 1.65143 -0.0778189
24.5664 31.0027 17.9619 1.79035 1.14012 -1.10716
26.7133 31.2954 14.5367 -0.569354 2.6689 0.407171
27.4818 28.5485 14.7527 -0.4268 2.85079 0.763925
27.2178 30.1306 17.1114 1.1911 0.55401 -0.168433
29.8718 29.2721 16.275 -1.04747 -0.456752 -1.75379
28.9463 31.9374 16.0979 0.710197 -0.325289 0.0572443
16.5241 33.036 15.8018 0.0270514 -0.432714 0.499357
14.3354 32.5609 17.51 -1.16536 -0.276287 -0.0339069
16.2598 34.5059 18.2332 -1.07512 -0.309363 -0.143691
19.1102 32.2987 14.8297 -0.33909 -1.16382 -0.411134
18.8183 33.8319 17.2294 0.903546 0.519686 1.81269
21.4525 33.0061 16.2954 -2.02524 0.134553 -0.408827
24.07 32.1652 15.4027 -0.698664 1.49466 0.81679
23.7863 33.7054 17.8002 -1.88816 0.659764 -0.601472
26.3897 32.8574 16.9002 -0.627424 1.69177 -0.724114
13.912 8.00195 20.7426 0.427304 0.225911 1.22922
11.3072 8.72666 19.9985 0.138738 0.0680185 2.25842
16.5896 7.36145 21.507 0.675269 -0.485211 1.80455
16.0888 8.5281 18.9411 0.908132 0.668399 -1.43547
18.2134 6.62115 19.276 -1.19974 1.01377 2.26241
19.3928 8.14335 21.3966 0.118194 0.53043 0.14795
21.4943 6.23747 21.7397 0.837976 -0.861225 1.08908
20.994 7.4524 19.1379 -0.141503 -0.344368 0.888754
18.7446 5.56306 21.8456 -1.07453 -1.12627 -0.143679
20.3179 4.90515 19.6486 -2.29978 0.596453 0.543596
24.2641 7.01313 21.5548 1.63256 0.818771 -1.26475
23.7616 8.20942 18.9559 -0.329212 1.03579 -0.0853613
25.7936 6.39726 19.2979 -0.89289 -0.692204 0.157956
23.0339 5.61434 19.4708 1.12721 0.166703 0.850576
29.7165 8.67599 21.158 -1.30017 -2.81131 -1.33295
27.0298 7.80798 21.3928 1.46522 0.450773 -2.07729
28.4784 7.22037 19.1373 0.491703 0.536045 0.912407
9.82267 10.7784 21.2377 -0.605847 0.426659 -0.573222
9.30881 11.9583 18.6545 0.819875 -0.865836 -2.56058
12.4923 10.1817 22.0369 -0.093014 -0.408053 -1.04811
11.9505 11.3407 19.4629 -0.0483669 3.09911 -0.700957
17.3081 10.0832 21.0523 -0.7429 0.352142 1.99983
16.8075 11.2562 18.4808 0.880587 0.00403019 0.449998
15.8543 12.2281 22.3667 -0.677292 1.22913 1.59436
14.6483 10.6661 20.2334 1.01414 -2.06124 -0.292897
20.1036 10.864 20.9178 0.365888 0.643638 -0.443733
22.2042 8.91477 21.2715 -0.369735 0.354654 1.45814
21.6847 10.1626 18.6547 -1.04484 0.0254977 -1.93826
18.8596 9.31411 18.7974 -0.266658 1.28724 -0.865158
25.6879 12.4482 20.5678 -0.964834 1.89978 0.549192
22.8973 11.6555 20.7649 1.55018 -0.160861 -1.55521
24.9753 9.70098 21.0979 -0.615597 -0.719197 -0.832799
24.4579 10.9493 18.4809 -0.0607094 0.058446 -0.789832
26.5154 9.01878 18.7919 -0.394031 -1.11544 0.875354
30.5557 11.3238 20.6316 -3.39848 0.178714 -1.12858
27.7671 10.5192 20.8717 -1.05897 -0.952207 -0.840478
29.314 9.77044 18.5801 2.41324 -1.91807 1.1325
32.7886 12.1432 22.1599 -0.278989 -0.314956 -0.153479
9.05012 15.6081 21.9865 -2.06264 -1.71723 0.468912
7.85986 14.0903 19.9152 -1.18422 0.696437 -0.0220589
6.50109 16.2253 21.1599 0.176842 0.320833 1.36806
13.9104 15.596 21.0564 -1.21539 0.204565 1.22787
13.2067 12.8845 21.5455 -1.38385 1.72497 0.556353
12.694 14.0623 18.9686 -0.168038 -0.0422482 -0.685001
11.2368 16.2064 20.2366 1.77154 -1.95836 -0.0111729
10.4765 13.459 20.7234 -0.150966 -0.789303 1.00332
18.03 12.8181 20.5947 0.693215 -2.21855 1.50492
16.5641 14.9539 21.8786 0.452889 1.20305 -3.10627
16.0703 16.1532 19.2784 -1.13182 1.00415 1.71171
15.3605 13.4144 19.7682 -0.412838 -0.410217 0.498341
21.5209 16.3217 19.9272 -0.204407 -0.676616 2.67399
18.7404 15.5483 20.1073 1.75913 -0.957015 0.738015
20.8115 13.5902 20.4304 -0.358656 -0.164982 -1.81099
24.7958 15.9303 22.3505 -0.889829 -1.27081 1.61897
26.3786 15.1864 20.0713 -1.21292 0.667366 -1.22657
23.6072 14.3833 20.2552 1.50357 -0.596619 -0.907123
28.7292 15.8806 21.5598 -0.568855 0.14047 -1.64274
28.4721 13.2504 20.3525 0.0219167 -1.04228 0.781593
30.8075 13.9507 21.8634 0.704539 0.0666054 1.6284
30.318 15.1113 19.251 1.20315 -0.122035 0.14934
32.6005 15.8864 20.7765 -0.37897 -0.567887 0.163848
32.3927 13.245 19.5842 -0.912152 -0.154545 -0.686239
34.525 14.0447 21.1092 -0.0423599 1.43081 1.2476
34.1265 15.2001 18.5677 -0.0561049 -1.64896 -0.57686
9.70115 18.3694 21.5286 -2.35602 -1.94593 -1.69903
9.21636 19.5613 18.9655 -0.542761 1.39202 2.61996
8.55405 16.7897 19.4202 -1.01682 0.157811 -1.0888
7.07005 18.9201 20.6932 -2.04449 0.0878101 0.260157
6.01585 17.4184 18.5857 -2.44576 -0.205523 0.789209
13.4099 16.7879 18.4673 1.08162 0.743382 -1.44701
12.4125 17.7517 22.3336 1.50624 -0.25805 -0.3143
11.9134 18.9407 19.7511 -0.32564 0.294374 -0.585337
17.267 17.6876 21.3776 -0.393155 1.68245 -0.0173645
16.7644 18.8847 18.7769 -0.213262 -0.578087 0.408198
14.5977 18.32 20.56 0.761744 -0.760894 -0.939315
20.6456 19.798 21.6921 0.487584 0.52412 -0.973575
22.2193 19.058 19.4272 0.993059 -1.44757 -1.66123
19.9438 17.0757 22.1977 0.63058 2.3505 -2.81945
19.4419 18.2703 19.6013 0.272434 1.23823 0.587187
22.7207 17.8634 22.0237 -1.37515 -0.482138 -0.584908
24.5659 19.7578 20.9203 -1.32624 -0.772565 -0.63791
24.294 17.1236 19.7591 -0.529072 1.55831 -0.639701
26.6474 17.8143 21.2468 1.21442 0.543707 2.36607
26.1362 19.0082 18.6475 -0.920395 0.489126 0.500258
28.4571 19.7221 20.1449 -0.494466 0.0846592 1.71387
28.2249 17.0635 18.9618 -0.597538 -2.0911 -0.776474
30.5263 17.7976 20.4601 -0.215851 -0.109106 3.15591
32.8834 18.504 21.9312 0.385985 0.288736 -2.12415
32.4359 19.6877 19.3471 1.67246 -1.0911 -0.734437
34.7039 20.3793 20.8488 -1.29599 0.251519 2.59677
34.8328 16.5989 22.2462 -2.17645 -0.817533 0.861172
34.4498 17.7645 19.6941 1.72771 1.04895 2.07666
7.75415 21.6858 20.2556 -1.04191 3.11861 -2.43881
9.62886 23.7988 20.8359 0.176336 -1.26997 0.215035
13.1435 20.4667 21.8288 0.472566 0.910855 0.266253
12.6411 21.657 19.2439 -0.410463 -2.46016 -2.40945
10.4367 21.0802 21.0356 -0.958197 -1.12693 -0.707993
9.95075 22.2624 18.4655 0.850864 1.24083 1.34212
12.3276 23.197 21.6298 -0.747135 -0.589665 2.26808
17.9817 20.4188 20.8722 0.931833 -0.69753 1.17752
15.3182 21.0408 20.0498 1.27753 0.552358 1.30525
17.1808 23.1651 20.6664 -1.12247 -0.413856 -1.38544
14.5052 23.784 19.8448 0.361538 0.0740579 0.0260643
20.1444 20.9919 19.0979 1.10022 1.06771 0.413143
19.8566 22.5344 21.4837 -2.1473 -0.354504 -0.279492
19.3552 23.729 18.8871 -1.81311 0.411614 -0.169567
22.4755 21.6933 20.5907 0.344152 -1.85261 0.256654
24.8062 22.3933 22.0857 -0.379698 -0.135807 2.94448
24.3042 23.5892 19.4868 -0.317484 2.05452 0.199656
26.3946 21.6658 19.8208 2.22146 1.26764 0.248939
28.742 22.3833 21.3107 0.24118 0.122317 0.607864
28.2431 23.5716 18.7278 1.90508 -0.42351 -0.817366
30.782 20.4289 21.622 -0.598082 -1.14144 -1.34601
30.3006 21.6132 19.0419 -0.0873823 -0.476521 -0.290484
32.6623 22.3051 20.5072 0.174876 -0.668462 -0.223762
34.8797 22.9513 21.9905 -0.701221 0.289753 -1.10247
34.3965 24.1364 19.4121 -0.732076 1.33329 0.558944
7.01136 24.4551 20.0505 -0.202434 1.05006 -1.41154
8.93144 26.5573 20.6303 0.823093 0.674155 -1.83568
6.8521 26.0102 22.3782 -2.3857 0.177429 -0.610906
6.4355 27.125 19.8214 -0.250384 2.72413 1.05062
11.8327 24.4006 19.0396 -0.338395 0.616885 0.129535
13.7209 26.5308 19.6326 1.68749 -0.173157 -0.60997
11.5828 25.9328 21.4277 0.74212 -0.626684 -0.900292
11.0444 27.1687 18.8091 -0.0806873 -0.732581 0.380528
13.4551 28.0452 22.0382 1.74486 -0.812488 -1.26749
16.3926 25.9135 20.4603 0.171272 0.232545 0.753396
18.2775 28.0162 21.0819 -0.392806 -0.570556 1.87144
14.2398 25.319 22.2329 0.828387 -1.54267 -0.804326
19.0675 25.2712 21.2725 1.52032 0.997093 0.500719
18.5667 26.465 18.6812 -0.926861 -0.448548 2.02752
21.6918 24.4444 20.3838 1.38274 -1.19299 -2.07216
20.8967 27.1907 20.1782 1.43264 -0.271183 0.46734
24.0339 25.1392 21.8756 1.67447 -0.901651 0.789477
23.5328 26.344 19.2793 -0.966881 -0.602592 -0.249597
26.6465 24.2963 20.9829 -0.576968 0.502304 1.71041
26.1496 25.4876 18.3975 0.503723 0.6142 -1.14541
23.2303 27.8686 21.6698 1.0505 -1.75214 -0.363788
25.8849 27.0417 20.7806 0.532657 1.14054 -0.863069
28.5198 26.2083 19.9026 0.766658 -1.78724 0.292556
28.2558 27.7728 22.2722 0.00510799 -0.777627 0.0503372
30.8753 26.9352 21.3806 -0.965136 1.84787 -1.19167
30.3785 28.101 18.8378 0.0804786 0.0872078 -0.836117
30.6154 24.3008 20.2182 1.71737 -0.52479 0.520216
32.9466 24.9418 21.66 2.68779 -0.246295 0.70455
32.4528 26.1181 19.1024 0.84677 -0.443323 -0.475387
8.21347 29.2203 20.4215 1.52819 0.830465 -1.64482
12.9154 29.2795 19.4191 -0.628977 1.17825 1.94875
10.7737 28.6771 21.2456 -0.361867 -2.23768 0.945113
10.2716 29.8735 18.6466 -0.564499 0.393586 0.733545
12.6591 30.7629 21.8456 0.950269 0.253401 -0.661842
12.1496 31.9766 19.2451 -1.32121 1.46513 -1.62786
10.0766 31.3223 21.0288 0.714651 -0.525539 0.0137315
17.7823 29.1923 18.4977 -0.641627 -0.232939 0.708883
15.6029 28.6542 20.2689 0.26338 2.3169 -1.85264
17.4881 30.7661 20.9233 -0.53066 0.938765 0.875795
14.8167 31.3901 20.0864 -0.946634 0.435795 0.389573
20.1088 29.9318 19.9868 1.14543 -0.908298 -1.25082
22.4453 30.5945 21.4753 0.146122 0.403725 -0.406961
21.9534 31.8422 18.8531 0.783421 -0.659402 -0.594958
22.7347 29.0868 19.068 0.893964 -0.897924 2.8438
25.0603 29.7546 20.5835 -0.467827 -0.113279 0.623784
27.7577 28.9395 19.7 0.354102 -1.08059 -2.67438
27.3943 30.5083 22.0946 -0.999713 1.23024 0.915336
26.881 31.6468 19.5056 -0.357505 -1.16798 0.194878
30.025 29.6906 21.216 -0.0619393 0.385051 -1.00942
29.5345 30.8411 18.639 0.96455 -1.30962 0.457983
14.0489 33.9707 19.9112 -0.989543 -0.181445 -3.10584
11.945 33.3407 21.6175 1.0034 1.54155 -0.610411
16.7026 33.5028 20.7661 -2.64451 -0.512963 1.38156
19.3214 32.6674 19.8045 -1.08308 -0.673718 0.207489
19.067 34.2037 22.2087 0.173215 -0.41665 -1.04585
18.6004 35.2613 19.6264 1.24734 0.776121 0.261805
21.6746 33.3192 21.2813 1.1947 0.995003 0.689393
21.1701 34.5343 18.6805 -0.0936234 1.06379 -0.317183
20.9036 35.8808 21.057 -0.0526266 -0.0879668 0.515318
24.2881 32.509 20.3992 0.442813 0.581147 -1.45145
23.4689 35.1194 20.1904 -0.2461 -0.235175 -0.589452
26.5999 33.2124 21.8702 1.17971 0.699246 0.592677
26.0711 34.2835 19.3027 -0.973707 0.879888 -1.27348
29.1248 32.3257 20.9825 0.591357 0.0135898 -0.278398
28.5987 33.4087 18.4324 -1.24985 -1.05144 -0.243301
11.8698 7.61713 22.5294 0.544772 1.33961 0.725114
17.1249 6.35748 24.0217 -1.66479 -1.29213 -1.87586
15.658 8.33605 25.4152 -0.116459 1.29816 0.420588
14.4524 6.94087 23.3092 1.573 -0.336385 -0.654957
21.0979 8.4973 26.0758 -1.01175 0.705175 0.0161574
18.3227 7.81302 26.1638 -0.799416 -0.837719 0.280011
19.8855 6.97903 23.9738 -1.78971 1.0404 0.898959
25.4683 8.53863 23.6578 -0.875875 -0.580422 -0.733271
22.6923 7.75103 23.8318 -1.0924 -2.1155 -0.373408
8.95338 11.8037 25.0396 -2.16973 0.371033 -2.40325
13.6811 11.6509 24.1776 0.860151 0.773267 1.02285
12.9877 8.96823 24.6402 1.87992 1.45458 0.169644
11.5193 11.1046 25.9002 -1.19893 0.686034 0.739667
11.0172 12.3009 23.3012 -0.3736 0.222401 -3.58772
10.4047 9.66868 23.7771 -0.965281 -0.287756 0.731367
17.8226 8.93306 23.643 0.987047 -2.92885 0.582019
16.3399 11.0234 24.9834 -1.64227 -0.669559 1.13136
15.1448 9.50699 22.8451 -0.155363 -2.35227 1.45082
21.8296 11.1729 25.6234 -0.0828697 2.0412 1.2611
21.3186 12.3899 23.0244 1.05345 -1.9176 -1.27152
19.034 10.4425 25.7746 0.990664 -0.00318675 1.95125
18.5333 11.642 23.1773 1.45032 0.645674 0.0513711
20.6223 9.64869 23.5233 -1.45021 -2.32828 -1.37767
24.6132 11.9626 25.449 1.92102 -0.14495 -0.445433
26.6833 10.082 25.7259 0.578364 -0.187972 1.65619
26.1873 11.2276 23.1746 0.0411425 1.21532 2.12611
23.8963 9.27343 25.9177 -0.630607 -3.51768 -2.75538
23.4088 10.4285 23.3683 -2.65271 -0.210328 -1.70649
29.3946 10.9545 25.47 1.01629 -1.1928 -0.435186
28.9393 12.0871 22.9464 2.30102 -0.883825 -0.722581
30.9199 10.2715 23.1571 -0.828836 -2.4798 2.953
28.2585 9.35465 23.4491 -0.391519 -0.098728 -0.464123
9.58864 14.4532 24.5631 -0.572653 -0.0964681 -1.19268
8.37348 12.9105 22.4986 -1.77765 1.06658 1.42552
7.578 13.9304 26.2632 0.795319 -2.6775 1.25956
7.01141 15.0466 23.7361 1.13249 -1.60177 -1.23953
12.2237 13.7947 25.4455 1.43943 -0.489918 -1.3161
11.7484 15.0299 22.8144 0.832562 0.324729 -0.286985
17.7649 16.4896 23.9745 1.31286 -1.03294 -0.685864
17.0584 13.7575 24.4769 -0.389975 -2.28176 1.04464
15.5919 15.9148 25.7529 -0.516667 0.652656 0.528932
14.8797 13.1665 26.2762 2.49824 0.283317 -0.0827066
14.3971 14.3845 23.663 2.25855 -2.36035 -1.38428
20.4438 15.8805 24.7892 -1.75903 1.98409 0.419167
22.5265 13.9235 25.1137 2.23246 -1.22933 2.29535
22.024 15.1222 22.5224 1.57645 -1.6002 0.984913
19.7409 13.1648 25.2848 -0.0976472 -1.33658 1.39481
19.2409 14.3545 22.6986 -0.781677 -1.27734 -1.08556
25.2951 14.7406 24.9368 0.642125 0.642304 -1.48166
24.1073 13.181 22.8497 -0.0760286 0.766192 1.20148
27.3731 12.8085 25.2521 1.23543 0.480425 0.882565