ITEM: TIMESTEP
0
ITEM: NUMBER OF ATOMS
891
ITEM: BOX BOUNDS ss ss ss
2.8735043791138620e-01 4.0502649562088614e+01
2.0597818505948782e+00 3.8730218149405118e+01
1.8844932663834166e+00 3.8905506733616598e+01
ITEM: ATOMS x y z vx vy vz
20.2947 18.0305 5.90178 -1.17167 0.288233 1.43032
17.5676 22.2064 5.81167 0.106318 0.0554236 0.420907
19.8404 20.6916 4.89848 -0.649747 1.23296 1.93518
14.8405 26.3823 5.72156 0.175715 -2.63264 -0.0476541
17.1134 24.8675 4.80837 -0.985105 0.472996 0.387416
19.3862 23.3527 3.89518 1.08914 1.30282 1.57334
18.932 26.0138 2.89188 -1.11734 -0.265583 -0.153611
21.5883 22.843 5.67997 -0.612743 0.387845 0.767317
21.1341 25.5041 4.67667 1.12345 1.27806 0.508682
18.8612 27.0189 5.58986 -1.21028 -0.237555 -0.037445
16.6591 27.5286 3.80507 0.605967 0.890465 0.348998
18.407 29.68 4.58656 -2.70666 -0.472888 1.38756
18.4778 28.6749 1.88857 0.705222 -0.222014 -0.863407
22.8819 27.6556 5.45816 -0.935122 -0.167464 0.50477
20.6798 28.1652 3.67337 0.418964 1.24647 -0.203526
22.1116 7.38607 9.91498 0.224352 2.19909 -0.859576
21.6573 10.0472 8.91169 -0.171274 0.423368 -2.12031
19.3845 11.562 9.82488 0.0673539 0.85585 -0.0174647
18.9303 14.2231 8.82158 2.57848 -1.57885 -1.80141
23.4052 12.1986 9.69318 -0.200383 -0.569471 0.485121
21.2031 12.7083 7.90839 -0.973577 1.9304 0.543068
16.6574 15.7379 9.73477 -0.27764 -1.34782 -0.705141
18.476 16.8842 7.81827 -1.67744 -0.629409 1.14475
20.6781 16.3745 9.60307 0.784122 -0.0265897 0.126761
22.951 14.8597 8.68988 1.27982 -0.0877298 -0.373997
20.7489 15.3694 6.90508 -0.656082 0.401399 -2.1207
22.4967 17.5208 7.68657 0.509987 -0.233511 0.727326
24.6988 17.0111 9.47137 -0.372598 0.41542 1.07182
13.9303 19.9138 9.64466 -1.6398 1.39798 1.72781
16.2032 18.399 8.73146 0.846292 0.0180466 0.471332
15.7489 21.0601 7.72816 -1.78683 0.684563 -0.0912087
17.951 20.5504 9.51295 -1.20351 -0.442635 -1.21955
20.2239 19.0356 8.59976 -0.716733 1.27538 1.60788
18.0218 19.5453 6.81497 -1.06888 3.17458 -2.44565
19.7697 21.6967 7.59646 -0.188276 0.25864 -2.08482
21.9717 21.187 9.38125 -0.457836 -0.364096 0.509255
24.2446 19.6722 8.46806 2.46199 0.358039 -0.0819513
22.0425 20.1819 6.68327 -0.458358 -1.99164 -2.29003
23.7904 22.3333 7.46476 0.143184 -1.19714 0.20322
25.9925 21.8237 9.24955 2.21592 -2.2876 -1.38655
11.2032 24.0896 9.55454 -0.596047 -3.03529 -0.337259
13.4761 22.5749 8.64135 1.92163 -1.45256 -1.45496
15.2239 24.7263 9.42284 1.45522 -0.234947 -0.288153
13.0219 25.236 7.63806 -1.1883 1.39731 -0.430145
15.2947 23.7212 6.72487 0.705465 -0.596568 -0.893855
17.4968 23.2115 8.50965 -0.178439 1.30392 -0.155045
19.2447 25.3629 9.29114 -2.28028 -0.350442 1.24151
17.0426 25.8726 7.50636 -0.124725 -0.699818 0.388478
19.3154 24.3578 6.59317 -1.86669 -0.670953 0.635664
21.5175 23.8481 8.37795 -1.14025 -0.979101 0.49149
23.2654 25.9996 9.15944 -0.472043 -0.0611339 -0.880276
23.3362 24.9944 6.46146 -1.91557 -2.27381 1.75665
27.7403 23.9751 10.031 -1.27017 0.284628 1.22953
25.5382 24.4848 8.24625 0.422361 1.56292 0.07612
14.7697 27.3874 8.41955 0.800842 0.723446 1.46482
16.5176 29.5388 9.20104 2.17283 -0.214186 0.0566489
18.7904 28.024 8.28785 -0.194334 -1.33304 0.620467
16.5884 28.5337 6.50305 -0.222456 -0.753459 0.0750545
20.9925 27.5144 10.0726 0.262667 0.632878 0.947948
20.5383 30.1755 9.06934 -0.575287 -1.93447 -0.646568
21.0633 26.5092 7.37466 -1.95544 1.0859 0.616314
22.8112 28.6607 8.15615 1.6926 -0.751262 -1.2697
20.6091 29.1703 6.37135 -0.715227 2.37524 -0.94763
25.0132 28.151 9.94093 -0.0153685 -0.991246 1.56834
27.2861 26.6362 9.02774 -1.18296 0.00876773 -1.58398
25.084 27.1459 7.24295 -0.215978 -0.414613 1.93499
18.2654 31.6903 9.98253 -0.982674 0.819224 -1.04446
18.3362 30.6851 7.28454 2.2524 -1.52544 -0.339116
18.4743 5.09345 13.748 0.752992 -0.459392 1.76687
20.7472 3.57865 12.8348 0.827124 0.739723 1.14998
22.495 5.73009 13.6163 1.20653 -0.0561088 -0.0425646
23.02 2.06386 11.9216 -0.992292 -0.513868 0.362453
22.5658 4.72496 10.9183 -1.23448 -1.25281 -0.498752
24.7679 4.2153 12.7031 -0.312969 -0.099096 2.89196
15.7472 9.26934 13.6579 0.409631 0.0798454 -0.00145287
18.0201 7.75455 12.7447 0.755387 -0.821287 -0.630146
19.7679 9.90599 13.5262 -0.896271 0.958699 1.76197
20.2929 6.23976 11.8315 -1.00779 0.755404 -0.906969
19.8387 8.90086 10.8282 0.936627 0.230426 -0.0962929
22.0408 8.39119 12.613 0.204296 -0.849087 -0.298283
24.3136 6.8764 11.6998 -1.62755 -1.04937 0.748607
23.8594 9.5375 10.6965 1.24081 0.752318 0.265634
26.5157 6.36673 13.4846 -0.25665 2.09793 0.141579
26.0615 9.02783 12.4813 -0.227452 0.604105 0.368109
13.0201 13.4452 13.5677 1.54665 -1.72164 1.49009
15.293 11.9304 12.6546 -1.02884 -1.05497 -0.413036
17.0408 14.0819 13.436 -0.0876331 2.05358 1.27141
17.5658 10.4157 11.7414 -1.11566 -1.8291 -1.22514
19.3137 12.5671 12.5229 0.991774 0.0255686 1.95408
17.1116 13.0768 10.7381 0.00753597 -1.43382 -0.966239
23.7886 10.5426 13.3945 0.793248 -0.515051 1.00769
21.5866 11.0523 11.6097 -1.39756 -0.465115 0.862624
23.3344 13.2037 12.3912 -0.387749 -2.23477 1.03132
21.1323 13.7134 10.6064 1.46084 -0.889172 -2.52952
25.5365 12.6941 14.1759 -2.31874 1.36567 0.602238
27.8094 11.1793 13.2628 0.723764 0.938834 -0.594243
25.6073 11.6889 11.478 -0.505005 0.724287 0.500779
27.3551 13.8404 12.2595 0.675744 0.0414453 0.930219
29.5572 13.3307 14.0442 1.56307 2.17032 1.1589
10.293 17.6211 13.4776 -1.04026 -1.32871 0.19902
12.5659 16.1063 12.5645 0.239463 0.581076 -0.108609
14.3138 18.2578 13.3459 0.902872 0.88991 -0.214558
14.8388 14.5915 11.6513 -0.855879 -0.107121 1.22545
14.3845 17.2526 10.648 -0.821875 -2.16126 0.221868
18.7887 16.2333 14.2175 1.04474 -1.90945 -1.26643
16.5866 16.743 12.4328 -1.23606 0.252664 0.393276
18.8595 15.2282 11.5196 1.11899 1.24244 -0.120914
18.4053 17.8893 10.5163 -0.618036 -2.49067 -1.60649
21.0616 14.7185 13.3043 1.44625 0.67838 0.0501399
22.8094 16.87 14.0858 0.681745 -2.1881 1.50563
20.6073 17.3796 12.3011 -1.51448 0.485826 2.01564
22.8802 15.8648 11.3879 -1.642 0.718837 2.91583
25.0823 15.3552 13.1726 0.450607 1.25901 -3.12763
26.8301 17.5066 13.9541 -1.14292 1.06254 1.69822
24.628 18.0163 12.1694 0.280612 0.640841 1.01536
25.153 14.35 10.4747 0.0944631 -0.314867 -0.495565
26.9009 16.5015 11.2562 -0.248144 -0.0497159 -0.379404
29.103 15.9918 13.0409 0.763691 -0.686192 -0.97146
30.8508 18.1432 13.8224 -1.15026 1.05961 1.90119
7.56597 21.797 13.3875 -0.902058 0.192376 -1.6988
9.83882 20.2822 12.4743 -1.69089 1.11116 1.52467
12.1117 18.7674 11.5612 0.304078 0.503285 -0.74016
11.6575 21.4285 10.5578 0.718089 -1.15911 1.36529
16.0616 20.4092 14.1274 1.28284 0.33619 -0.845648
13.8595 20.9189 12.3426 0.201368 0.613348 -2.56793
16.1324 19.4041 11.4294 -0.165096 2.38116 -1.10105
15.6782 22.0652 10.4261 -0.167724 -1.13017 0.675184
18.3345 18.8944 13.2142 -0.29614 -0.194848 -0.188118
20.0823 21.0459 13.9957 0.474589 -1.52385 -1.19001
17.8803 21.5555 12.2109 0.848644 0.296268 0.354568
20.1531 20.0407 11.2977 0.240659 1.66917 -0.116993
22.3552 19.5311 13.0825 1.23503 -0.42923 1.35181
24.103 21.6825 13.864 -0.860305 -0.279153 0.874557
21.901 22.1922 12.0792 -1.33313 0.974863 0.850732
22.426 18.5259 10.3846 -0.874883 0.0239942 0.00649517
24.1738 20.6774 11.166 -0.519583 1.62571 -0.701671
26.3759 20.1677 12.9508 1.05103 -1.70839 -0.393433
28.1238 22.3191 13.7323 0.888255 -0.84988 2.81913
26.4467 19.1626 10.2529 -2.39136 -2.89424 0.309667
28.1945 21.314 11.0343 0.556061 -0.766987 0.144327
28.6488 18.6529 12.0377 0.536259 1.19624 -0.900943
30.3966 20.8043 12.8191 0.786238 0.561509 0.186893
9.31382 23.9485 14.169 0.0295192 -1.82848 -0.863844
11.5867 22.4337 13.2558 1.88495 -0.486051 -1.03751
9.3846 22.9433 11.471 -2.71255 -0.242888 -1.6575
11.1325 25.0948 12.2525 1.49187 -0.190525 -1.50668
13.3345 24.5851 14.0373 -1.22372 -0.0880463 -0.282336
15.6074 23.0703 13.1241 -2.13001 0.274287 2.08641
13.4053 23.58 11.3393 -1.07677 0.704849 0.0636062
15.1532 25.7314 12.1208 -1.52211 -2.33117 -1.33328
12.9511 26.2411 10.336 0.227038 1.43563 0.552018
17.3552 25.2217 13.9056 -0.434057 0.991686 -1.40587
19.6281 23.707 12.9924 -0.352624 0.208941 -0.0844029
17.426 24.2166 11.2076 -3.24411 -1.23047 0.275736
19.1739 26.3681 11.9891 -0.878048 -0.807499 0.322552
19.6989 22.7018 10.2944 0.442718 -0.199353 1.54147
21.376 25.8584 13.7739 0.422242 1.0622 -0.648487
23.6488 24.3436 12.8607 0.959798 -1.16705 -0.413587
21.4467 24.8533 11.0759 0.033694 0.953478 -1.56772
23.7196 23.3385 10.1627 -0.212091 0.941087 -0.714363
25.3967 26.495 13.6422 2.24066 -0.854678 -0.702042
25.9217 22.8288 11.9475 -0.11629 0.24411 -1.07369
27.6695 24.9802 12.729 0.515715 -0.133673 1.6748
25.4675 25.4899 10.9442 -0.302732 0.15563 2.0212
32.1445 22.9558 13.6006 0.553006 1.71368 -0.115713
29.9424 23.4654 11.8158 -1.0132 -0.922714 0.462709
31.6902 25.6169 12.5973 -0.700642 -3.44251 -2.75146
29.4882 26.1265 10.8125 1.02491 0.827215 -1.45078
12.8803 27.2462 13.034 -1.21789 -0.69627 0.725613
14.6282 29.3976 13.8155 -0.4282 0.608914 0.841226
14.6989 28.3925 11.1175 1.82168 1.85955 -0.633119
16.901 27.8829 12.9023 0.291244 0.648854 -0.398411
18.6489 30.0343 13.6838 -0.643027 0.61679 -0.209067
16.4468 30.544 11.899 -0.709731 -0.813301 0.00763126
16.9718 26.8777 10.2043 -0.385945 0.321282 -0.560337
18.7197 29.0292 10.9858 0.87792 -0.26119 -0.00622344
20.9217 28.5195 12.7706 0.905411 -2.89941 0.624561
23.1946 27.0047 11.8574 0.907552 -2.4182 -2.9943
22.7404 29.6658 10.8541 0.426144 -1.24747 -1.11116
24.9425 29.1561 12.6389 -0.259929 0.137773 -1.89372
27.2153 27.6413 11.7257 -0.448265 -1.89962 0.0504356
29.4174 27.1317 13.5105 -0.0285821 1.27499 2.14497
18.1947 32.6954 12.6805 -0.782159 -0.788968 0.490025
22.6696 30.6709 13.5521 -0.833714 0.390257 2.0443
20.4675 31.1806 11.7673 1.24129 -0.573859 -0.500903
18.4035 6.09857 16.446 -0.236231 0.749695 1.83022
20.6764 4.58378 15.5328 -0.817828 1.21257 -0.812256
22.9492 3.06899 14.6196 0.166975 0.563745 0.11763
20.6056 5.5889 18.2308 0.790723 1.61611 -1.76496
22.8785 4.07411 17.3176 0.0109675 1.08154 -0.395339
24.6971 5.22042 15.4011 -0.224619 1.32476 -0.897917
11.6557 9.63783 16.4875 0.651262 0.173159 1.83021
13.9286 8.12303 15.5744 -0.767045 -0.159899 1.80191
16.2014 6.60824 14.6612 -1.47126 0.936772 1.45809
13.8578 9.12816 18.2723 0.22743 1.17371 -1.11846
16.1307 7.61336 17.3592 1.78498 0.655684 0.522589
17.9493 8.75967 15.4427 -0.479003 1.46672 -0.506988
20.2221 7.24488 14.5295 0.993832 0.147201 0.979176
17.8785 9.7648 18.1406 -0.803275 -2.50741 2.95631
20.1514 8.25001 17.2274 -0.376291 -0.348652 0.662675
21.97 9.39632 15.311 3.60864 -0.644628 0.447133
24.2429 7.88152 14.3978 -0.341532 0.241058 -0.0515748
22.4242 6.73521 16.3143 -0.0529251 1.05034 0.86654
24.1721 8.88665 17.0957 -1.07067 -2.08958 -0.390279
25.9907 10.033 15.1793 1.43363 -1.15554 -2.12527
28.2636 8.51817 14.2661 -0.0649114 -0.814948 0.185568
26.4449 7.37185 16.1826 0.482414 0.339503 -0.783608
28.1928 9.52329 16.964 -2.2282 2.13837 0.544996
24.6263 6.22554 18.0991 2.30575 2.107 1.02873
7.11 12.6674 18.3139 -0.101922 0.190128 1.70629
9.38286 11.1526 17.4007 -0.657185 -0.0886049 -1.7402
11.1307 13.3041 18.1822 1.62056 0.0553992 -0.816218
8.92864 13.8137 16.3974 1.77621 -1.0032 0.75686
11.2015 12.2989 15.4842 -0.370279 1.66038 -0.0137525
13.4036 11.7893 17.269 0.520058 0.572967 1.60699
15.1514 13.9407 18.0505 -0.0999959 -0.572242 -0.586269
15.6764 10.2745 16.3558 0.334449 -0.576148 -0.12754
13.4744 10.7841 14.5711 0.5081 0.910736 0.254683
15.2222 12.9356 15.3525 -0.382519 -2.46345 -2.42645
17.4243 12.4259 17.1373 0.308999 0.891453 1.33907
19.6971 10.9111 16.2241 0.715136 0.242389 -1.2533
17.4951 11.4208 14.4394 0.394525 -0.522729 -1.1492
19.2429 13.5722 15.2208 1.89356 1.09878 1.69862
21.445 13.0625 17.0056 -0.264783 -0.631822 -1.38032
23.7179 11.5478 16.0924 0.446368 0.759663 0.464556
21.5158 12.0574 14.3077 -0.532252 0.580693 2.04086
23.2636 14.2089 15.0891 -0.140722 -1.24229 -2.04911
21.8992 10.4014 18.0089 0.582925 0.0637111 1.35513
25.4657 13.6992 16.8739 1.55843 1.03827 0.461237
27.7386 12.1844 15.9607 -0.908021 0.100708 1.35905
25.9199 11.0381 17.8772 -0.352802 0.387809 1.4439
30.0114 10.6696 15.0476 -0.954731 -0.761213 1.46434
31.7593 12.821 15.829 -0.700443 -0.520578 0.284038
29.9407 11.6747 17.7455 0.0101509 -1.95112 0.136261
4.38292 16.8433 18.2238 -0.523747 1.47655 -0.606111
6.65578 15.3285 17.3106 -0.194692 -0.742345 2.70491
6.20155 17.9896 16.3073 0.108942 2.67584 -0.259096
8.40364 17.48 18.0921 1.14127 0.352587 -0.964992
10.6765 15.9652 17.1789 -2.79112 0.62238 -1.59353
8.47441 16.4748 15.3941 1.35728 -0.198584 -0.150251
10.7473 14.96 14.4809 1.701 0.347157 2.12471
12.4243 18.1166 17.9604 1.11689 -0.452549 0.831527
12.9494 14.4504 16.2657 -0.19607 -0.601378 0.411884
14.6972 16.6018 17.0472 -1.55558 0.0821792 -0.934591
12.4951 17.1115 15.2624 1.22545 0.44996 0.909283
14.768 15.5967 14.3492 1.91598 -0.156498 -0.429557
19.1721 14.5773 17.9188 0.324965 -0.163031 0.912458
16.9701 15.087 16.134 -0.479175 -0.827248 -0.439636
18.7179 17.2384 16.9155 -0.357041 -2.55135 1.29194
16.5158 17.7481 15.1307 -0.0905777 0.759068 1.21956
23.1929 15.214 17.7871 -0.318273 0.0127706 0.901244
20.9908 15.7236 16.0023 1.51184 -0.504703 -1.98765
22.7386 17.8751 16.7838 0.171358 0.403729 -0.652737
27.2136 15.8506 17.6554 -0.899115 -0.407128 1.99007
25.0115 16.3603 15.8706 -0.658874 2.28466 -0.494856
27.2844 14.8455 14.9574 -0.620231 1.39664 0.528192
29.4864 14.3358 16.7422 -0.1995 -1.08912 0.847009
31.2343 16.4873 17.5237 -0.288439 -0.270452 0.277015
29.0322 16.9969 15.7389 0.226281 1.68831 -0.470759
31.3051 15.4821 14.8257 1.69858 -0.837816 0.742864
33.5071 14.9725 16.6105 -0.953895 -0.236857 0.856583
35.255 17.1239 17.392 -0.282217 -1.42982 0.368543
33.0529 17.6336 15.6072 -0.953451 -0.535425 -0.298754
3.9287 19.5044 17.2205 -1.27962 0.993611 -1.10682
5.67655 21.6558 18.002 1.36586 0.0547097 0.00752802
7.94941 20.1411 17.0888 0.104431 0.862139 0.816206
5.74733 20.6507 15.304 -3.26225 -1.11264 0.483735
8.02019 19.1359 14.3908 1.48284 -0.0425112 3.60519
9.69727 22.2925 17.8703 0.462471 0.417918 -2.44538
10.2223 18.6263 16.1756 2.61166 -0.420905 0.509516
11.9701 20.7777 16.9571 0.95443 0.23207 -1.99897
9.76805 21.2874 15.1723 1.67627 -0.719342 2.38375
12.0409 19.7726 14.2591 -0.323624 2.5616 -0.23964
14.243 19.2629 16.0439 -1.72386 -0.521737 0.238283
15.9908 21.4143 16.8254 -1.2393 0.642839 -1.20494
13.7888 21.924 15.0406 -1.00801 -1.94982 -0.260231
16.4451 18.7532 17.8287 1.22204 2.40654 -0.568729
18.2637 19.8995 15.9122 1.48584 -0.603363 -0.893483
20.0116 22.051 16.6937 1.99911 -1.51997 -1.64728
20.4658 19.3899 17.697 -0.132473 -0.493762 1.23718
20.5366 18.3848 14.999 -0.375872 -0.150898 -1.80755
22.2844 20.5362 15.7805 0.931513 0.795927 0.230874
24.4865 20.0265 17.5653 1.43482 0.149861 -1.1575
26.7593 18.5117 16.6521 -0.337543 0.305096 -0.497221
24.5573 19.0214 14.8673 0.488443 -0.0253693 0.341209
26.3051 21.1728 15.6488 -0.434394 -2.20826 -0.817239
28.5072 20.6632 17.4336 0.22864 0.559115 0.0066245
30.7801 19.1484 16.5204 -0.698437 -2.14459 -0.262241
28.578 19.658 14.7356 0.735394 1.15225 0.05752
30.3258 21.8095 15.5171 -1.61 0.513675 0.580654
32.9821 18.6387 18.3052 1.10439 0.483136 0.915751
32.5279 21.2998 17.3019 1.43735 -0.20355 0.428473
34.8008 19.785 16.3887 -2.27257 -1.96051 1.2154
32.5987 20.2947 14.6039 0.387894 0.0119472 1.3012
37.0029 19.2753 18.1735 -0.0142252 -1.54848 -0.240922
36.5486 21.9364 17.1702 0.425877 0.17896 0.097594
7.49519 22.8022 16.0855 1.60206 1.61808 -1.50266
9.24304 24.9536 16.867 1.19404 -0.710136 -0.0581105
11.5159 23.4388 15.9538 0.22253 0.101887 -1.01181
11.0617 26.0999 14.9505 -0.965744 0.332472 0.0398387
13.718 22.9291 17.7386 1.19201 0.506672 2.39864
13.2638 25.5902 16.7353 -1.69244 0.244053 -1.44742
15.5366 24.0754 15.8221 0.0356391 -2.16315 -0.313358
17.7387 23.5658 17.6069 -0.920686 -1.40267 1.08322
17.2845 26.2269 16.6036 0.801153 -1.53489 -0.793873
17.8095 22.5606 14.9089 -0.326379 -0.180876 -0.86655
19.5573 24.7121 15.6904 0.954626 0.469045 -1.06
21.7594 24.2024 17.4752 0.65918 -0.0150287 1.87398
23.5073 26.3538 18.2567 -0.0516519 -0.348454 -0.56356
24.0323 22.6876 16.562 -1.28517 2.59939 0.94425
21.8302 23.1973 14.7772 1.01889 0.956626 -0.795376
23.578 25.3487 15.5587 -0.54685 0.976451 0.862279
25.7801 24.8391 17.3435 0.830248 0.355739 -1.76136
28.053 23.3243 16.4303 1.84151 0.0934494 0.153946
25.8509 23.8339 14.6455 1.13621 -0.867095 -1.27545
27.5988 25.9854 15.427 0.749079 0.359629 -0.0568677
30.2551 22.8146 18.2151 1.014 -1.12809 -0.0803224
29.8008 25.4757 17.2118 0.0798702 -2.5633 1.34186
32.0737 23.9609 16.2986 -0.597516 -1.08903 -0.803841
29.8716 24.4706 14.5138 -0.46421 -1.30821 0.0129398
34.2758 23.4512 18.0834 0.69883 -0.0587649 0.990821
33.8216 26.1123 17.0801 0.520673 -0.372734 1.39592
34.3466 22.4461 15.3854 -0.721308 -0.141886 1.53809
36.0944 24.5975 16.1669 2.39027 1.78055 1.27352
33.8923 25.1072 14.3821 0.337491 -0.718165 -0.013071
38.2965 24.0879 17.9517 -0.616335 -1.9479 -1.57161
10.9909 27.105 17.6485 0.532941 -1.61874 0.65606
15.0116 27.7417 17.5168 -0.786904 -0.591379 2.29711
12.8095 28.2513 15.732 2.09544 1.04431 1.4954
14.5574 30.4028 16.5135 0.720316 -1.82725 0.324166
15.0824 26.7365 14.8188 -0.856039 0.582975 1.30817
16.7595 29.8931 18.2983 -0.383431 0.620114 0.154076
19.0323 28.3783 17.3851 1.65581 -0.16011 -0.599886
16.8302 28.888 15.6003 0.191229 0.101895 0.637878
19.1031 27.3732 14.6871 -0.530927 -0.613894 1.97155
20.7802 30.5297 18.1666 -0.39568 0.464982 -0.475947
21.3052 26.8635 16.4719 0.238899 2.34569 -1.8579
23.053 29.0149 17.2534 1.14506 0.104255 -1.77312
20.851 29.5246 15.4686 -0.554477 0.0832286 1.74308
23.1238 28.0098 14.5554 -0.631709 0.155252 -1.62162
27.528 26.9905 18.125 -0.338127 2.44831 0.99778
25.3259 27.5002 16.3402 -0.702893 0.781952 0.705088
27.0738 29.6516 17.1217 -0.000428174 -0.391808 0.484053
24.8717 30.1613 15.3369 -0.666476 -2.07748 -0.754467
27.1445 28.6465 14.4237 -0.0485673 -1.01068 0.804195
31.5487 27.6271 17.9933 0.897119 -0.741807 -0.932954
29.3466 28.1368 16.2085 -0.363026 -1.11742 -0.435583
31.6195 26.622 15.2953 0.405533 -0.726028 -0.445453
16.3052 32.5542 17.295 1.10312 0.466357 0.486821
18.5781 31.0394 16.3818 1.85206 -0.442081 -0.790551
20.326 33.1908 17.1633 0.879912 0.446462 -0.948034
16.376 31.5491 14.597 0.756661 1.20915 -0.827502
18.1239 33.7005 15.3785 1.49896 0.545101 -0.281189
22.5988 31.6761 16.2501 1.01213 -0.799708 0.117133
20.3967 32.1857 14.4653 1.31596 0.114689 -0.78668
24.8009 31.1664 18.0349 1.81027 -1.17131 0.606723
18.0531 34.7056 18.0765 -0.487393 2.82477 0.795103
22.8077 5.07924 20.0155 -1.01474 0.0297763 0.450223
13.787 10.1333 20.9703 0.0335586 1.19125 1.12473
16.0599 8.61849 20.0571 0.69668 -1.81556 -2.05884
18.3327 7.1037 19.1439 -1.23519 1.47527 -1.68644
20.0806 9.25513 19.9254 -0.863826 -0.254354 0.813808
18.262 8.10882 21.8419 -1.26116 -2.84896 -1.33989
22.3535 7.74034 19.0122 0.395538 1.59712 1.00793
24.1013 9.89177 19.7937 0.253269 -0.39103 -1.11222
20.5348 6.59403 20.9287 1.02443 2.6853 0.344014
22.2827 8.74547 21.7102 0.26475 -0.967223 -0.146047
26.3742 8.37698 18.8805 1.34216 0.0546819 0.417669
24.5555 7.23067 20.797 -0.897252 0.0498047 -0.925413
26.3034 9.38211 21.5785 0.86858 -0.835994 1.07374
4.83715 14.1822 19.2271 -0.553784 -0.039474 -0.102595
7.03923 13.6725 21.0119 -1.85224 -1.67324 -1.17594
9.31208 12.1577 20.0987 0.137806 0.00839875 -0.846867
11.5849 10.643 19.1855 0.910417 0.393235 -0.266945
11.5142 11.6481 21.8835 -2.31682 -1.97439 -1.70386
13.3328 12.7944 19.967 0.550242 0.588978 -0.119839
15.6057 11.2796 19.0538 -0.864208 0.0438804 -1.12355
15.5349 12.2847 21.7518 -0.24132 1.01707 0.561393
17.3535 13.431 19.8353 1.91117 -1.07132 -1.71708
19.6264 11.9162 18.9221 -3.38381 0.158486 -1.13291
17.8077 10.7699 20.8386 -0.25026 -0.443854 0.477001
19.5556 12.9214 21.6201 -0.304925 -2.22803 0.910001
21.3742 14.0677 19.7036 -0.487212 0.0788709 0.85224
23.6471 12.5529 18.7904 0.459833 1.65988 -0.570956
21.8285 11.4066 20.7069 0.545757 1.06791 1.09871
23.5763 13.558 21.4884 -0.617689 1.41435 -0.150074
27.6678 13.1895 18.6587 -1.03501 0.0608665 -1.95931
25.8492 12.0432 20.5752 1.32301 0.806616 0.197353
27.597 14.1946 21.3567 -0.0716774 0.764529 -1.96026
28.122 10.5284 19.662 1.03643 -0.389076 -0.261714
28.0512 11.5335 22.36 -0.118607 -0.31543 0.872336
31.6885 13.8262 18.527 -0.144397 2.0419 0.83407
29.8699 12.6798 20.4435 0.138249 -1.0691 1.74469
0.291429 17.2118 21.0535 1.14351 0.379897 1.08452
2.56429 15.697 20.1403 0.881678 -0.289934 -0.030993
4.31214 17.8484 20.9218 0.815681 -0.0546637 0.678085
6.585 16.3336 20.0086 1.05882 0.486382 1.21175
4.76637 15.1873 21.9251 0.838691 -0.750129 -0.595253
8.85786 14.8188 19.0954 1.1793 -0.567302 -1.04776
10.6057 16.9703 19.8769 0.868107 1.97292 -0.223453
8.78708 15.824 21.7934 -0.449074 -1.56292 -0.573475
11.0599 14.3092 20.8802 -0.998211 -0.533651 -1.76681
12.8786 15.4555 18.9637 0.136741 -0.26147 -0.301697
14.6264 17.6069 19.7452 -1.95233 -0.306669 -1.8951
12.8078 16.4606 21.6617 -0.322069 -1.9065 -0.100608
15.0807 14.9458 20.7485 -0.570913 -1.19054 -1.34903
16.8993 16.0921 18.832 -1.588 0.0925919 -0.959986
18.6471 18.2436 19.6135 -1.76333 1.98896 0.426217
16.8285 17.0973 21.53 -0.0653402 -0.521655 -0.292287
19.1014 15.5825 20.6168 1.12874 0.5372 0.286152
20.92 16.7288 18.7003 1.04171 -0.111725 0.24456
20.8492 17.7339 21.3983 0.261245 2.61591 -0.417398
23.1221 16.2191 20.4851 -1.02663 -1.62328 2.16848
21.3034 15.0728 22.4016 -0.513923 0.410716 0.697377
24.9407 17.3654 18.5686 -1.10779 -0.379717 -1.41347
25.3949 14.7043 19.5719 1.66054 -1.59925 -1.01865
27.1428 16.8557 20.3534 -0.884699 -0.551639 -0.737062
25.3242 15.7094 22.2699 0.606023 1.0708 0.260943
28.9614 18.0021 18.4369 -0.658167 0.0828937 0.496513
29.4157 15.341 19.4402 0.484471 -1.9516 -0.670393
31.1635 17.4924 20.2217 0.721579 -0.285103 -1.10352
29.3449 16.3461 22.1382 -0.175666 0.470071 0.166451
31.6177 14.8313 21.225 0.498657 0.628478 -1.51854
33.4364 15.9776 19.3085 -1.67762 -1.21209 -1.89661
35.1842 18.129 20.09 0.660185 -0.400703 1.79001
33.3656 16.9827 22.0065 -1.84247 0.710031 -0.667736
2.03929 19.3632 21.835 0.949095 0.14306 0.0582721
2.11006 18.3581 19.137 -1.32267 -0.870788 -0.599784
3.85792 20.5095 19.9185 0.0214796 0.683621 1.47053
6.06 19.9999 21.7033 0.129753 -0.235568 1.26131
6.13078 18.9947 19.0053 -0.754545 -0.491422 -0.508124
7.87863 21.1462 19.7868 -1.45236 -1.3528 0.291639
8.33286 18.4851 20.7901 -1.40034 -0.679212 -2.05885
10.0807 20.6365 21.5716 0.0890147 0.280363 1.30704
10.1515 19.6314 18.8736 0.101648 1.67999 2.11454
11.8993 21.7828 19.6551 0.795986 -0.278373 0.441085
12.3536 19.1217 20.6584 0.784192 -0.940167 1.80472
14.1014 21.2732 21.4399 1.71873 -0.668462 0.0980041
14.1722 20.268 18.7419 0.666584 1.98407 -1.76749
15.9201 22.4195 19.5234 0.560269 0.213874 0.315383
14.5557 18.612 22.4432 1.98474 -0.393795 -1.52643
16.3743 19.7584 20.5267 -0.498502 0.437906 -1.86938
18.1221 21.9098 21.3082 -1.38863 -0.49886 -0.571724
18.1929 20.9047 18.6102 -1.42094 -0.0765094 -3.11798
18.5764 19.2487 22.3115 1.01103 1.20115 1.0672
20.395 20.395 20.395 0.624512 2.35884 -2.81884
22.6679 18.8802 19.4818 0.303989 1.26794 0.76008
24.4157 21.0316 20.2633 1.2777 0.583612 1.29685
22.2136 21.5413 18.4785 -0.0388199 -0.864313 1.5101
22.5971 19.8853 22.1798 0.699048 0.0541822 1.63864
26.6886 19.5168 19.3501 0.712118 -0.591437 2.37491
28.4364 21.6683 20.1316 0.0953716 -0.333977 -0.447041
26.2343 22.178 18.3468 -1.46989 0.292336 -1.15029
24.8699 18.3705 21.2666 -0.938208 0.316632 -0.374821
26.6178 20.522 22.0481 2.26538 -1.24931 1.05301
30.7093 20.1535 19.2184 -0.925089 0.262373 0.534452
32.4571 22.3049 19.9999 -0.810086 -2.03846 -0.261644
28.8907 19.0072 21.1349 -0.630043 -0.687808 -0.83738
30.6385 21.1586 21.9164 -0.0800636 0.0940122 -0.79512
34.73 20.7901 19.0867 -0.0725115 2.38188 0.221793
32.9114 19.6438 21.0032 0.463339 -0.751546 -0.427992
34.6592 21.7953 21.7847 -0.321373 0.596829 -1.2193
38.7507 21.4268 18.955 1.53412 2.25653 0.639859
36.9321 20.2805 20.8715 0.887388 0.757814 -1.45639
38.6799 22.4319 21.653 -1.20346 -1.58708 -1.18761
5.60578 22.661 20.7 0.0291578 -0.34796 2.14765
7.35363 24.8124 21.4815 0.84598 0.442899 1.00902
7.42441 23.8073 18.7835 1.13564 1.47609 1.06928
11.8286 22.7879 22.3531 -0.429801 -1.24191 0.0473471
9.62649 23.2976 20.5683 0.0975686 -1.79703 -0.492966
11.3743 25.449 21.3498 -0.485618 0.484052 1.03337
9.17227 25.9587 19.565 -0.50318 2.52772 0.727317
11.4451 24.4439 18.6518 0.15163 0.166183 1.15418
15.8493 23.4246 22.2214 2.44157 -1.10005 -0.460538
13.6472 23.9343 20.4366 0.791592 -1.22175 0.456547
15.3951 26.0857 21.2181 0.728604 2.05914 -0.464475
15.4658 25.0806 18.5201 -0.952608 0.454809 0.528832
19.87 24.0612 22.0897 0.977783 -1.46321 -1.65064
17.6679 24.5709 20.3049 -2.51118 0.553857 0.860885
19.9408 23.0561 19.3917 1.33172 0.0745434 1.86338
19.4866 25.7172 18.3884 -0.683994 -0.00963387 0.407322
22.1429 22.5464 21.1765 0.259719 1.24739 0.59318
23.8907 24.6979 21.958 -0.956044 -0.00221738 1.05393
21.6886 25.2075 20.1732 0.202939 0.542438 -0.87412
23.9615 23.6927 19.26 0.507539 0.283657 -0.710873
26.1636 23.1831 21.0448 -0.306966 -0.475974 -1.43984
27.9114 25.3345 21.8263 0.8526 1.52519 -0.00229721
25.7093 25.8442 20.0415 0.385585 0.846496 0.720367
27.9822 24.3294 19.1283 1.13854 0.878527 -0.289843
30.1843 23.8197 20.9131 -0.319252 -0.987047 0.855623
31.9321 25.9712 21.6946 -1.1955 -0.178807 2.15874
29.7301 26.4808 19.9098 -2.15967 0.939854 0.580955
32.0029 24.966 18.9966 -0.404371 -0.503604 1.84413
34.205 24.4564 20.7814 1.02291 1.07376 -0.0961817
36.4779 22.9416 19.8682 -1.04395 -1.12637 1.09133
36.0236 25.6027 18.8649 0.102955 -0.857662 0.711364
38.2257 25.093 20.6497 0.523434 -0.56552 0.825368
40.4986 23.5782 19.7365 -0.0944344 -0.857114 -1.97764
9.10149 26.9638 22.263 -1.15348 -0.155278 0.713885
10.9201 28.1102 20.3465 -0.609199 0.443459 1.75016
13.1222 27.6005 22.1313 -0.757466 0.386416 0.156174
12.668 30.2616 21.128 0.467393 0.558366 -1.11141
13.193 26.5954 19.4333 2.19455 1.22244 0.281551
14.9408 28.7468 20.2148 -1.37833 1.74681 -0.0568864
12.7388 29.2565 18.43 -1.00807 -1.14082 -0.671129
17.1429 28.2371 21.9996 -0.92616 0.597759 -1.23771
19.4158 26.7223 21.0864 0.0882243 0.192966 -1.49351
17.2137 27.232 19.3016 0.0804977 0.96063 -0.677787
18.9615 29.3834 20.0831 -1.78193 1.72637 0.57718
21.1636 28.8738 21.8679 -1.06293 0.356724 -0.466346
23.4365 27.359 20.9547 -0.41518 -2.27507 -0.796253
21.2344 27.8686 19.1699 0.100191 0.152471 0.80168
22.9823 30.0201 19.9514 1.70083 1.63124 0.181909
25.1843 29.5104 21.7362 -0.501809 0.696926 -1.40199
27.4572 27.9956 20.823 0.844989 1.93704 0.682704
25.2551 28.5053 19.0382 0.0558865 -0.468075 -0.809948
29.2051 30.147 21.6045 -0.873724 -1.76468 0.272269
31.4779 28.6323 20.6913 0.141986 0.296359 0.738897
29.2758 29.1419 18.9065 0.815346 -1.18215 -0.796534
35.9529 26.6078 21.5629 0.0698398 -0.668948 1.41677
33.7508 27.1175 19.7781 -0.659685 -0.162575 0.678864
14.4158 32.413 21.9095 2.71302 -0.869753 1.45494
14.4866 31.4079 19.2115 0.798168 1.23397 1.38198
16.2345 33.5593 19.993 -0.513426 -1.02329 0.00107045
16.6887 30.8982 20.9963 -1.83323 0.346918 0.561568
18.4365 33.0497 21.7778 0.105254 0.776736 -0.770096
18.5073 32.0445 19.0798 -2.23163 0.217768 -0.508074
20.2552 34.196 19.8613 -0.101589 0.74566 -1.45223
20.7094 31.5349 20.8646 0.728889 -0.430963 -0.832113
22.4573 33.6863 21.6461 4.41439 -0.962701 0.57327
22.528 32.6812 18.9481 -0.231763 3.53887 -0.502569
24.7301 32.1715 20.7329 -1.58535 0.39098 -1.08076
27.003 30.6567 19.8197 0.192084 1.32204 0.924131
17.9823 35.7108 20.7745 0.179851 -0.258781 1.59809
22.7369 6.08436 22.7135 -0.909472 0.389965 -0.213474
15.9891 9.62362 22.7551 -0.379162 0.882505 -1.6413
18.1912 9.11395 24.5399 -0.600651 1.64166 -1.83594
20.3933 8.60428 26.3247 0.856405 -0.962687 -0.433508
20.464 7.59916 23.6267 -0.764031 -1.66285 -0.941367
22.2119 9.75059 24.4082 -0.167617 -0.840738 -1.3853
22.6661 7.08949 25.4115 -1.28128 1.95985 0.640391
24.414 9.24092 26.193 1.02862 -1.56042 2.0068
24.4848 8.2358 23.495 -1.09874 -1.03943 -1.24023
9.24131 13.1629 22.7967 1.4696 -0.527498 -1.30149
9.17053 14.168 25.4947 1.03173 -1.40493 0.449923
11.4434 12.6532 24.5815 -0.728505 0.54378 -0.629744
13.262 13.7995 22.665 -0.506368 1.37231 2.62214
13.7162 11.1384 23.6683 1.7288 -1.16269 -0.741718
15.4641 13.2898 24.4498 1.02183 0.564123 -0.92276
13.6455 12.1435 26.3663 -0.01098 3.06964 -0.693826
15.9183 10.6287 25.4531 0.597669 0.0397704 -0.953106
17.737 11.7751 23.5366 -1.58944 -0.769402 1.87559
19.4848 13.9265 24.3181 -0.254813 -0.353118 -0.151351
20.0098 10.2603 22.6234 2.45263 -1.95149 1.12948
17.6662 12.7802 26.2346 1.65038 3.01148 -2.09425
19.939 11.2654 25.3214 1.37487 -0.120153 -0.573242
21.7577 12.4117 23.4049 1.55316 -2.41472 -0.0903265
24.0305 10.8969 22.4917 -1.69541 0.5241 -1.05763
21.6869 13.4168 26.1029 2.54436 0.422904 0.685158
23.9598 11.902 25.1897 0.485754 1.88664 -1.69186
25.7784 13.0483 23.2732 0.442877 -0.431552 0.846227
25.7076 14.0535 25.9712 0.61248 -1.99968 -0.35564
26.2326 10.3872 24.2765 -0.914893 0.0135436 1.1876
27.9805 12.5387 25.058 1.59986 0.882543 -1.70711
29.7991 13.685 23.1415 -2.48585 0.368706 -0.682422
2.49351 16.7021 22.8383 0.246391 2.42879 -1.36458
6.51422 17.3388 22.7066 -1.98105 0.0481112 -0.40941
4.69559 16.1925 24.6231 -0.731302 0.475986 0.269339
6.44345 18.3439 25.4046 -0.375585 -0.489492 0.982176
6.96845 14.6777 23.7099 0.311669 -2.07509 -2.01697
6.89767 15.6828 26.4079 -2.26274 -0.320149 0.109856
10.5349 17.9754 22.5749 0.037316 -0.847603 0.0542367
8.7163 16.8291 24.4914 0.77689 -0.811771 -1.71211
10.9892 15.3143 23.5782 0.85574 0.291278 -0.271293
10.9184 16.3194 26.2762 0.770704 -0.415763 0.0479635
12.737 17.4657 24.3597 1.79034 -1.99301 0.0043644
15.0099 15.9509 23.4465 1.56426 -1.25366 -0.611491
13.1912 14.8046 25.363 -0.551246 -2.13709 -0.750105
14.9391 16.9561 26.1445 0.210124 -0.738095 -0.222165
16.7577 18.1024 24.228 -1.0825 1.82294 -0.390903
17.2827 14.4362 22.5333 -0.180158 0.255526 -0.921285
19.0306 16.5876 23.3148 0.391849 -1.37263 0.0185856
17.212 15.4413 25.2313 -0.383076 0.363634 0.196122
18.9598 17.5927 26.0128 1.20914 0.118356 1.32411