ITEM: TIMESTEP
0
ITEM: NUMBER OF ATOMS
92
ITEM: BOX BOUNDS ss ss ss
1.0137002995012546e+01 2.7185206382828465e+01
8.6182471274513333e+00 3.0627705551841000e+01
9.0714753387701741e+00 3.1918434908081306e+01
ITEM: ATOMS x y z vx vy vz
20.7832 11.3795 12.0037 0.496499 -0.664233 0.960752
21.8248 12.1421 9.54375 -1.0875 0.132365 -0.429426
22.1084 9.5937 10.3247 -0.486809 -0.192218 -0.692144
26.0652 11.7332 10.622 0.742019 0.338734 0.879211
24.7654 9.35697 11.3815 -0.634343 0.544343 -0.0678067
23.4391 11.6624 11.7618 0.756938 -0.620187 -1.44852
24.1332 10.7545 9.07555 -1.90184 -0.602985 -2.34481
22.3115 14.2138 11.2052 0.187291 0.59644 -1.30179
24.2732 13.4017 9.63892 2.30082 -1.22687 -0.761702
24.9187 13.7645 12.4104 -2.13734 -0.0502659 -1.26661
21.7182 12.9926 16.3488 0.0283133 -0.0308044 -0.599446
22.6078 8.62233 15.5017 0.273246 0.465908 -1.3142
22.4233 9.33502 12.949 0.299369 1.59789 -0.359086
20.9234 10.8272 14.7253 -1.86173 -0.240668 2.03165
26.0563 11.9623 15.7346 -0.987303 -1.62224 -0.234155
24.8936 8.92933 14.1025 -1.95258 0.212556 0.268444
25.8673 11.26 13.1949 0.671754 1.50686 -2.20965
23.5597 11.2944 14.7628 0.471394 -0.000452261 0.808194
21.7132 15.5474 15.4247 0.868915 -0.202674 0.7336
21.9242 13.2777 13.6588 0.349503 -0.701931 2.34633
23.2889 15.7131 13.2567 0.572898 -1.07123 1.76435
24.2208 13.995 15.1629 -0.380516 0.794011 -1.09772
24.0795 16.8019 15.7057 -0.123671 -0.609891 -0.624159
24.8947 23.8796 15.5324 -0.178439 -0.253772 1.04318
24.0064 26.4079 15.5653 -0.232155 1.40815 -0.433192
22.161 10.5196 17.2337 -1.12977 0.231018 1.97973
24.118 12.3695 17.4819 1.44018 -0.759241 -0.592607
24.7571 9.79294 16.7073 0.732514 0.348247 1.09888
23.2614 14.9825 17.5565 -0.512335 0.0764078 1.64348
19.9863 21.1428 20.3837 -0.00730079 -0.581484 0.514359
21.9831 20.1233 18.6202 1.01716 -1.73856 -1.90408
22.1749 17.4719 17.4169 3.67947 -0.857204 0.369339
23.9711 19.3225 17.0139 0.839589 -0.445907 -0.155619
24.4694 20.9547 19.1691 0.85311 -0.281451 0.663644
22.1856 25.4653 20.0018 2.28773 -0.97454 -0.238678
21.8053 22.8566 18.9862 1.0242 2.059 -0.280581
23.5672 24.7501 17.7271 0.316018 0.145472 1.44488
26.1163 25.751 17.0917 -1.68811 0.091424 -0.0962144
23.4579 22.0149 16.9428 -0.483623 0.306269 -2.07553
26.4724 25.1332 19.7313 0.542569 -1.06169 -0.0364857
24.2455 23.497 20.1615 0.449334 -0.502712 1.03043
25.8132 23.1001 17.9396 -0.0949426 1.18983 1.27118
22.0669 28.2409 20.1736 -0.413521 2.115 -2.42957
22.4899 27.3133 17.5859 1.5104 0.453332 1.3991
27.1811 27.6659 18.6564 0.227297 1.35728 -1.45081
25.1095 28.3681 17.0593 -1.70082 -0.601423 -1.92204
23.2475 29.8124 18.3097 0.786372 0.651434 -0.934331
25.4946 29.5292 19.7447 0.779909 0.966214 0.833217
24.5036 26.9897 19.3661 0.787637 0.479071 0.65423
16.4087 19.8485 22.8866 -1.01954 -0.0768664 1.83293
19.0773 19.6994 22.4399 -1.63496 -0.421821 0.48431
22.5428 21.3758 21.1265 -1.87294 -1.49567 1.31143
17.9118 22.1034 22.2016 0.317389 0.983715 1.3971
15.766 22.1817 24.0321 -1.66625 1.11448 1.52103
20.1301 24.9112 23.4688 -1.61581 1.32823 0.537908
22.4661 23.8597 22.2928 0.648415 0.382986 1.77305
20.0838 23.7666 20.9879 0.867121 0.160553 -1.35798
20.4369 22.0371 23.0802 -0.328428 -1.30055 0.892768
24.5898 25.6595 21.782 -0.857571 0.736755 -0.889725
21.6929 29.2938 22.6478 -0.967112 1.10542 1.21014
20.0019 27.555 23.8512 -0.435142 -0.2088 -1.82079
22.108 26.6278 22.5104 0.560916 -1.66105 0.955277
24.2032 28.4113 21.9643 1.98637 0.216855 0.759476
26.6032 27.4397 21.2185 1.02778 2.0828 -2.93234
23.216 30.6236 20.8481 0.303445 -0.724979 0.294806
11.5642 21.2212 26.2527 0.947741 0.542611 -0.149676
13.4591 20.7441 24.3036 1.79108 -0.475003 -0.0734743
13.1412 19.0311 26.3003 1.52495 0.290022 -1.10283
15.6387 19.8106 25.5359 1.04873 1.22013 0.286882
18.1486 20.7215 24.7269 0.0427621 -0.249376 1.22743
14.5374 20.629 27.9682 -3.13984 -1.87175 -0.419285
13.8803 22.6804 26.2007 -0.287224 -0.732806 -0.313808
11.3884 23.8173 26.8137 0.73265 0.502689 1.90335
13.5444 25.4873 26.7221 -1.76309 2.32889 0.42795
17.8215 24.454 27.2821 -2.2398 -0.505519 -0.332572
15.8055 24.5567 25.4089 1.41206 -0.368601 0.38243
18.2597 23.3965 24.7135 -1.44284 -0.610947 -0.67879
18.1707 26.0846 25.169 0.310239 -0.261341 -0.310234
16.5882 22.1056 26.7226 0.695545 -0.975217 1.05909
16.1389 26.527 27.1721 -1.04096 -0.632192 -1.24178
10.9508 20.923 30.7859 -1.42185 0.813414 0.458462
13.5179 20.0485 30.4607 -0.3316 -0.546987 -0.81333
11.7512 19.8045 28.4875 -1.21125 0.19524 0.94371
11.9415 25.3195 28.9264 -1.40126 -0.484131 -2.33351
10.9977 23.5915 30.7189 0.39641 -1.83042 0.163785
13.0015 22.2179 31.9144 1.04384 -0.0803483 0.15066
10.1411 22.1087 28.5092 -0.370542 -0.24123 -1.7263
13.7716 24.4533 30.703 -1.15257 -0.410729 -1.58595
12.7753 22.5033 28.9225 0.725128 -0.37094 1.84594
15.1782 22.1306 30.2332 2.23652 -0.354693 0.531348
15.2214 24.0336 28.2893 -0.252178 -0.696501 -1.54182
14.3278 26.5289 29.1038 0.535873 1.41106 0.835721
ITEM: TIMESTEP
1000
ITEM: NUMBER OF ATOMS
92
ITEM: BOX BOUNDS ss ss ss
1.0397024766488457e+01 2.6806976994045989e+01
8.8719021444118091e+00 3.0345027444569215e+01
9.2926859822766694e+00 3.1436820407518642e+01
ITEM: ATOMS x y z vx vy vz
20.5498 12.0974 12.4889 0.522769 1.12484 -0.586341
21.3554 12.7379 9.94537 1.43985 1.39541 1.81534
21.5252 10.2224 10.6002 0.917232 0.770781 0.905774
25.629 12.3034 10.7295 -1.39944 -0.416833 0.482089
24.2401 9.94268 11.5816 -0.865303 3.03006 -0.876531
23.1466 12.1709 12.0614 1.11199 0.693491 0.200543
23.6337 11.231 9.33023 -1.94817 0.851113 0.491999
21.9835 14.6906 11.4599 -0.605719 1.1567 0.288835
23.7172 13.8209 9.78143 -0.602273 0.701177 1.07453
24.9098 14.1589 12.397 0.782443 2.11122 -1.11933
22.1344 13.5616 16.7005 1.52561 -1.29716 0.134225
22.3786 9.15673 15.8158 -0.604516 1.29321 1.38042
22.1178 9.91583 13.2765 -0.0382737 2.16531 0.517672
20.9202 11.4381 15.1868 -0.015306 0.674381 1.33671
26.0323 11.6179 15.8528 0.296757 0.203196 0.215296
24.7959 9.43074 14.3155 -1.64107 3.04261 1.73301
25.6863 11.6993 13.2086 -0.120128 -0.415522 -0.492251
23.543 11.7266 15.0217 0.0685675 -0.315523 -0.443389
22.0921 15.907 15.6996 0.28825 0.31901 0.340567
22.0282 13.7449 14.0513 -0.13563 1.39027 0.491391
23.468 15.9896 13.402 -0.891062 -0.0465783 -0.0718691
24.6995 14.2079 15.2067 -1.55179 0.339241 0.849877
24.4596 16.9798 15.4766 0.698962 0.507948 -0.0450956
24.1935 23.4217 15.6633 -0.819728 -0.382441 0.890209
23.3209 25.7526 15.981 -0.957799 -0.58924 0.108597
22.2346 11.0964 17.5811 0.280641 1.46794 3.80082
24.5104 12.5935 17.6613 -0.774838 0.130712 0.653368
24.6727 9.92035 17.0602 1.02313 0.377948 -0.192933
24.0783 15.3545 17.6301 -0.869599 0.116174 0.103544
19.5959 20.6329 19.7645 -1.80849 -2.30794 -1.89374
22.0161 19.738 18.7782 -0.996921 -1.92388 0.0315017
22.6136 17.3854 17.8671 0.495738 0.200985 -1.47413
24.204 19.0931 17.3722 0.97105 -2.27518 -0.471851
24.2079 20.7698 19.4177 -0.440096 0.881852 0.564816
21.4609 25.0606 20.5864 0.0337117 -2.57097 1.07145
21.6724 22.5078 19.0249 -0.159855 0.500074 -1.29175
23.3486 24.2664 18.1432 -0.80452 0.134862 1.26648
25.7107 25.3151 17.1682 -1.00332 -0.99014 1.50498
23.3258 21.4718 17.0638 -0.59969 -0.320987 -0.899201
25.8654 24.737 19.8966 -0.448007 -0.902405 0.866108
23.9358 23.0701 20.449 -0.549377 1.28618 1.17904
25.5731 22.7155 17.9099 -0.469098 0.014995 0.64886
21.398 27.7256 20.7623 -1.32924 -1.1755 0.267954
21.6911 26.3864 18.0815 -1.30265 -1.61818 0.868839
26.4307 27.2106 18.9402 -1.38118 -0.919508 0.943772
24.3395 27.604 17.5641 -1.07389 -2.85175 -0.845828
22.3916 28.9519 18.6063 -0.169815 0.28931 -1.1651
24.6394 29.0533 19.9324 -0.427035 -0.404768 -0.669311
23.7641 26.2316 19.9715 -1.86608 -1.07595 1.52313
16.7109 20.084 22.6784 1.30064 -0.163811 0.68033
19.5884 20.208 22.2956 0.403208 0.375508 -0.394342
21.8854 20.9628 21.2628 -0.981028 -1.37702 0.236285
18.1133 22.5367 22.5369 1.17204 -0.176444 -0.679246
16.2169 22.1848 24.3651 1.65175 -1.36907 0.566651
20.0084 24.6304 23.0108 -0.327953 -0.769424 -1.54715
22.4784 23.3781 22.6495 -1.13928 -1.12721 -0.0651906
20.1307 22.8348 20.9755 -0.442892 -1.09084 -1.06562
20.7151 21.9396 23.8049 1.01329 0.706872 1.48801
24.4279 25.2864 22.3291 -0.414684 -0.0126039 0.0841545
21.538 28.8157 23.1436 -0.808132 -1.72566 -0.642117
19.5237 27.3005 22.6486 -1.0987 -0.887583 1.09265
22.0672 26.3417 23.0448 0.615424 -2.2832 1.34384
23.9568 28.325 22.3407 1.29451 -0.404882 1.66219
26.1609 27.0898 21.4389 -1.14161 -0.0231794 0.412924
22.5908 30.1102 21.0817 -0.983446 0.334444 0.89655
12.1853 21.2738 25.8104 2.30134 -0.346407 -1.30094
14.0322 20.6658 24.1371 0.709509 0.131109 -1.11242
13.556 18.8156 25.8727 -0.931189 -1.7187 -1.71701
16.1381 19.4343 25.0826 1.42958 -1.66141 -1.37309
18.5597 20.7155 24.8277 -0.395324 -0.499319 -0.0137371
14.9295 20.8662 27.0894 1.05306 1.06217 -0.728405
14.1348 23.0749 25.6503 -0.681256 0.527042 -2.16827
11.6193 23.8564 26.0299 1.94733 0.391137 0.683038
13.8509 25.7261 25.9953 0.381865 -1.50717 -1.13477
18.0906 24.8453 27.0363 -0.766654 0.945149 -1.2595
16.4455 24.8772 24.8437 2.24448 0.113265 -0.716094
18.8357 23.4095 25.1001 -0.189837 1.08497 0.0682513
18.5985 26.3522 24.8338 0.316602 0.109168 0.527209
17.1854 22.3824 26.8299 0.656402 -1.09107 1.48952
16.324 26.9474 26.5873 0.301701 -0.339914 0.316995
11.7321 20.9637 30.1228 0.117205 -0.353855 -0.903156
14.324 20.0569 29.6435 1.43852 0.453567 -1.40668
12.1751 19.8089 27.9046 0.743517 1.66429 -0.378149
12.2275 24.9756 28.0819 0.237389 0.641665 -0.883411
11.5317 23.609 30.2435 2.37823 0.326675 -0.0272325
13.7848 22.1884 31.1303 1.27921 0.826481 -2.49719
10.7108 22.2872 28.0252 0.746317 1.08884 -0.298712
14.0405 24.5014 29.9649 -0.0630556 -0.0146995 -2.61703
13.1858 22.5628 28.2478 0.157938 0.534606 -0.139072
15.7816 22.2516 29.2614 2.18675 1.00224 -0.884978
15.4872 24.3985 27.5234 0.663877 -0.578856 -0.981337
14.5194 26.6464 28.3908 -0.163393 2.8326 -0.626835
ITEM: TIMESTEP
2000
ITEM: NUMBER OF ATOMS
92
ITEM: BOX BOUNDS ss ss ss
1.1129214659677837e+01 2.6106767201504937e+01
9.6052451840962476e+00 2.9462280395953705e+01
9.7442649442942386e+00 3.0712626428124132e+01
ITEM: ATOMS x y z vx vy vz
20.3548 12.7545 13.1057 0.825025 1.54791 -0.0786343
20.8374 13.6014 10.7756 0.236517 0.804056 0.279775
21.3696 10.9516 11.5022 0.938081 1.82616 1.41113
22.3656 10.4272 13.8191 0.819364 2.17289 1.09145
25.1472 12.8643 10.8877 -1.22405 0.944695 -0.511982
24.2394 10.6933 12.0276 -1.32022 0.580677 0.520217
22.9696 13.0248 12.5157 -0.564726 0.319369 -1.46037
22.8553 12.139 9.79354 -0.225784 0.91147 1.94646
25.3981 12.5747 13.4774 -0.384884 0.73083 0.230368
21.872 15.5499 12.2408 -1.35612 0.651586 0.671769
23.2961 14.6707 10.2437 -0.220123 0.192688 -1.27857
24.6602 15.1927 12.4512 -1.46476 0.297814 1.79062
23.3164 17.1423 13.5487 -0.740639 0.0293172 0.510195
22.34 9.70998 16.1773 -0.114585 2.90362 1.21014
20.8192 12.0738 15.5829 -0.222242 0.686498 0.417404
22.3096 11.8497 17.7647 0.217976 2.31268 0.452101
26.0032 12.4652 16.098 1.28286 3.1494 -0.08502
24.8299 10.2803 14.8093 -1.13936 2.92271 1.66867
23.4664 12.5507 15.4278 0.0811333 0.00961599 1.09326
24.6302 13.1779 17.9762 -0.152572 0.790524 -1.32713
24.4928 10.6323 17.4883 0.57959 -0.149568 -0.112843
22.6397 14.5146 17.303 1.45923 1.62478 1.23553
22.3573 17.1143 16.1756 0.383676 2.86694 1.63819
21.6936 14.6763 14.7158 0.467389 -0.186146 0.494393
24.3422 14.9905 15.1279 0.650852 1.38102 0.712527
25.0079 17.5631 15.448 0.923463 -0.214154 -1.67539
25.2272 15.6948 17.3831 -0.664896 -0.977494 -0.483065
23.3395 17.003 18.5742 2.72299 -1.65456 2.64161
24.5629 19.0419 17.6767 0.824682 -0.704951 -1.13398
22.8435 20.6276 17.108 0.238688 -2.47479 -1.72606
23.9692 22.7887 16.0457 -0.497983 0.635223 1.21232
22.8898 25.2403 16.0218 0.229188 -0.107174 -0.0899864
25.1741 24.9752 17.3018 -0.646901 0.601392 1.98335
24.8569 21.965 18.2509 -2.76685 -1.06232 0.656068
23.6038 27.3881 17.5233 1.37433 -1.41355 0.443473
19.3322 19.8147 19.8694 0.260871 0.0301127 -0.494038
21.518 18.8374 18.8379 -0.553972 -1.00746 0.743152
19.1062 19.0472 22.3748 0.390871 -0.853282 -0.869524
21.46 20.1794 21.427 -0.383384 -1.40533 -1.93405
23.5559 19.8688 19.965 -0.707235 -1.26475 -0.303225
21.5419 24.2682 20.5602 -0.982612 -0.937991 0.667491
21.6324 21.6224 19.1256 -0.469655 -2.04355 -1.09849
19.7704 22.1823 20.8876 -2.08551 -0.263208 0.832543
23.0074 23.979 18.378 -0.669077 -1.18845 -0.168882
25.3912 24.5221 20.007 -0.164367 0.48028 0.753211
23.6973 22.4619 20.6148 0.315261 1.03024 -1.44687
24.1238 24.642 22.2296 -0.686963 -0.600067 -0.974964
20.8642 26.9591 21.2166 0.664669 -1.93273 -1.40056
21.2055 26.0607 18.1995 0.215101 -0.705895 -0.130819
21.8383 28.4582 19.1492 -0.985252 0.13745 0.16762
25.8049 26.9142 19.0054 -0.604336 1.12509 1.0019
24.2067 28.6907 20.1652 -3.33693 -0.184884 -1.99633
23.182 26.2521 20.0185 -0.370561 -2.08174 0.492655
23.2365 27.6999 22.4906 -0.42055 -0.635018 1.27943
25.629 26.7266 21.5604 -0.250607 -0.0883913 -0.263045
21.8126 29.4608 21.4739 -1.50401 -0.230622 2.41498
12.8978 21.5565 25.5469 1.04577 0.261733 -0.84973
14.6171 20.7757 23.6794 -2.68042 -0.806764 -0.601817
13.7421 18.9703 25.4427 -1.57505 -2.40021 0.788279
16.4654 19.2432 22.914 -0.0702719 -1.75139 -0.779743
16.1791 18.664 25.3673 -0.25359 -1.96229 1.44352
18.5159 19.6983 24.8437 0.19635 -1.19174 0.615551
14.469 23.2628 23.3778 0.737049 -0.654264 -0.698891
12.8786 24.2692 25.4326 -0.0978968 2.56553 -0.457803
14.9218 25.9214 24.4574 2.48031 -1.32205 -1.95902
17.5986 21.5774 22.1 -0.605352 -1.72777 -0.081586
16.7008 21.7387 24.6237 1.34027 -0.854917 -1.36307
16.9216 24.4332 23.2962 1.40775 1.02213 0.707809
19.5323 24.2078 22.5514 0.177947 -1.6835 -1.01179
22.0633 22.8395 22.7954 0.804241 -0.643996 1.10526
19.9633 21.2893 23.5102 -1.2087 -0.373264 0.775578
18.8751 23.3115 24.8986 -0.882082 -0.94404 -0.889292
17.3763 26.2551 25.1697 -0.767294 -1.68876 -2.39797
20.801 28.0478 23.6375 2.4657 -2.35636 -0.326489
18.9086 26.6395 22.9153 0.241863 -0.716021 -1.63036
21.6373 25.4931 23.2924 0.54207 -2.271 -0.327729
19.89 25.8916 25.3847 0.875581 0.956678 -1.8939
12.2298 21.6699 29.9238 -0.814604 0.381897 -1.03707
14.8248 20.6793 29.3547 -0.0556352 1.16923 0.939439
12.8152 20.1107 27.7952 -1.59747 1.52022 -0.516839
15.2535 20.7688 26.7376 1.99363 0.442618 1.16542
13.6683 25.7184 27.233 3.55418 1.39722 -0.709719
12.1466 24.3894 29.1904 1.81904 2.13004 -0.596244
14.0929 23.0494 30.6669 -0.0561666 1.24883 1.28465
11.3457 22.4985 27.5944 -0.479135 0.178864 -0.190067
15.0387 25.0417 29.2525 -0.0404181 0.428483 0.518288
13.7845 22.9311 27.8434 -0.384066 1.73813 -1.24332
17.9722 24.3835 26.9149 0.72708 -1.72253 1.31485
17.9601 21.4438 26.8877 0.666187 2.51179 -1.17472
16.4521 22.8398 28.4346 -0.325621 -1.0003 -1.2167
15.5246 23.9421 25.8607 2.07083 -2.12175 -1.1747
16.2792 26.2303 27.4875 0.527825 0.910529 0.849712
ITEM: TIMESTEP
3000
ITEM: NUMBER OF ATOMS
92
ITEM: BOX BOUNDS ss ss ss
1.1506377667515764e+01 2.6157335254048338e+01
1.1212832171401633e+01 2.8304898491038127e+01
1.0483023383725724e+01 3.0083994816953926e+01
ITEM: ATOMS x y z vx vy vz
20.3326 14.1265 14.2098 1.52196 0.483431 -0.582474
20.4838 14.446 11.7003 -0.211052 1.55674 0.840699
21.1555 12.0938 12.3933 -1.91596 3.6168 1.28701
22.207 11.9666 14.8402 -1.74387 1.36339 0.202355
24.8425 14.2974 11.4018 -1.87991 2.23641 -0.229394
23.918 11.9006 12.7208 -0.259495 1.45763 -1.1258
22.8451 14.3491 13.2272 -0.436628 -0.135058 0.0218786
22.7003 12.9319 10.5979 -1.27229 0.575349 1.71384
25.3268 13.9589 13.9619 2.55103 -0.12665 1.38043
21.3664 16.5718 12.9085 -0.852513 1.51699 2.11287
22.5419 15.4183 10.6185 -0.116898 0.233206 1.3761
24.1197 16.6349 12.3817 0.203344 2.88148 -0.508133
22.6822 18.3822 14.1935 -0.908477 0.559244 3.49712
20.7159 13.4447 16.6459 1.70973 1.12202 2.26168
22.6295 11.2421 17.1854 1.4712 0.90407 1.84083
22.3568 13.1819 18.9355 0.791428 0.900985 0.0935267
26.0555 13.6721 16.4305 -0.0543493 0.0964952 -0.09321
24.9293 11.636 15.2506 1.42059 2.46694 0.562755
23.4357 13.7976 16.0597 -0.822556 0.118036 0.604438
24.5471 14.8213 18.2793 1.6854 0.203775 -0.193574
24.7894 12.3107 18.0493 -1.92818 3.43957 0.496625
21.9728 15.3964 18.1286 -0.296234 0.367573 -2.8061
23.148 17.823 16.9055 0.542173 1.08925 0.780891
21.6252 16.0399 15.5174 -0.963587 0.937869 1.33159
24.3544 16.1536 14.8736 -1.01156 1.2858 -1.69803
25.1603 18.8805 15.0953 1.17954 -0.0657605 1.38252
26.0666 16.7257 16.7869 0.643184 0.44594 1.66651
25.8606 19.2785 17.2721 -2.20619 -0.792017 -1.75642
22.9109 20.3224 16.1037 -1.36986 -0.0983335 -1.71952
24.1356 22.42 15.3054 1.82913 -0.867582 0.370755
22.2308 24.5953 16.3849 0.47403 -0.102762 -0.771717
24.8851 24.1721 17.0403 -0.817257 -3.01444 -1.01712
23.5506 26.5023 17.5457 0.174945 -1.02844 2.47828
24.7675 17.2748 18.9648 3.16007 1.19509 1.4781
19.4973 18.286 19.5894 1.07805 -1.60428 1.57171
22.0779 17.7212 19.4306 2.48976 -0.201116 1.31794
21.61 19.4043 21.2341 -1.97661 -0.096007 2.00123
23.884 19.6699 18.7715 -0.912394 1.44758 -4.07788
19.4434 20.7949 20.455 -0.0470271 -0.770569 -1.02505
17.2097 20.8775 21.5948 0.890806 -0.419474 0.405724
25.4574 21.6917 17.3932 0.417161 1.70089 -2.09291
21.1897 22.8678 19.7072 -1.86748 -1.5966 -2.00256
21.227 20.2165 18.6165 -2.34617 -2.45878 -0.470085
22.8603 22.3915 17.8355 0.955589 -1.85547 -0.43928
25.3223 23.3096 19.7505 2.25174 -2.35376 -0.652713
23.389 21.4451 20.5001 -0.462705 -1.75383 -0.188876
23.4533 23.7503 21.8557 0.804047 1.29641 1.07748
20.8389 25.6234 21.0634 1.49053 -2.85396 0.1439
20.6675 25.0335 18.4027 -0.48178 -1.1417 0.0876743
21.7005 27.3864 18.979 -0.15214 1.52993 -1.00482
25.9574 25.8598 18.9846 1.48106 -0.703682 -0.273213
24.0971 27.5108 20.0382 -0.802502 -0.961417 0.237968
23.1081 24.9992 19.6054 1.43444 -1.68451 -1.18532
25.3146 25.5537 21.4026 0.138716 -2.12323 0.673149
22.011 28.0149 21.5034 -1.61184 -3.01194 -1.81255
12.8256 21.601 25.2563 0.621517 -1.20684 1.08394
14.2372 19.7379 24.1124 1.9221 -2.67438 1.42523
13.3647 19.1738 26.5249 1.15157 0.403592 0.952645
15.9793 18.7713 25.7764 -1.1471 -0.231241 -0.034986
19.0362 18.8972 22.2255 1.09805 -0.722512 0.05104
16.5868 18.4805 23.1001 -3.95545 -1.16001 0.260788
18.476 18.6005 24.8185 0.465132 -2.65525 -1.15419
19.0954 21.2043 23.476 0.408331 -0.12191 0.314261
14.3697 22.4038 23.599 0.670589 0.214237 -0.785384
13.1725 24.3703 24.8889 -1.60804 0.562864 -1.0936
16.184 23.3913 25.6082 -0.107699 1.1859 1.59348
16.5502 20.9519 24.1165 -0.970432 1.75378 -0.0639013
16.8866 23.7403 22.9262 -1.36834 0.877502 0.775456
19.3383 23.3214 21.5548 -0.332876 -1.55714 -0.841332
18.8154 23.577 24.8599 -0.601994 0.659037 2.18277
21.361 21.8536 22.279 -0.984962 0.924401 -0.560162
21.1775 24.3247 23.4703 1.06585 -1.1401 -0.553735
14.751 25.2362 23.2073 1.47309 0.770039 2.17672
17.1081 25.9291 24.8816 -2.40307 0.157672 0.663283
21.0347 27.0477 23.8605 -0.096566 -1.17509 -0.846851
18.8525 25.5993 23.1899 0.365905 -0.89225 -0.434133
19.9047 25.727 25.8296 -0.30731 -2.98963 -2.6256
23.1505 26.16 22.7941 1.58129 -0.7933 2.11464
14.4588 21.7778 29.596 0.647338 0.891445 -1.53655
12.4144 21.0639 27.8821 1.22871 1.59676 1.19438
15.1997 20.8613 26.8559 -2.20967 0.649855 1.32402
18.0256 20.8315 26.3647 0.141728 1.2878 -1.04804
12.1087 23.2943 29.4755 -0.275753 0.869538 -0.48912
12.7547 25.3865 27.7013 -2.75688 0.0839671 -0.815271
14.4476 24.2381 29.8703 -0.22707 0.00514783 -1.33236
11.5609 23.3157 26.7303 -0.889856 -1.20391 -1.14183
15.5155 25.8003 28.3575 1.62982 1.09305 -0.288591
14.2049 23.295 27.346 0.651568 1.69746 0.0842436
19.1938 23.022 27.5256 -0.658356 -0.378494 -1.42983
16.6802 22.9818 28.4013 2.18509 -1.91843 -0.159654
14.7891 26.0286 25.9841 -1.1499 1.15964 -2.0443
17.7627 25.1664 27.2645 1.68149 -1.23073 -4.48831
ITEM: TIMESTEP
4000
ITEM: NUMBER OF ATOMS
92
ITEM: BOX BOUNDS ss ss ss
1.0997356925139522e+01 2.7316083520729414e+01
1.2288252211390171e+01 2.6839472133540230e+01
1.1008334402775457e+01 2.9812321840904822e+01
ITEM: ATOMS x y z vx vy vz
19.7816 14.6129 14.5565 0.589309 -0.0769554 1.47883
20.0159 15.1105 11.9474 1.70404 0.436868 2.33983
20.9869 12.8381 12.6253 0.357027 2.64622 2.23033
22.4818 14.0992 10.9419 -3.1204 1.6542 0.507251
24.1632 15.8568 11.8006 -0.0212248 -0.079983 1.139
23.5356 12.832 13.1061 -1.67689 0.15836 -0.466137
22.4428 15.3881 13.563 0.828571 0.134677 0.940954
25.0894 14.642 14.3006 0.144489 1.4611 1.64535
20.3996 17.0514 13.4225 -0.845753 0.712198 -0.495797
21.5631 16.6516 11.0362 1.74802 -1.34402 0.293193
22.1187 18.77 14.705 -1.70921 0.902 -0.490784
22.9964 18.1632 12.3662 -1.26733 0.714513 -2.53118
21.7168 13.2298 15.2492 -2.91537 1.25504 0.824516
20.7732 14.2443 17.5494 0.743271 -0.952854 -1.07099
22.3622 12.2215 17.6368 0.268778 1.56176 0.283067
25.9992 14.6282 16.9629 0.538761 0.585674 1.21463
24.3537 12.3758 15.757 0.0758986 0.693506 0.109038
23.4189 14.7059 16.7371 -2.57695 -0.877251 -2.05744
24.684 12.8607 18.3778 -0.987408 0.392859 -0.416466
21.8714 16.4038 18.9759 0.926437 -0.110756 1.28808
21.2864 16.3117 15.921 0.731792 0.395822 -1.10662
23.7189 17.5573 16.9153 -0.484349 -1.01011 1.14958
24.3425 17.0397 14.4164 1.18163 1.11487 0.143698
24.9891 19.3467 15.4404 -2.31689 1.42142 -0.0508017
26.5156 17.2256 16.3191 -0.571573 2.81652 -1.84521
27.177 19.5438 17.1586 -0.196363 -1.77218 -0.488958
21.6327 18.7795 18.6716 -1.39726 -2.60079 0.478373
22.6317 20.2652 16.753 -1.83953 1.80599 0.177688
23.5158 21.9749 15.1561 0.866548 -0.290054 -0.261823
25.8 21.6157 16.2962 3.45383 2.45746 0.274762
23.6599 22.4283 17.814 1.33584 -0.749923 -1.3482
22.879 24.274 15.9963 0.528395 1.55954 0.165388
21.1482 23.2838 17.5376 -0.891187 -1.96196 0.604087
25.6885 24.2101 16.5131 1.71567 1.73396 -1.35468
24.0782 25.851 17.5791 2.81856 -1.11771 0.682232
23.2613 14.3736 19.4777 0.875379 -0.081415 1.45597
24.9968 16.0807 18.8889 0.752079 -1.67273 0.446921
20.2838 17.5098 20.9508 0.940468 -0.943019 2.13636
23.8128 18.1468 20.1414 -1.00508 0.909928 0.661137
21.8171 19.5418 21.3543 -1.09105 0.851565 0.818005
26.5599 17.9313 19.0994 -0.589753 2.3449 0.357771
17.063 20.2949 21.5304 2.3181 -0.898947 -1.14823
19.425 19.833 20.1529 -0.346688 -1.19717 0.768693
21.2952 21.4992 19.3215 2.86143 -2.82517 0.500994
18.7345 22.4432 21.1552 -0.493858 -2.67278 2.67681
24.7771 19.8411 18.1993 -0.0327361 1.14286 -2.25382
26.1278 22.254 19.0235 0.400454 -3.39619 0.779494
23.8743 21.0041 20.2975 0.227812 3.06432 -0.73551
23.8542 22.5125 22.1832 0.619682 -1.1714 0.180927
20.7517 24.1051 20.3198 -1.18057 0.802751 -1.83946
21.8122 25.6767 18.6296 -0.1056 0.505428 -1.282
21.2845 26.7739 21.1843 0.361452 -1.25988 -0.933572
25.8382 24.6909 19.0904 -1.05825 0.392022 0.126053
24.0964 26.5641 20.1496 -2.74918 -2.21521 -0.287375
23.4114 23.8069 19.977 -1.64595 -2.1239 0.938684
25.4778 24.6619 21.686 -0.0988294 -0.644323 0.236934
14.0282 19.7224 24.1193 -0.123803 1.98185 0.772093
15.7363 18.6257 25.8935 0.751915 -1.5562 1.7431
16.1998 18.3908 23.3029 -1.11109 0.106632 0.259762
18.1979 18.9578 24.9831 0.0561836 -1.05364 0.601571
18.2684 18.033 22.2799 0.670697 0.0847898 0.555044
12.2495 21.5148 25.6901 1.03261 -0.875167 -1.99699
14.0336 22.2684 23.8025 -0.66663 0.671407 1.71691
16.6059 20.9064 24.1589 -0.203985 -1.88928 -0.0903676
16.5247 23.2255 22.5187 -0.940246 -0.849726 -0.182362
18.6692 23.0165 23.9145 -0.150155 0.889361 1.1742
19.272 20.3582 23.1052 1.13257 1.08316 0.483149
21.1559 22.154 22.1564 0.725445 -1.02394 1.29263
12.651 24.1222 25.0176 -1.91606 1.99357 -2.80229
14.6175 25.2684 23.9662 -2.34847 -0.806297 -0.152303
13.1807 26.6452 25.1377 -1.00258 1.37001 -0.494103
16.1014 23.0754 25.3663 0.257143 -0.0040369 -1.89809
17.351 25.4434 24.3493 -0.301681 -1.9774 -1.7213
21.3173 23.9539 23.9095 1.53014 -0.467253 -0.112608
21.5974 26.6578 23.7138 -0.113151 1.50506 0.510846
19.499 25.1804 22.3656 0.129674 3.03775 -2.55752
19.838 25.6496 25.168 0.375124 -2.07266 -0.0961779
23.0017 25.0865 22.1899 1.17971 -0.324768 -0.562914
13.3083 19.0172 26.5272 0.170906 0.395627 1.08839
14.2184 22.1869 29.624 0.345518 2.17996 -0.664525
12.5889 21.1322 28.1426 -1.81323 -0.136522 -1.84966
12.3844 23.9292 29.6476 -0.916079 0.361874 1.22045
11.2485 23.2765 27.3375 2.78817 -0.481038 -0.233763
15.1544 20.9429 26.6398 0.556427 -1.82304 -1.99331
17.8332 21.4701 26.5761 0.975993 -0.288704 -1.86337
16.3583 23.1571 28.3405 0.248882 -2.3701 -1.31782
20.4329 23.1731 26.244 2.37842 -1.02543 2.21347
12.5951 25.6559 27.4791 0.599359 0.328833 0.733291
14.5878 24.9798 29.1715 1.23486 -0.120968 -0.614616
13.8651 23.3362 27.2049 -1.17793 -1.83679 0.724856
15.3221 25.5452 26.6598 -0.519738 3.64888 -0.339136
17.9732 24.3425 26.7186 -0.533428 -1.23747 -1.13609
ITEM: TIMESTEP
5000
ITEM: NUMBER OF ATOMS
92
ITEM: BOX BOUNDS ss ss ss
1.1559162415485988e+01 2.6979173761598670e+01
1.2669899452813734e+01 2.6344670591844569e+01
1.1519302805519255e+01 2.8544731459375086e+01
ITEM: ATOMS x y z vx vy vz
19.468 15.1727 15.335 1.11591 1.8274 0.817473
19.3806 15.4821 12.7482 1.53743 -0.931065 -0.356268
20.4196 13.0406 13.4808 1.66077 0.508185 -1.18538
21.6306 14.2049 11.5401 -0.633826 -0.113847 2.2052
21.7142 15.3504 14.1811 -0.343996 1.80669 1.74016
21.3811 16.8359 11.5369 -0.519566 -1.31209 1.3318
21.982 12.6828 15.5085 -0.76093 -0.375745 0.40376
23.7004 16.0826 12.3208 -0.389474 2.00362 -0.630772
23.5296 13.409 13.3683 -0.757225 -2.8348 1.53092
25.2004 15.0754 14.584 -1.87725 1.577 0.460044
20.1687 17.6735 13.6199 -0.0472295 -0.978083 -1.10967
22.2919 19.5032 14.4342 2.34128 0.602929 -2.17474
23.2129 18.4618 12.3998 -0.903785 0.678806 0.416706
23.9004 17.3644 14.7005 0.741789 0.173529 -0.736109
24.6914 19.6954 15.3351 -0.339844 1.35386 -0.379908
23.5617 21.9534 16.0223 2.22992 -1.92452 0.751268
21.101 14.4101 17.2079 -0.107497 -0.714775 1.02865
22.8336 12.6734 18.0717 -0.46412 -0.0305831 0.816189
20.9928 16.747 18.5811 -0.171472 0.965348 1.46411
20.9087 17.3723 16.0406 -2.02791 1.48482 -0.180364
22.2989 14.9218 19.5577 -2.25007 2.08449 0.450781
26.1656 15.152 17.1762 -1.46066 -0.0908009 0.488326
24.6699 13.1717 16.1532 1.76115 4.37159 2.67103
23.4703 15.4891 16.7771 -0.455154 0.487207 -1.46156
24.7068 14.2143 19.0429 -2.84723 0.359891 -0.115698
24.5364 16.7811 18.9907 -2.35424 0.597987 -1.55516
20.2004 19.1987 18.365 -0.662984 -0.591626 -1.50408
21.0434 20.5683 16.3473 -0.910459 0.72985 1.27858
21.589 21.205 19.2703 -0.287943 -2.01042 0.577788
22.8897 18.4992 17.2731 -2.56689 -1.12971 -0.787555
25.5979 17.6219 16.6196 0.232943 0.742558 0.360908
26.9702 19.4708 17.6009 -0.621902 -2.70521 0.91333
26.2407 21.8138 16.6459 1.24263 3.55359 0.411034
22.5137 18.7121 20.1724 -1.40432 -0.462462 2.18919
25.6359 18.9297 19.6193 0.691811 0.648876 -2.01497
24.1443 20.5962 18.1385 1.87734 -1.15266 -1.22911
26.3263 21.5828 19.302 -3.53729 -1.4182 -0.401096
22.856 24.9991 15.8529 -1.09954 -3.69846 -0.25109
21.3693 22.9059 17.2423 1.23915 -0.963366 0.242572
20.2422 24.0617 19.7176 -1.25119 2.60184 1.73795
22.0974 25.2725 18.3683 -1.82867 2.86276 1.50269
22.5782 23.4386 20.6323 1.60359 -1.55337 0.819221
24.0601 23.5082 18.2416 -1.03004 0.0724996 -0.502719
25.4281 24.0556 15.8381 -0.739218 -0.522656 0.304211
24.5579 26.055 17.0828 -1.60401 1.14708 0.314404
26.6304 24.0373 18.5995 2.1306 1.63697 1.69753
24.4054 25.6674 20.0009 0.312201 -1.68505 0.969628
14.2587 19.1469 23.9339 0.949173 -0.912867 -0.449353
17.4219 19.9367 21.6654 -2.44349 0.667927 0.00741207
16.2207 17.6037 23.1817 -0.480402 -2.27481 1.8596
18.8518 17.6896 22.6578 0.750433 -0.475905 -2.11678
16.9043 20.4421 24.0049 0.27795 1.34657 -1.1327
21.1707 17.0081 21.5063 1.09399 -1.42453 -2.45613
22.1812 19.7577 22.5943 0.542055 1.87585 -0.455519
20.0343 19.3501 21.012 0.0349646 -2.86501 0.647502
19.6106 20.0239 23.8622 0.646043 1.70672 -0.826645
23.9971 20.807 20.9683 -2.18643 2.20391 1.34889
14.267 21.7786 23.5942 1.87614 1.24902 1.84376
14.9211 24.4283 23.7555 -0.631879 0.212803 -2.33448
18.4406 22.2156 20.4726 0.41466 0.361792 -2.29459
16.4898 22.6786 22.3104 -0.304283 -0.598187 -2.58577
18.8322 22.3918 23.6775 3.58297 -1.28291 -0.22422
17.5669 25.2743 24.0801 -0.18765 0.561767 -2.08151
21.6565 25.8726 20.8089 -0.211244 1.88513 2.49434
20.9216 21.8062 21.8257 1.08206 -3.84312 2.31662
21.464 23.4934 24.4366 -1.9926 -0.669698 0.0467075
21.6703 25.6945 23.2901 1.40872 -0.123747 -1.63736
19.6644 24.472 22.1563 0.712371 -1.44502 3.3375
23.9868 24.8483 22.6539 2.24817 -0.107439 -0.992201
23.1767 22.1587 23.137 0.120971 1.47225 0.451554
25.3658 23.4192 21.1053 2.18889 1.04583 -0.497056
12.2645 21.394 25.1862 3.15087 -0.731655 0.822975
13.1691 19.0685 26.3274 0.26621 0.038835 1.29337
12.9597 21.3397 27.8476 0.109362 -1.74307 -0.408177
15.3217 20.4776 26.1077 1.50682 0.0772923 0.621243
15.3956 17.8953 25.8999 -1.09425 -0.170102 -1.76154
18.0351 18.3969 25.1356 -2.24945 0.185795 1.75218
18.1993 20.8038 26.4166 -0.0218437 1.96958 1.03756
12.3354 23.8103 24.5207 -1.52577 -2.23803 0.0399126
13.0035 26.209 24.2103 0.508688 -0.275687 -0.349122
15.3923 21.9285 28.5197 0.453684 1.27736 -2.71057
13.4237 23.7856 28.5352 0.381237 -0.943466 -0.167502
11.5569 23.4423 26.699 -0.909811 -1.52211 -1.99707
13.1652 25.6637 26.4074 0.780116 1.01253 -0.340893
15.6463 24.8456 27.9942 -0.521972 1.42619 -1.29539
14.326 23.2302 26.1808 0.0480442 -0.213914 0.528585
15.7248 26.3395 25.4795 1.52621 -0.245961 -1.34026
16.9231 23.1785 25.652 -2.95641 -1.5266 -0.991137
17.736 23.0822 28.2006 3.0124 0.364119 -0.26677
17.8448 25.3775 26.9503 -0.909459 -2.54547 -1.74166
19.8996 25.4348 25.3278 2.79295 0.279163 0.674848
19.6487 23.2175 26.4058 1.69821 -0.721021 -0.989346
ITEM: TIMESTEP
6000
ITEM: NUMBER OF ATOMS
92
ITEM: BOX BOUNDS ss ss ss
1.1810467904054397e+01 2.6588698564736880e+01
1.3012558055404229e+01 2.6565138928409915e+01
1.0740254934612389e+01 2.8509489369694677e+01
ITEM: ATOMS x y z vx vy vz
19.3343 16.007 14.6189 -0.0945674 0.59711 -1.01823
20.6967 16.0926 12.56 0.722992 2.15728 -2.56621
20.6565 13.7114 13.4126 1.01219 0.166663 1.73995
22.4894 14.2176 11.5306 -0.701506 0.274859 -1.37888
21.9377 15.991 15.2409 -2.84702 1.21222 0.934863
22.7763 16.336 10.7566 3.0835 0.535129 2.86405