ITEM: TIMESTEP
0
ITEM: NUMBER OF ATOMS
923
ITEM: BOX BOUNDS ss ss ss
4.2726498638953219e+00 3.6517350136104675e+01
4.6046273710777479e+00 3.6185372628922245e+01
4.5403972571233604e+00 3.6249602742876640e+01
ITEM: ATOMS x y z vx vy vz
15.204 14.5919 7.53427 0.253938 -0.993347 -0.122007
12.8101 16.1875 8.49612 -1.18353 1.00817 2.27374
18.1495 14.0531 8.01954 -0.790569 -1.68019 -0.908316
20.2359 16.01 7.0099 -2.32991 0.183103 -0.622755
23.1814 15.4711 7.49518 -0.185177 2.73297 1.05601
26.1269 14.9322 7.98044 0.184769 -1.58931 0.699162
31.1588 16.3503 7.45608 -0.465091 0.0289003 0.920442
29.0724 14.3933 8.46571 -2.03499 -1.7367 0.518844
11.9509 18.6833 7.00122 0.799057 -1.4322 -0.301311
14.6373 19.7188 7.18623 -0.271034 0.617083 0.0971603
13.4858 19.5836 4.54448 -0.783716 -2.52728 2.95986
14.3449 17.0878 6.03937 -1.69246 0.493862 -1.04525
17.5828 19.1799 7.67149 0.554401 -1.30977 -1.14426
16.4313 19.0447 5.02974 -0.960983 0.15691 -1.10459
19.3768 18.5058 5.51501 -0.604509 1.64051 -1.81768
17.2904 16.5489 6.52464 0.626376 -2.0393 -0.333831
20.5283 18.641 8.15676 -0.988921 3.13267 -2.45356
22.3223 17.9669 6.00027 1.38241 -0.136425 -0.541203
24.1633 20.233 6.82341 -0.434983 0.30409 1.12922
25.2678 17.428 6.48554 2.56123 0.397414 0.730957
28.2133 16.8892 6.97082 -0.616468 -0.0559407 -0.696124
27.1088 19.6941 7.30867 -0.382469 1.27857 1.51494
30.0543 19.1552 7.79395 1.07409 -1.15936 -1.85827
12.5578 21.6263 6.58605 -0.633711 0.248924 -1.14369
15.3268 21.8496 5.36761 -2.12722 0.383323 -2.42423
14.3987 23.8923 7.40918 -1.26928 -0.528525 -1.45628
16.4783 21.9849 8.00936 -0.168455 -1.28558 -0.5085
19.4238 21.446 8.49463 0.155076 0.0410622 -0.860313
17.1678 24.1157 6.19074 -0.260969 -0.5265 -0.490815
20.1133 23.5768 6.67601 0.735661 -0.358337 0.622193
18.2723 21.3108 5.85288 0.236788 0.326673 1.36674
23.0588 23.038 7.16127 0.849847 -2.68257 1.2778
21.2178 20.7719 6.33814 -2.39692 -0.209766 0.795235
26.0043 22.4991 7.64654 1.18861 -1.60969 -1.22217
28.9498 21.9602 8.1318 1.83087 -1.98712 0.0224758
16.2397 26.1584 8.23232 0.0842892 0.941355 0.253265
19.0087 26.3818 7.01387 0.138952 2.09433 -0.0343253
23.7952 28.109 8.32228 -1.73193 1.06978 1.44068
21.9542 25.8429 7.49914 -1.1334 0.695677 -0.018722
27.8453 24.7652 8.46968 0.88801 0.312117 -0.26126
24.8998 25.304 7.98441 0.392181 -1.49781 -1.30939
20.8497 28.6479 7.83701 0.878484 -0.876434 -2.57297
17.7814 7.10451 12.019 1.46693 0.426707 -2.0504
22.8133 8.52255 11.4946 -0.794939 -0.3019 -0.689165
16.0632 12.0961 9.02917 0.996778 2.67649 0.378631
14.5283 11.1958 11.4859 0.842243 -0.874628 1.11198
17.2147 12.2314 11.6709 -1.14896 -0.474749 -1.2289
20.1602 11.6925 12.1562 -0.38987 -0.124056 -0.878739
16.9223 9.60032 10.5241 -0.3876 -1.15142 0.905049
19.8678 9.06144 11.0093 0.10099 0.571053 -1.03774
19.0087 11.5573 9.51444 -2.01822 0.0957121 0.268659
21.9542 11.0184 9.99971 2.17585 -1.67718 1.05428
24.8997 10.4795 10.485 1.76006 -0.340774 -2.67352
26.9861 12.4364 9.47534 -0.54848 -0.100004 -1.15228
27.2716 11.2031 12.232 -0.189491 -0.271998 -0.57967
12.1343 12.7913 12.4478 -2.50382 0.325186 -0.664061
11.2752 15.2872 10.9529 -1.07139 -1.13066 -0.145011
16.3556 14.7272 10.176 0.520286 -0.238782 1.52989
13.9616 16.3227 11.1379 0.566503 -0.288826 0.722455
13.6692 13.6916 9.99103 0.0902256 -1.34391 -0.34911
19.3011 14.1883 10.6613 0.0867677 -1.06449 1.56684
22.539 16.2805 12.2934 1.5667 -1.72843 1.50881
22.2466 13.6494 11.1466 -1.11696 0.227317 1.45707
21.3874 16.1452 9.65166 0.229112 -1.27655 0.215797
24.333 15.6063 10.1369 0.515334 1.47999 0.0989027
21.095 13.5142 8.50481 -0.186296 -0.866585 -1.34286
24.0406 12.9753 8.99008 0.47508 1.85718 -1.63967
25.1921 13.1105 11.6318 -2.20201 -0.402318 1.25757
27.2785 15.0675 10.6222 0.363533 0.571708 0.966175
29.6504 15.791 12.3692 0.257694 0.593698 -2.54982
31.4444 15.1169 10.2127 0.0512197 0.77542 -3.18005
29.358 13.16 11.2224 1.0009 1.00929 1.52012
11.5676 17.9182 12.0997 -1.63122 -0.659501 1.1212
8.88124 16.8827 11.9147 -0.317891 1.03042 -0.102351
10.4161 17.783 9.45797 0.0362374 -0.702272 -2.9127
9.48807 19.8257 11.4996 -0.580507 -1.01387 0.256424
15.7888 19.854 9.82798 1.1643 -0.434554 0.802327
14.254 18.9537 12.2847 -1.74666 0.360305 0.50264
15.4964 17.223 8.68112 0.129004 0.909068 -1.5966
13.1025 18.8185 9.64298 -0.648114 1.23674 1.58814
16.648 17.3582 11.3229 0.217261 0.193818 1.11386
18.7343 19.3152 10.3133 -0.852769 -1.4189 1.06468
19.5935 16.8193 11.8081 -1.49266 0.353618 -1.10409
18.4419 16.6841 9.1664 -0.380301 -2.06247 -2.29438
21.6799 18.7763 10.7985 -0.609141 -0.0329021 0.397578
23.4738 18.1022 8.64204 -0.0997286 0.19864 -2.08128
27.5709 17.6985 11.7691 0.613446 0.204601 0.33041
24.6254 18.2374 11.2838 0.183385 0.119008 0.803479
28.2603 19.8293 9.95043 0.137393 -0.401201 -0.439762
26.4193 17.5633 9.1273 -1.04782 -1.05289 0.51217
25.3148 20.3682 9.46517 -0.293322 -1.89997 -0.0910758
29.3648 17.0244 9.61257 0.0160082 0.710096 -1.45547
30.2573 18.7341 11.9541 -0.390428 -1.40976 0.0632395
32.0512 18.0599 9.79757 -0.740503 1.01918 0.136982
32.9436 19.7696 12.1391 -0.0984657 -0.582416 -1.78896
12.1744 20.8612 11.6846 0.267293 2.52681 -1.43475
11.6297 23.669 8.62763 -0.666266 1.29807 0.515489
11.0229 20.726 9.0428 -0.570528 1.08838 1.58454
10.0949 22.7687 11.0844 -1.20632 1.09774 -2.7125
14.8608 21.8967 11.8696 -0.254425 2.40262 0.973585
13.7093 21.7615 9.2278 1.2452 1.22244 0.46792
12.7813 23.8042 11.2694 -0.814166 -0.228515 0.455195
15.5503 24.0276 10.0509 1.7891 -0.562562 0.489895
17.6298 22.1201 10.6511 0.234606 2.15133 -0.837743
18.3193 24.251 8.83249 -0.486865 2.63567 0.372395
22.4163 23.8473 11.9595 1.26046 0.688706 0.304046
20.5753 21.5812 11.1364 -0.481239 0.655395 0.534921
23.5209 21.0424 11.6217 0.708869 -0.03981 0.975995
21.2648 23.7121 9.31776 -2.65099 0.100229 -0.273577
24.2103 23.1732 9.80302 -0.900305 1.80781 -1.19968
22.3693 20.9071 8.97989 -0.977527 -0.51299 -1.77208
25.3618 23.3084 12.4448 1.54825 -0.54642 -1.96643
26.4664 20.5035 12.1069 0.210185 0.355257 -0.620721
27.1558 22.6343 10.2883 -0.164073 -0.647373 0.536069
29.1527 21.539 12.2919 -0.837092 0.207068 -1.70762
29.8422 23.6699 10.4733 -1.05206 1.82049 -0.365522
30.9467 20.8649 10.1354 0.62133 2.94356 -0.336309
10.7017 25.7117 10.6692 -1.30749 1.96198 0.635386
14.6223 26.0703 12.0925 1.22846 -1.39872 -0.0811624
15.3117 28.2011 10.2739 0.490591 1.72783 0.426395
13.4707 25.9351 9.45076 -1.11959 -0.280453 1.10202
12.5427 27.9778 11.4923 -1.18355 -0.886071 -1.32217
19.4708 24.3862 11.4742 0.610108 -0.468485 1.40348
20.1603 26.517 9.65563 1.27875 0.513939 -0.200215
17.3913 26.2937 10.8741 0.607866 -0.0814687 -0.349269
21.3118 26.6523 12.2974 -0.51954 -1.18141 -0.797049
23.1058 25.9782 10.1409 -2.0135 -1.26669 -0.355352
24.9468 28.2442 10.964 0.509626 -0.826024 -0.434852
26.0513 25.4393 10.6262 -0.140753 0.357099 -2.08342
26.7408 27.5701 8.80754 1.49759 -0.499674 -1.30147
28.7377 26.4748 10.8112 1.59563 -1.25492 -0.594047
14.3837 30.2438 12.3155 0.612162 -1.40934 -0.733742
19.2323 28.5597 11.6972 2.03299 -0.376534 -1.55977
19.9217 30.6906 9.87858 -0.259748 -0.83281 -0.615114
18.0807 28.4245 9.05545 0.45991 -0.0844528 -0.624047
17.1527 30.4672 11.097 0.410526 -0.269373 0.205477
23.8423 31.0492 11.3019 -1.59919 0.245895 -1.48922
22.0013 28.7831 10.4788 0.435553 -1.12546 -2.7115
22.6907 30.914 8.66014 -0.555967 0.424029 -0.571448
26.5286 32.0847 11.4869 -0.576936 -0.759594 -0.814071
25.6362 30.3751 9.14541 -0.243493 -2.32526 0.144871
27.6332 29.2798 11.149 -0.486172 1.38688 2.64051
18.9937 32.7333 11.9202 2.30815 2.06855 1.05146
24.1347 33.6802 12.4487 -0.0502687 1.00816 0.900352
21.7627 32.9567 10.7017 0.00346613 1.04065 -0.364301
24.5317 33.18 9.48327 2.06681 -0.967082 0.208278
16.2466 6.20421 14.4757 2.41286 -1.95582 1.16575
13.8526 7.79973 15.4376 1.51899 -2.42148 -0.0708439
18.933 7.23975 14.6607 1.70905 -0.692849 2.37744
18.6405 4.60871 13.5139 0.7231 0.695793 1.76148
21.3049 7.96333 16.4078 -1.12137 -0.069217 -1.56561
20.7269 6.56563 12.5042 1.62091 3.03104 -2.06208
21.0125 5.33229 15.2609 -0.983672 0.371789 -0.142991
23.0989 7.28921 14.2513 0.502481 0.495716 -1.01945
25.4709 8.01279 15.9983 1.58823 1.4 -1.76101
11.4586 9.39524 16.3994 0.142884 -0.69062 -1.06325
10.5995 11.891 14.9045 -0.15044 -0.347275 0.892056
15.6798 11.3311 14.1277 -0.408708 -0.410059 0.507808
15.3874 8.70002 12.9808 -1.07376 0.00803778 0.497896
12.9935 10.2955 13.9427 -0.948053 0.0268747 -0.894931
19.2254 9.8708 15.8076 -0.102654 -1.34172 1.42575
18.3662 12.3666 14.3127 0.132357 0.907438 0.793657
16.539 8.83526 15.6226 -3.20084 -1.24942 0.262261
18.0738 9.73556 13.1658 0.887311 -0.00494579 0.475643
21.3117 11.8277 14.798 1.2425 0.462299 0.918254
21.0193 9.19668 13.6511 -1.73941 0.658974 -0.0844217
23.1057 11.1536 12.6415 -0.110835 1.2681 -0.145497
23.3913 9.92026 15.3981 -0.553971 0.325525 0.793168
25.4777 11.8772 14.3885 -1.84408 -2.35478 1.78796
25.1853 9.24614 13.2416 0.675422 -0.668721 0.657469
27.5572 9.96972 14.9887 -0.616338 1.41604 -1.25622
29.6436 11.9267 13.979 1.23266 0.662455 0.619787
7.3464 15.9824 14.3715 1.6385 0.823081 -1.28882
8.20553 13.4866 15.8664 2.68104 0.989736 1.16104
10.8919 14.5221 16.0514 -0.374229 -1.95874 0.0187762
9.74038 14.3869 13.4096 0.112896 -0.106074 -1.69235
15.9723 13.9621 15.2745 0.186372 0.7869 -0.818939
13.5783 15.5576 16.2364 1.04402 1.61451 0.384411
13.2859 12.9266 15.0895 -0.154418 0.89723 -0.73261
14.8207 13.8269 12.6328 -0.225359 0.0963276 2.0126
12.4268 15.4224 13.5946 -0.622491 0.361145 -2.13551
18.6586 14.9977 15.4595 -0.0466823 2.30223 0.256075
17.5071 14.8624 12.8178 0.510107 0.454138 -2.48562
21.6042 14.4588 15.9448 -0.274222 -1.5304 0.426677
23.6905 16.4157 14.9352 0.0105229 -1.66118 -0.181427
23.3981 13.7847 13.7883 -1.69831 -0.523706 0.248456
20.4526 14.3235 13.303 1.78317 1.605 0.171132
25.4845 15.7416 12.7787 -1.19644 0.632042 -1.19554
25.7701 14.5082 15.5354 1.06081 -1.94378 -1.23322
27.5641 13.8341 13.3789 0.268378 -2.67855 -0.0402696
27.8496 12.6008 16.1355 -0.134322 -0.796975 0.0842666
29.936 14.5577 15.1259 -2.08318 0.251333 2.11797
31.73 13.8836 12.9694 1.00419 0.238298 -0.633907
32.0156 12.6502 15.7261 -1.28666 1.45568 -1.60333
32.6224 15.5932 15.3109 0.358097 1.55541 1.10301
6.41839 18.0251 16.4131 -1.27963 0.235489 2.55914
7.95323 18.9254 13.9563 2.23053 0.188931 -0.384702
10.0328 17.0179 14.5565 -0.170158 0.0966852 -1.94749
10.6396 19.9609 14.1413 0.533029 1.20373 -0.263125
15.4055 19.089 14.9265 -1.03818 -0.556794 0.400759
16.2647 16.5932 16.4214 -0.357797 -0.146487 2.94265
12.7192 18.0534 14.7415 -1.31053 1.77722 -0.120031
15.1131 16.4579 13.7796 1.38245 -0.158997 -0.183605
18.0919 20.1245 15.1115 2.14432 -0.300008 0.577182
16.9404 19.9893 12.4697 0.309822 1.23194 0.578553
17.7995 17.4935 13.9646 -1.00183 -1.22295 1.11852
19.8859 19.4504 12.955 1.58436 2.14953 0.68005
23.9829 19.0468 16.082 -0.726387 2.103 -2.32606
21.0374 19.5856 15.5968 0.143164 -0.241001 -0.304855
22.8314 18.9115 13.4403 -0.042045 -0.982715 -1.93363
20.745 16.9546 14.4499 -1.30548 -0.798318 -0.633745
25.7769 18.3726 13.9255 1.83191 -0.493124 -0.277452
26.6693 20.0823 16.267 -0.268658 -0.668932 -1.33863
27.8565 16.4652 14.5257 1.06089 -1.21276 -0.0301484
28.4633 19.4082 14.1105 0.39731 -0.553112 -1.10376
30.5428 17.5007 14.7107 -0.121482 2.35464 -1.06918
32.3368 16.8266 12.5542 0.757804 1.57688 -1.67851
33.2292 18.5362 14.8957 -0.93697 -0.204076 -3.09662
7.02522 20.9681 15.9979 -0.0725508 0.0337963 -0.210541
7.63203 23.9111 15.5827 1.76468 1.03133 2.03622
9.71159 22.0036 16.1829 0.822268 -0.257203 -0.938402
11.2464 22.9039 13.7261 -0.0786378 -1.8472 -0.827549
8.56006 21.8684 13.5411 -2.15484 -0.84419 0.824843
16.0124 22.032 14.5113 -0.867491 -1.28879 1.61337
13.9328 23.9395 13.9111 0.90649 -1.23888 -0.834135
13.326 20.9965 14.3263 1.47286 0.654502 0.037252
12.398 23.0392 16.3679 0.710878 -2.22106 1.48768
19.9329 22.3906 15.9346 -1.14272 0.55116 0.58183
18.7814 22.2554 13.2929 1.61284 -1.6201 0.987746
17.8534 24.2981 15.3344 1.17116 0.399592 -1.00635
16.7018 24.1628 12.6927 -1.10283 0.980262 1.91445
22.8784 21.8517 16.4199 1.20567 -0.397058 0.392859
23.5679 23.9826 14.6013 -0.300588 -0.0273308 0.928435
21.7269 21.7165 13.7781 -0.175444 -0.7003 2.69401
24.6724 21.1776 14.2634 -1.08627 -0.429911 -1.38485
27.3588 22.2131 14.4484 1.20076 0.813682 -0.261556
31.1497 20.4437 14.2955 0.950194 -0.940904 2.87882
30.0451 23.2487 14.6334 0.845593 0.462445 0.240264
31.8391 22.5746 12.4769 -2.32616 -1.96612 -1.66715
33.836 21.4793 14.4805 0.0818729 0.366298 1.17212
32.7315 24.2842 14.8184 -0.753462 1.55904 1.19338
8.23886 26.8541 15.1675 -0.0147596 1.41571 1.20793
11.8533 25.8469 13.311 0.729582 0.864189 0.277514
10.9252 27.8896 15.3525 -2.58706 -0.504388 1.30994
10.3184 24.9466 15.7677 -0.916622 1.3951 0.914188
9.7737 27.7544 12.7108 1.01282 -1.56904 1.9965
9.16688 24.8114 13.126 1.23905 -0.548159 -0.581019
13.0048 25.9822 15.9527 -1.112 -1.84262 -1.24771
15.7738 26.2055 14.7343 0.443753 -0.0718161 1.30412
13.6943 28.113 14.1341 0.169102 0.773648 2.05001
19.6944 26.5641 16.1576 -0.630605 0.0243765 0.509425
18.5428 26.4289 13.5158 0.807442 -0.764812 -0.960694
22.4634 26.7875 14.9391 -1.73514 1.98431 0.424069
20.6224 24.5214 14.116 2.26913 -1.24523 2.30944
24.2573 26.1134 12.7827 1.92508 1.07027 1.72193
25.1497 27.8231 15.1241 1.26566 2.40528 -0.571511
26.2543 25.0181 14.7863 -1.42023 0.235073 -1.13158
26.9437 27.1489 12.9677 0.633458 1.61293 -0.0834741
28.0482 24.344 12.6298 0.423254 -0.834243 0.0268015
28.9406 26.0536 14.9713 0.589109 1.10789 -0.857733
31.627 27.0892 15.1563 -0.532744 -1.45752 1.89808
29.6301 28.1845 13.1527 -0.615093 -0.213101 -0.163844
30.7346 25.3795 12.8148 0.850522 -0.421671 1.75998
10.6867 32.0632 15.5755 0.147144 -1.11631 1.73337
8.84569 29.7971 14.7524 -1.02526 0.245556 0.509203
11.6147 30.0205 13.5339 -0.870953 2.47582 -0.43213
15.5352 30.3791 14.9572 -1.26025 0.941706 0.81383
12.7662 30.1557 16.1757 1.04258 -1.2059 -0.465697
20.3838 28.695 14.339 -0.650222 -2.2275 -0.251112
17.6148 28.4716 15.5574 1.49506 -0.281685 0.429411
18.3042 30.6025 13.7388 0.313558 1.63799 -0.144416
16.4633 28.3364 12.9156 1.60523 -0.406349 0.542411
23.1528 28.9184 13.1205 1.80905 -0.979255 0.743538
22.7558 29.4186 16.086 0.269972 0.521683 -0.894772
23.4452 31.5494 14.2674 1.25114 0.0632633 -1.80424
21.0733 30.8258 12.5203 -0.551357 -2.53232 -1.62577
20.6762 31.326 15.4858 0.838293 -0.0701757 0.119057
27.8361 28.8586 15.3091 0.954747 0.879377 -0.211607
25.8392 29.9539 13.3055 1.35419 0.31724 -0.855589
25.4421 30.4541 16.271 1.09157 0.91754 -0.801483
30.5225 29.8941 15.4941 1.68252 -1.65939 -0.973263
28.5256 30.9894 13.4905 -0.85075 -0.61608 -0.702222
16.2247 32.5099 13.1386 1.34611 0.0107635 0.426866
13.4557 32.2866 14.357 1.04361 -0.434333 -0.266223
15.8277 33.0101 16.1041 1.31355 -0.223714 -0.84198
18.5967 33.2335 14.8856 -0.551354 1.66947 -0.781299
23.7376 34.1805 15.4142 -0.83678 1.18329 -0.783427
21.3657 33.4569 13.6672 -0.278288 -1.20527 0.154359
26.1316 32.5849 14.4524 -0.237367 1.26953 -0.849553
15.8495 6.70443 17.4412 1.86365 1.48249 0.194296
13.4556 8.29994 18.4031 -0.115929 -0.386696 -1.04313
18.5359 7.73996 17.6262 2.49391 0.301383 -0.0582286
18.2435 5.10892 16.4793 -0.604225 -0.255518 -0.894978
17.8465 5.60912 19.4448 -1.09556 0.473281 0.462666
20.9079 8.46355 19.3732 -0.50488 -1.97736 -0.653832
23.3845 6.05586 17.0079 -1.16993 -1.06879 -1.16624
20.6155 5.83249 18.2264 -0.448252 2.37691 0.377981
22.9874 6.55608 19.9734 -0.902751 0.581357 -0.00554017
25.7564 6.77944 18.755 -0.982101 -0.0206303 1.27398
11.751 12.0263 17.5463 0.975158 -2.92513 0.584658
9.06467 10.9907 17.3613 -2.57846 -0.549426 0.356949
11.0616 9.89545 19.3649 1.53795 0.430975 -1.07077
8.66762 11.491 20.3268 -1.22788 0.732519 0.726549
14.145 10.4308 16.5844 -0.820791 -0.826612 0.295535
16.1419 9.33548 18.5881 -0.703662 -0.800925 0.453442
13.748 10.931 19.5499 1.96419 -1.4478 -1.49212
16.8314 11.4663 16.7694 -1.26629 0.44338 -0.132877
18.8283 10.371 18.7731 2.62018 -0.385953 0.500917
16.4343 11.9665 19.7349 0.785766 -0.430952 -0.866378
21.5973 10.5944 17.5546 1.91672 -0.155426 -0.411277
23.9693 11.318 19.3016 -0.0914817 0.754973 1.24822
23.6769 8.68692 18.1548 -1.13608 1.39065 -0.430984
26.0488 9.41049 19.9018 0.861668 0.707542 1.475
25.7633 10.6438 17.1452 -0.143631 -0.493243 1.96827
28.1352 11.3674 18.8922 2.34337 -1.57337 -0.329454
27.8428 8.73637 17.7453 0.763457 -0.469336 0.412285
32.3012 11.4169 18.4827 -0.917852 -0.280816 0.90485
29.9292 10.6933 16.7357 -0.939908 0.844368 -1.25342
30.2148 9.45996 19.4924 -0.836677 0.453528 -0.99744
6.9631 15.2173 19.47 0.254927 0.151211 -1.08829
4.27673 14.1818 19.285 -0.742979 1.10165 -2.10636
6.6707 12.5863 18.3231 -0.01545 0.337858 0.907598
5.81157 15.0821 16.8282 0.415717 -0.438699 0.832464
9.64948 16.2528 19.655 -0.791203 -1.26416 -1.11559
12.0435 14.6573 18.6931 0.114666 2.75021 -0.310931
9.35707 13.6218 18.5081 -0.760515 0.371731 1.99438
8.49794 16.1176 17.0132 0.980385 -2.45242 -3.05353
14.7298 15.6929 18.8781 1.11217 0.41754 0.937236
14.4374 13.0618 17.7313 -2.61512 -0.545938 0.44613
19.8102 15.1329 18.1013 -0.990703 1.02443 -0.884568
19.5178 12.5019 16.9544 -0.116247 -0.561807 -0.574252
17.1238 14.0974 17.9163 -0.292152 -0.336738 0.310522
19.1207 13.0021 19.9199 -0.311466 2.0509 0.200667
22.1822 15.8565 19.8483 -1.96451 -0.287546 -1.89323
21.8897 13.2254 18.7015 0.0288641 0.75885 1.451
23.9761 15.1824 17.6918 0.882307 -0.145199 0.276222
23.6837 12.5513 16.545 -0.0905362 2.04122 1.30821
26.3481 15.9059 19.4389 3.58127 -0.683061 0.510719
28.1421 15.2318 17.2824 -0.364631 -0.589104 1.90075
28.4276 13.9985 20.039 -0.624109 -0.249634 0.734012
26.0557 13.2749 18.292 -0.366957 -0.183156 -1.77421
30.2216 13.3244 17.8826 -0.386376 0.968138 -1.38176
30.8284 16.2674 17.4674 0.891351 0.261971 0.391682
31.114 15.034 20.224 -0.316506 0.171985 -0.0469015
32.908 14.3599 18.0676 0.211955 -0.440277 -1.02106
7.56993 18.1603 19.0548 -0.915812 0.462845 0.321168
4.88355 17.1248 18.8698 0.417612 1.88511 -0.0115271
5.49037 20.0678 18.4546 0.802263 -0.932258 -0.461066
11.1843 17.1531 17.1982 2.25158 1.26493 0.216646
10.2563 19.1959 19.2398 0.958674 0.786286 0.196823
11.7911 20.0962 16.7831 0.997287 0.013447 1.94345
9.10477 19.0606 16.5981 -1.02715 -0.298766 -0.215711
15.0222 18.3239 20.025 1.08928 -0.135184 0.847145
12.3359 17.2884 19.84 -1.60244 0.114472 -0.986487
13.8707 18.1887 17.3832 0.56662 -0.655215 0.833876
12.9427 20.2314 19.4248 0.00194533 -1.21804 -0.706431
20.1026 17.764 19.2481 -0.134858 1.665 -1.47491
17.7086 19.3595 20.21 -1.63109 1.36851 0.470794
19.2435 20.2598 17.7532 1.48039 0.530321 0.557731
17.4162 16.7284 19.0631 1.12449 1.60552 -1.78204
18.951 17.6287 16.6064 -0.439849 0.318069 2.12167
16.5571 19.2242 17.5682 -0.252433 -0.806837 -0.203861
22.189 19.7209 18.2385 0.0208083 0.609294 0.253041
24.2685 17.8134 18.8387 1.16957 -0.526449 -1.04516
21.8966 17.0898 17.0917 1.612 0.0846198 -0.811376
26.0625 17.1393 16.6822 0.963257 0.113234 1.04261
26.9549 18.8489 19.0237 0.426241 0.716411 0.523727
29.6413 19.8845 19.2087 -1.0475 0.713922 -0.836455
28.7489 18.1748 16.8672 0.183001 -0.904032 -0.228397
29.0345 16.9415 19.6239 0.769957 -0.571573 1.08244
31.4353 19.2104 17.0522 1.1033 -0.85143 0.134522
31.7208 17.977 19.8089 -0.807821 -2.18578 0.262545
34.1216 20.2459 17.2372 0.601849 1.02247 0.337186
34.4072 19.0126 19.9939 -0.614061 -0.71781 0.444885
33.5148 17.3029 17.6524 1.32861 1.03572 -0.32441
8.17676 21.1033 18.6396 -1.1262 -0.257951 -0.109243
6.0972 23.0108 18.0395 0.642263 0.0116096 -0.362404
10.8631 22.1389 18.8246 -1.24833 2.58595 0.907568
8.78357 24.0463 18.2245 -0.614521 2.35312 -1.02622
16.2359 24.2099 19.1946 1.06316 0.557422 1.16873
15.6291 21.2669 19.6098 -1.37168 -0.483622 -0.604388
13.5495 23.1744 19.0096 0.652654 0.648258 -1.50979
15.0843 24.0747 16.5529 -0.506713 1.55372 -0.6646
14.4775 21.1317 16.9681 -0.735353 -0.424348 -0.565327
18.3154 22.3025 19.7948 0.876668 -0.202432 -0.0737305
17.1639 22.1672 17.1531 1.02074 -1.46388 -1.68344
21.0845 22.5258 18.5764 0.509206 0.520143 -0.98011
23.7708 23.5614 18.7614 -0.401485 -1.20831 0.0262615
24.8753 20.7564 18.4235 -1.6855 -1.16123 1.26648
27.5617 21.792 18.6085 0.698463 0.216868 -1.20909
25.5648 22.8873 16.6049 0.741107 -0.646296 2.41201
28.2512 23.9228 16.7899 1.47342 0.0992283 -1.12754
30.2481 22.8275 18.7935 -0.808752 -1.83289 0.299093
29.3557 21.1178 16.452 0.397143 0.0603547 0.0491221
32.0421 22.1534 16.637 1.09808 -1.79227 -0.339796
32.3277 20.92 19.3937 -0.482643 0.0431181 1.76683
32.9345 23.863 18.9785 0.310367 0.572335 1.0748
34.7285 23.1889 16.822 -0.152703 -0.0623563 -0.629791
35.014 21.9556 19.5787 -0.640315 1.37625 -0.0726954
6.70402 25.9538 17.6243 -1.19786 -1.06353 -0.332087
6.98961 24.7204 20.381 -1.18004 -0.847154 0.841271
7.59644 27.6635 19.9658 -0.546296 2.0328 -0.472962
12.0768 28.0249 17.9943 0.150916 0.205712 -1.56389
11.47 25.0819 18.4095 0.887869 0.328125 -1.80944
9.3904 26.9893 17.8093 1.17716 1.27572 1.51141
14.1563 26.1174 18.5945 0.105958 -0.156189 -0.342355
14.8458 28.2482 16.7758 0.758665 -0.136729 0.981239
19.0049 24.4333 17.9762 0.805466 -0.906803 1.77956
16.5283 26.841 20.3415 -0.896854 -0.44788 1.99589
16.9253 26.3408 17.376 -0.894195 0.204116 0.535498
19.2973 27.0644 19.1231 -0.775393 -2.11014 -0.256491
21.7739 24.6567 16.7578 0.967242 -0.707133 1.17754
21.3769 25.1569 19.7232 -2.74085 -1.77889 -0.250423
22.0663 27.2877 17.9046 1.31571 0.553623 1.30064
24.0632 26.1924 19.9082 -0.273421 -0.515155 -1.43522
26.4572 24.5969 18.9464 0.325052 -0.179963 0.94191
24.4603 25.6922 16.9428 1.06214 -0.135522 0.261025
27.1467 26.7278 17.1278 -1.53759 0.0819517 -0.927038
26.7496 27.228 20.0932 -0.359576 -2.30926 -0.799296
29.1436 25.6324 19.1314 -0.193094 -0.596363 0.434164
31.83 26.668 19.3164 -0.141853 3.50926 -0.501029
29.833 27.7633 17.3128 0.271131 0.576746 -0.0941124
29.436 28.2635 20.2782 1.89876 -1.22152 0.608679
30.9376 24.9583 16.9749 -0.21581 -0.134267 -0.323583
34.5163 27.7035 19.5014 0.565126 0.0218365 1.42915
35.6209 24.8986 19.1635 -1.38305 1.71903 0.619799
33.6239 25.9939 17.1599 -2.38511 1.04905 -1.83372
7.91767 31.8398 16.7939 -0.91021 0.307116 -0.429196
8.20326 30.6065 19.5506 -0.390477 0.408168 0.136245
7.31085 28.8968 17.2091 -1.02557 0.270792 -0.581007
9.99723 29.9323 17.3941 -0.275672 2.60152 -0.316647
10.2828 28.699 20.1508 0.853736 1.22883 -0.92458
14.4487 28.7485 19.7413 0.247147 1.64079 -0.481342
12.3692 30.6559 19.1411 -0.244846 -1.35444 -0.753537
15.1382 30.8793 17.9227 -0.460721 1.58597 -0.735426
19.5897 29.6954 20.2699 0.159211 -0.945973 0.715077
19.9868 29.1952 17.3044 -1.25808 -1.30129 -0.470825
17.2178 28.9718 18.5229 -1.64813 -1.09752 0.767772
20.2792 31.8262 18.4513 0.0436679 -1.0707 0.77776
17.5102 31.6029 19.6697 2.61257 -1.60739 -1.82498
17.9072 31.1027 16.7043 -0.82095 -0.0196618 -0.0134803
22.3587 29.9188 19.0515 1.382 0.0650761 1.84907
23.0482 32.0496 17.2328 0.323008 2.32294 -1.88991
24.7527 28.3233 18.0896 3.1061 -0.714455 0.412956
27.4391 29.3588 18.2746 -1.20577 0.232237 0.404917
25.0451 30.9543 19.2365 0.526229 -1.55682 -1.1978
27.7315 31.9899 19.4215 0.742009 -0.3581 -1.0666
28.1285 31.4896 16.456 0.502752 -0.838228 -0.388654
30.1254 30.3943 18.4596 -1.03605 -0.00326634 -1.90921
32.5194 28.7988 17.4978 0.460223 1.61511 -0.513144
10.2896 32.5634 18.541 1.26358 1.00738 0.605692
12.6616 33.287 20.288 -0.650752 -0.356439 0.303845
15.4306 33.5103 19.0696 -0.946867 1.22608 0.857347
13.0586 32.7868 17.3225 -0.750131 -1.63765 0.537476
18.1996 33.7337 17.8511 -2.265 -0.240796 0.0576285
22.6511 32.5498 20.1983 1.02093 0.453964 -1.09064
23.3406 34.6807 18.3797 -0.0400991 -0.753282 -1.4174
20.5716 34.4573 19.5981 -1.83217 0.645046 -0.654837
20.9686 33.9571 16.6327 -0.982376 -0.635048 -1.80051
25.3375 33.5854 20.3833 -1.79416 1.04091 0.922142
25.7346 33.0852 17.4178 0.135587 0.519058 0.167925
15.4525 7.20464 20.4067 -0.0775857 3.13217 -0.687237
15.0554 7.70485 23.3722 -0.190667 2.01451 1.9485
18.1389 8.24017 20.5917 2.24567 -2.35202 -1.37028
17.4494 6.10933 22.4103 -1.60351 -0.360033 -1.16551
20.2184 6.3327 21.1919 -0.187463 -0.167604 0.76263
19.8214 6.83292 24.1573 1.00866 1.57145 -0.620909
22.5904 7.05629 22.9389 1.16629 -0.18828 1.37473
28.1284 7.50302 20.502 1.54261 0.843083 -1.62201
25.3594 7.27965 21.7204 -1.17415 0.289648 0.0442321
27.7314 8.00323 23.4675 1.29477 1.42278 -0.596812
30.5004 8.22661 22.249 -0.635012 2.59895 -0.310369
8.27058 11.9912 23.2922 -0.738631 -0.431473 0.227151
10.6646 10.3957 22.3304 -0.405371 0.263201 -3.61248
16.0373 12.4667 22.7004 1.68088 0.388047 2.11715
15.7449 9.83568 21.5535 1.49619 -0.233537 -0.314465
13.3509 11.4312 22.5154 0.934375 -0.267826 -0.047186
13.0585 8.80015 21.3685 1.07482 -2.49737 -1.30761
12.6615 9.30036 24.334 -0.188268 -0.756449 1.00575
18.4313 10.8712 21.7385 0.95716 0.267716 -2.01811
17.7418 8.74039 23.5572 -1.2509 0.225821 1.24842
21.2003 11.0946 20.5201 0.0955961 -0.502457 -0.805308
20.8032 11.5948 23.4856 0.230608 1.29127 0.92912
23.5722 11.8182 22.2671 -1.06636 -1.05851 -0.378009
20.5108 8.96376 22.3387 0.135203 0.0295853 0.42865
23.2798 9.18712 21.1203 -1.82877 -0.711924 0.652496
22.8828 9.68734 24.0857 1.74717 -0.800155 -1.26357
26.3413 12.0415 21.0487 1.49248 -0.61847 -0.864093
28.4208 10.1341 21.6489 2.24068 -0.240011 0.0693592
25.6518 9.9107 22.8673 -0.62883 1.18881 1.97444
30.7928 10.8577 23.3959 -1.05679 -1.31496 0.237648
30.5072 12.091 20.6392 -0.487003 -0.643995 2.00584
32.8723 8.95019 23.9961 -1.07222 -1.65856 2.2577
33.4791 11.8932 23.5809 -0.0350117 1.21017 1.20295
32.5867 10.1835 21.2394 0.49184 1.0424 1.19199
6.27365 13.0865 21.2886 0.399014 0.261098 1.21273
5.16914 15.8914 21.6265 -0.0679837 -1.66543 -0.619633
7.16606 14.7961 23.6301 -0.842794 -1.05245 -1.52943
11.6464 15.1576 21.6586 -0.929492 0.488279 0.479298
8.96003 14.122 21.4736 -0.556716 -3.0096 -0.404961
10.957 13.0267 23.4772 0.268087 1.46632 0.494445
11.354 12.5265 20.5118 -0.332338 0.322614 -0.61057
9.85244 15.8317 23.8151 -2.01696 0.143925 -0.469559
14.3328 16.1931 21.8436 -0.995509 -0.818057 1.4995
16.3297 15.0978 23.8472 -0.740963 -0.583278 0.324017
13.6433 14.0622 23.6622 0.105869 0.988925 -0.722568
14.0404 13.562 20.6968 4.48864 -0.965296 0.528949
19.0161 16.1333 24.0322 0.905677 0.530358 -0.859746
19.4131 15.6331 21.0668 0.0167438 0.906783 -0.800177
18.7237 13.5023 22.8854 -0.12077 -0.870425 0.240669
16.7268 14.5976 20.8818 -0.97542 -0.311316 0.898707
21.7851 16.3567 22.8138 -0.508488 0.457958 -1.87154
24.2617 13.949 20.4485 0.0400646 -0.282894 2.136
23.8647 14.4492 23.414 -1.13809 -0.0974341 0.692751
21.4927 13.7256 21.6669 -2.07745 1.43673 -0.154135
26.6337 14.6726 22.1955 0.248896 -1.3008 0.837324
25.9442 12.5418 24.0142 -0.0323783 -0.377358 -0.54085
28.7132 12.7651 22.7957 -2.50708 0.555922 0.888501
29.32 15.7081 22.3805 0.70684 -0.846814 -0.562467
31.3996 13.8007 22.9807 0.772222 -1.82983 0.335673
34.086 14.8362 23.1657 -0.203784 1.06046 -1.36864
33.8004 16.0696 20.409 -1.79769 0.587078 0.665196
33.1936 13.1265 20.8242 1.28093 0.758008 0.293385
7.85551 16.927 21.8115 -1.06272 -0.657022 0.140059
6.06154 17.6011 23.968 -0.200127 -1.06277 0.601823
5.77595 18.8344 21.2113 -0.437301 1.38946 0.394862
10.5419 17.9625 21.9965 0.49639 -0.0468286 0.320184
11.4343 19.6722 24.338 -0.426018 -2.23945 -0.842471
8.74793 18.6366 24.153 0.929249 0.540301 1.75039
8.46234 19.87 21.3963 1.82648 1.14868 -1.17873
15.9147 20.0336 22.3665 -1.25724 -0.516117 -1.88932
13.2283 18.998 22.1815 -1.44934 -1.28367 0.233659
15.2252 17.9027 24.1851 1.34192 2.01107 -0.402691
12.5388 16.8672 24.0001 -1.43658 -0.48125 0.867154
19.7055 18.2642 22.2136 -1.29411 1.23096 0.97978
17.0192 17.2286 22.0286 -0.699387 -0.036693 -1.75499
22.4746 18.4875 20.9952 -1.37569 -0.326941 0.573904
23.6261 18.6228 23.6369 -0.141131 0.248968 1.71379
24.5541 16.5801 21.5954 -0.584066 0.0277805 -0.102159
25.1609 19.5231 21.1802 -1.15195 0.375993 0.5824
27.2405 17.6156 21.7804 -0.303116 -1.05014 0.900942
25.7057 16.7153 24.2371 -0.206829 1.41866 1.16818
26.3125 19.6583 23.8219 0.689351 -0.47626 1.83066
29.9269 18.6511 21.9654 0.185182 0.225414 0.78241
32.0064 16.7437 22.5655 2.14813 1.05415 1.50888
32.6132 19.6867 22.1504 -0.923663 0.345529 0.0485457
34.6928 17.7792 22.7505 -1.04326 0.773109 0.486614
6.38278 21.7774 20.7961 -2.44466 -0.376874 0.348227
6.66837 20.5441 23.5528 0.362615 -1.07085 -2.0349
7.27519 23.4871 23.1376 0.525355 1.38885 0.692621
11.1487 20.9055 21.5813 -1.13837 1.02817 1.68745
11.7555 23.8485 21.1661 0.760126 1.10969 0.0380778
12.0411 22.6152 23.9228 -1.59479 0.467042 0.564067
9.06916 22.813 20.9811 -0.664098 1.49921 0.748508
9.35474 21.5796 23.7378 -0.752479 -0.802509 0.53639
14.7275 23.6507 24.1078 -0.939925 0.0633625 1.37307
13.8351 21.9411 21.7663 -0.0145687 -1.63432 -0.247695
18.601 21.0691 22.5515 0.806995 0.0310078 0.638679
18.8934 23.7002 23.6983 1.7283 -0.631082 0.0675925
16.5215 22.9766 21.9513 0.357058 -1.85967 0.233939
20.395 20.395 20.395 1.13933 0.480838 1.0464
23.0814 21.4305 20.58 0.954417 0.232678 0.0243442
20.6874 23.026 21.5419 1.89071 -0.716745 -0.269674
21.5465 20.5302 23.0368 1.1072 1.06913 0.415465
23.3738 24.0616 21.7269 0.099017 0.330351 1.28851
24.2329 21.5658 23.2218 -2.15082 -0.358095 -0.27466
21.839 23.1613 24.1836 -1.8133 0.412918 -0.178597
25.7678 22.4661 20.765 0.13746 -0.171649 1.24681
28.4541 23.5016 20.95 0.621086 0.191567 1.8672
26.9193 22.6013 23.4068 0.878989 1.48588 0.0214641
27.8473 20.5586 21.3652 0.109821 -0.390348 -0.4061
29.6057 23.6369 23.5918 0.477986 0.91931 0.29301
30.5337 21.5941 21.5502 -2.12513 0.875607 0.623027
28.9989 20.6938 24.0069 -0.673096 2.24348 -0.443518
31.6852 21.7294 24.1919 -1.19239 -0.085072 -0.272027
33.2201 22.6297 21.7352 0.0714029 -1.81592 -0.85849
35.9064 23.6652 21.9202 1.27732 0.320953 -0.0490458
35.2996 20.7222 22.3354 -0.898138 -0.616282 -1.46915
7.88202 26.4301 22.7224 1.26749 0.506716 -0.368319
10.5684 27.4656 22.9074 1.59443 0.560649 -0.375352
9.67599 25.756 20.566 -1.87403 -1.59445 -1.24463
9.96157 24.5226 23.3226 -0.470773 -1.48627 -0.639106
14.4419 24.8841 21.3511 1.41124 -1.19367 -2.12171
12.3624 26.7915 20.751 1.4009 0.132669 -0.0745692