ITEM: TIMESTEP
0
ITEM: NUMBER OF ATOMS
92
ITEM: BOX BOUNDS ss ss ss
1.4357365791207865e+01 2.6260535006020969e+01
1.2758278697675259e+01 2.7604084797625994e+01
1.5680265582202509e+01 2.5361081389519025e+01
ITEM: ATOMS x y z vx vy vz
17.6524 14.4082 19.0677 0.580252 -0.940388 1.65931
16.5349 16.9789 18.9215 -1.65763 -0.456595 -0.82039
21.4825 17.2835 18.1553 -0.157821 0.591103 0.0868979
18.8703 16.3115 17.4025 0.670471 0.060417 0.485815
19.5702 12.7624 20.1518 2.32485 -1.21608 -0.816359
21.2013 15.6441 16.0035 -1.4655 0.595163 0.409234
20.2089 15.4192 19.8514 -0.457286 -0.514842 -0.128503
19.9996 13.8064 17.6562 3.55799 -0.727938 0.243406
22.5107 14.6875 18.3381 0.96517 0.408982 0.878727
23.895 15.5253 16.1394 -0.194975 0.876612 -1.07871
24.2922 16.9787 18.367 0.839523 -0.0254764 0.909883
15.4677 19.5684 18.8731 -1.84747 1.56482 0.385456
16.7101 21.5237 17.2128 -2.98244 -1.79459 -0.336923
15.6673 22.2612 19.7331 0.257185 0.924069 -1.1458
17.9605 20.5799 19.5465 0.229145 1.33459 0.53738
17.7559 18.9176 17.267 -0.985366 -0.0814621 1.81208
19.032 20.8738 15.7006 0.880089 -0.14505 -0.152559
22.062 22.1956 18.011 -1.07776 1.01736 -0.998884
21.8307 20.5821 15.698 2.21308 -0.330029 0.539836
19.2309 22.5264 17.9434 0.986774 0.567471 -0.964524
19.0923 17.9995 19.6497 -1.65667 -0.699056 -2.39966
20.5301 21.5397 20.36 -0.484265 -1.38217 -0.0446982
20.095 18.2527 15.8184 -1.36572 0.446821 0.449764
20.3409 19.9051 18.0098 -0.368891 -0.894044 -0.313238
21.694 18.9171 20.4734 -1.31562 -0.578506 -1.63122
23.189 19.5733 18.1201 -0.24431 1.6632 -1.69458
22.8521 17.987 15.7864 -0.11789 -0.55217 0.432698
24.9372 21.9028 18.0875 -0.819126 2.09024 -2.55435
25.5193 17.7172 16.0891 -0.0489195 0.214557 1.21934
24.5978 20.2492 15.8737 -2.36747 -0.489172 -0.39802
25.9169 19.315 18.241 0.276307 -2.21295 0.159167
23.3744 21.2355 20.4493 -0.788895 -0.237494 -1.93844
26.0859 21.0193 20.481 1.32832 0.324184 1.33239
17.9938 23.4321 15.6861 1.1968 -0.0457635 0.905524
16.9777 24.1861 18.1433 -1.19179 -0.534154 -1.23953
18.2244 23.2764 20.5023 0.134053 -0.434482 -0.489083
20.7521 24.2979 19.5403 0.973473 2.08414 -0.248074
20.7458 23.1578 15.6843 1.09628 -1.54722 -1.80801
19.4678 25.2127 17.1935 0.743497 0.238822 2.00277
21.013 26.9121 18.8406 0.415479 -1.45774 0.939201
22.2676 24.9459 17.2187 0.846707 -0.745043 2.59604
18.4605 26.0018 19.6921 -1.14451 -0.268306 2.37817
23.5512 22.8373 15.8337 0.154059 -0.24803 1.29328
23.5425 23.9397 19.6609 -2.06306 -0.477743 -2.03827
23.7731 26.5515 18.8832 0.216408 -0.335201 -0.255454
24.9973 24.5812 17.4364 0.386519 -0.769939 -0.0959919
26.2565 23.6808 19.746 0.780901 -0.768516 1.9394
14.3614 17.6369 20.5483 -1.6341 -0.253733 0.421115
15.5617 16.7183 22.8598 -0.682445 0.339876 2.07008
17.8992 16.0745 21.3606 1.50101 0.0595283 -1.09662
17.5161 14.9917 23.8309 -1.59526 -0.65722 -2.25066
15.4354 15.1272 20.6451 0.0619632 1.01723 1.20596
18.0043 17.7066 23.7483 0.163962 -0.286072 0.819898
17.3316 13.3963 21.6062 0.811174 -0.160088 -0.0148092
22.034 13.6942 20.917 0.721487 -0.907561 0.994042
19.8197 14.2284 22.484 0.848587 0.461646 1.01594
19.9949 15.9368 24.6689 -1.9425 -0.0841232 -1.2436
20.4501 17.042 22.1953 0.264779 0.638275 0.346981
22.8205 16.3189 20.6391 0.812895 0.0766443 -0.18124
22.2992 15.272 23.1914 0.287181 0.333746 -1.27573
22.4259 16.9874 25.2865 -2.01123 -1.51991 1.15744
17.0246 21.3186 22.1434 1.19779 -0.587134 -1.21839
18.2583 20.4072 24.6079 -0.614957 0.351209 -2.11748
15.7666 19.4065 23.7259 -1.11295 -0.0556285 0.994501
14.5345 20.2945 21.3929 1.85517 -0.440869 -0.43378
16.0596 22.0284 24.5921 0.702659 0.180842 -1.38344
16.7709 18.6349 21.2416 -0.488115 -0.0139564 0.838151
20.5341 18.7245 24.5044 0.361766 -0.167416 -0.460516
20.8432 21.4164 25.2795 1.80248 -0.921673 0.0173031
19.5551 22.308 22.9509 0.111689 -0.382634 -0.377207
19.2963 19.5992 22.0498 0.224557 1.24014 0.705532
21.8429 20.581 22.7856 0.648048 -1.13372 1.04521
24.5376 18.6812 20.5726 1.13928 -0.643247 0.281382
24.6301 20.3696 22.8326 -0.219345 -0.0261632 1.73212
23.0478 18.0139 22.88 1.04583 1.4736 -2.05603
23.3253 22.3821 24.3298 0.658043 2.23834 -3.06543
23.0727 19.695 25.0922 -0.415641 -0.847419 -1.64981
16.048 24.889 20.7207 1.25997 1.17813 0.454793
17.6079 26.6273 22.237 -0.498807 -0.0190982 -0.0698837
14.8305 22.9172 22.2675 -1.63136 1.04152 1.55273
17.2076 24.0492 23.1156 -0.272609 -0.762446 -1.46566
18.8617 25.7309 24.5551 2.1072 -0.924293 -0.242531
21.256 26.6973 23.6533 1.68947 0.36388 0.675298
18.5514 23.0922 25.357 -1.37858 1.14756 1.02041
19.793 24.9858 22.1017 -0.0616307 -0.716413 -0.601136
22.0766 23.3163 21.9942 -1.88114 1.94988 0.443141
19.9988 27.6 21.3371 1.0982 1.49134 0.0948577
21.0959 24.1008 24.5638 -0.169309 1.29543 1.22686
25.0288 25.6471 21.1978 -1.84493 0.176031 -0.138379
24.9097 23.0395 22.0812 0.532795 0.358752 1.71539
22.3164 26.1143 21.1802 -0.452337 1.39465 -0.45843
23.5206 25.0802 23.4747 -0.25066 -1.38981 0.967162
ITEM: TIMESTEP
1000
ITEM: NUMBER OF ATOMS
92
ITEM: BOX BOUNDS ss ss ss
1.4357365791207865e+01 2.6260535006020969e+01
1.2758278697675259e+01 2.7604084797625994e+01
1.5680265582202509e+01 2.5361081389519025e+01
ITEM: ATOMS x y z vx vy vz
17.7877 14.7228 19.2007 0.0566147 0.880985 0.649384
16.7517 17.1938 18.9566 0.12855 0.779842 1.00009
21.592 17.1031 17.9721 -0.22366 -0.389735 -0.0440534
19.0147 16.6942 17.4606 -1.34546 2.24985 0.12566
19.6073 13.0624 20.122 -0.353151 0.109519 0.777558
21.0169 15.708 15.8158 -0.51847 -1.02154 0.321739
20.3508 15.7079 20.0685 -0.000533377 0.306954 -0.143995
20.191 14.1274 17.83 -0.053277 0.731711 0.755158
22.6565 14.6185 18.4716 1.34788 0.464619 -0.0170511
23.6048 15.9331 16.3015 1.20114 0.49301 0.0454158
24.3125 17.0891 18.5923 0.145543 0.416407 0.830159
15.3415 19.573 18.7087 0.102173 0.671593 0.321312
16.6032 21.5464 17.1985 -1.80972 -0.764628 0.217078
15.6446 22.1224 19.7847 0.968312 -0.726601 0.370468
17.9744 20.6314 19.5301 -1.60808 0.800128 -0.83118
17.7816 19.0975 17.2041 -0.390255 1.01224 -0.567637
19.0275 20.9254 15.4987 -0.206933 -0.00784333 0.145813
22.0313 22.0941 17.9634 -0.103378 0.536768 1.26119
21.7902 20.7687 15.4607 0.261221 -1.43756 0.630868
19.2814 22.3306 17.7782 -1.58349 -0.0713196 -0.871755
19.1562 18.1537 19.8503 0.209113 0.394569 -0.925708
20.4869 21.2883 20.3557 -1.45672 -0.407061 -0.407714
20.1976 18.3787 15.6655 -0.957909 -0.671112 -1.01772
20.4509 19.7564 17.8314 0.482016 1.41218 -0.396897
21.9698 18.5682 20.2715 1.33658 -0.0511491 -0.613761
23.2711 19.6492 17.912 -0.647176 -0.439102 1.3514
22.7922 18.1687 15.58 0.290099 -0.14179 -0.830746
24.9809 21.8561 18.0834 0.763439 -1.48914 -0.171791
25.2486 18.1335 16.3181 1.20111 0.19095 0.267296
24.4678 20.4468 15.6048 1.10201 -0.209762 -0.252937
26.0398 19.4483 18.4365 -0.685989 0.704841 -1.09558
23.4273 21.0587 20.2906 1.61688 2.13696 0.275355
26.0936 21.2494 20.5242 -0.799817 -0.546209 -0.461124
18.0177 23.4212 15.6208 1.78349 -0.276629 1.31861
16.9363 24.08 18.3146 1.30473 0.0468971 -0.250406
18.2401 23.2535 20.4294 0.658899 -0.416572 0.166419
20.6642 24.1275 19.5453 -0.165269 -1.96085 2.20277
20.7351 23.2393 15.7361 0.777398 -0.140426 0.131293
19.421 25.1462 17.1599 0.484623 0.17036 -1.02374
21.0603 26.7126 18.8096 -0.335762 0.577428 0.526779
22.2702 24.9247 17.2068 0.17119 -0.387981 -0.164842
18.5355 25.9812 19.7866 -0.524768 0.389817 1.04652
23.5511 22.8936 15.731 1.7775 -0.725259 -0.619271
23.4854 23.8095 19.6247 -0.953149 -0.60931 -0.598479
23.8945 26.4076 18.9213 -0.134816 -0.0540507 0.221928
25.064 24.5472 17.2689 1.75501 -0.769173 -0.587213
26.1477 23.6738 19.6092 1.26842 0.305202 -1.00653
14.2702 17.5826 20.3885 -1.45874 -0.214974 0.162153
15.2668 16.8244 22.997 0.35134 0.388476 0.144417
18.2249 16.4554 21.7715 -0.347058 1.31875 -0.703803
17.1674 15.0566 23.7284 0.416937 -0.590508 -0.755738
15.8743 15.5373 20.8235 0.34204 0.327188 -0.38455
17.6569 17.7464 24.154 0.014334 -1.89263 0.501353
17.5116 13.6447 21.6886 0.672459 1.79632 0.175334
21.9713 13.5971 20.8117 0.246071 0.356149 0.688989
19.9784 14.341 22.6235 -0.11072 0.295811 0.591935
19.659 16.0469 24.6343 -0.525829 -0.341403 -0.550508
20.7373 17.3545 22.4627 0.607984 -0.423378 -0.550748
23.0617 16.049 20.8001 -0.601236 0.618606 -0.22431
22.2074 15.1748 23.1966 -0.206132 -1.05675 0.875567
22.2419 16.9834 25.0854 1.55572 -0.476528 0.465948
16.954 21.3892 22.1491 0.0163379 -0.196856 -0.532661
18.0438 20.5311 24.8724 -0.475539 -0.167904 -0.724588
15.7874 19.5006 23.6832 -0.562949 -0.622939 1.07734
14.443 20.064 21.3174 0.630384 -0.677591 0.325792
16.0471 22.0634 24.629 0.281507 0.60191 1.28587
16.6526 18.578 21.2885 -0.666411 0.775851 0.12382
20.3521 18.7238 24.8531 -0.276098 -0.316416 1.36685
20.7764 21.2812 25.1847 1.36862 0.677622 -1.46232
19.5216 22.2883 22.8626 0.0138166 1.0876 0.929713
19.0398 19.4514 22.5256 -0.128072 -0.323396 -2.16342
21.7779 20.0848 22.7156 -0.448229 0.753302 -0.635566
24.9384 18.6451 20.6287 -0.712467 0.155621 -0.876206
24.6072 20.2302 22.6507 -1.29479 0.349911 1.42475
23.5173 17.7454 22.7631 0.446255 -0.0216464 -0.325261
23.2665 22.2813 24.4691 0.348005 0.78532 0.0751627
23.1483 19.5227 24.9063 -0.60887 -0.294392 -0.0833236
15.9553 24.6794 20.7859 -1.91298 -0.351419 -0.400127
17.5859 26.4629 22.1881 0.586015 -0.482004 -0.49831
14.7668 22.8077 22.271 -1.14834 0.764527 -0.17542
17.0922 24.0465 23.0908 -0.487837 -1.30314 0.521538
18.9627 25.7332 24.3855 1.2049 -0.172939 -0.662151
21.2113 26.5989 23.5535 -1.63177 0.819478 0.394953
18.5354 23.1632 25.1819 0.620371 -0.39062 1.07416
19.8403 24.8937 22.0313 -0.714314 -1.24524 -0.821913
22.0198 23.0914 22.0149 -0.856321 0.139092 -3.31485
20.1343 27.4923 21.2921 0.0185551 -0.918022 1.63453
21.0821 23.9534 24.58 0.213112 -0.918326 -1.33786
24.9383 25.392 21.1728 -0.660608 0.662938 1.05352
24.7756 22.8395 22.0987 -0.00821483 -0.703653 -0.107044
22.3774 26.1279 21.1746 -0.536234 -0.297994 0.664404
23.3926 24.8597 23.4471 0.0888542 -0.341825 -0.327576
ITEM: TIMESTEP
2000
ITEM: NUMBER OF ATOMS
92
ITEM: BOX BOUNDS ss ss ss
1.4357365791207865e+01 2.6260535006020969e+01
1.2758278697675259e+01 2.7604084797625994e+01
1.5680265582202509e+01 2.5361081389519025e+01
ITEM: ATOMS x y z vx vy vz
18.3579 14.8113 19.1123 -0.730157 -0.507595 0.24877
16.4925 16.994 18.8494 0.67003 -0.919115 0.80085
21.4317 17.1417 17.8707 -0.0757381 0.428536 -0.137125
18.7053 16.4562 17.0157 -0.77536 0.072264 0.315465
20.2507 13.0301 19.7622 1.05275 -0.312062 0.0594107
21.0021 16.0924 15.3536 -0.956094 -0.197527 -0.270365
20.7923 15.6888 20.1935 0.956223 1.32689 -0.401137
20.5727 14.5281 17.4861 -1.1297 -0.0299677 0.690875
22.6705 14.5698 18.8437 -0.794205 -0.0260233 0.38961
23.275 15.6353 16.4334 -1.49384 -0.0653265 0.707947
24.1214 16.942 18.584 -1.29225 0.595079 0.503343
15.5273 19.4749 18.944 0.167185 -0.788538 -1.17631
16.589 21.4185 17.2422 -1.28923 -0.66955 0.321395
15.6573 22.1336 19.6336 0.234558 1.24153 0.441516
17.8805 20.4551 19.5659 0.970952 -1.11148 -0.727484
17.7165 18.9143 17.1959 0.810619 0.316202 -0.201298
18.8931 20.981 15.7424 -0.661705 1.68134 -0.116502
21.9511 22.1265 17.9989 1.20982 -0.488662 -0.863917
21.8196 20.5475 15.448 0.476866 -0.428741 0.0129945
19.1822 22.5562 17.9969 -0.167697 1.89496 0.194332
19.1046 17.7155 19.3891 0.147082 1.27748 -0.123642
20.4999 21.4172 20.3102 -0.659614 -0.150976 0.417026
19.9383 18.4005 15.5958 -0.711608 0.42797 0.842096
20.2637 19.8245 17.952 -0.740069 0.658747 -0.498642
21.7237 18.5375 20.3036 1.12632 -1.37496 -0.317744
23.1064 19.4595 17.9264 -0.557233 -1.31375 -0.453791
22.6863 18.1066 15.4347 -0.703926 0.323377 0.297563
24.8033 21.7378 18.0489 -0.377841 -0.438161 0.678224
24.9519 17.9555 16.3044 -0.755469 0.634049 -0.222715
24.6692 20.3678 15.8025 -0.697062 -0.0311283 -0.108397
25.8431 19.3988 18.339 -0.761806 -1.6116 -0.0522116
23.4245 21.0345 20.3345 0.139524 0.492333 -1.39144
26.1189 21.0174 20.5326 -0.976058 0.37787 0.0326718
17.9261 23.4238 15.7413 1.01689 1.27014 0.892365
17.0354 24.1649 18.1797 -1.23574 1.67022 -0.671636
18.1182 23.1758 20.4748 -0.425543 -1.48679 -0.317755
20.6931 24.2552 19.4721 -1.3835 1.12254 -1.23415
20.6872 23.0827 15.7299 -1.97368 0.723957 0.0947486
19.4389 25.2762 17.1719 1.65754 0.0766572 1.56152
20.993 26.8828 18.8601 0.460229 -0.360495 0.623578
22.1382 24.9294 17.1863 -1.27812 -1.77941 0.41248
18.6419 26.0157 19.7737 1.10276 -1.07034 -1.43563
23.3602 22.7848 15.9162 1.17437 -1.08448 -0.377686
23.4206 23.7245 19.7371 -0.77068 -1.48911 2.28499
23.5897 26.3044 18.9953 2.09161 1.38057 0.439797
24.7263 24.281 17.4871 -0.371956 0.589091 0.178637
26.1041 23.4302 19.7646 0.994061 -0.00299042 -0.0609465
14.2592 17.6069 20.4063 -0.132541 -1.38602 -2.13178
15.3646 17.0554 22.9958 1.82099 0.384392 -1.49847
18.5324 16.442 21.7002 0.74642 -0.203314 -0.041438
17.1074 15.0877 23.5811 0.912061 -0.00793269 -0.0880912
16.1029 15.6411 20.9136 1.60248 -0.733353 0.14367
17.6227 17.807 24.0622 -0.234291 -1.09156 -0.991256
17.7063 13.6536 21.4458 0.430815 -0.590247 0.29824
22.308 13.5299 21.2326 1.3568 -1.17445 -0.0563365
19.9532 14.18 22.5292 0.190264 0.384957 -1.19496
19.5848 16.0516 24.3831 -1.12416 -0.323929 -0.485808
21.0375 17.3593 22.5712 -0.685818 0.360475 0.480704
23.3452 16.2449 21.0654 0.484694 0.806462 1.70458
22.299 15.1025 23.2597 -1.02568 -0.369833 1.9448
22.0735 16.9406 25.14 0.881144 -1.15197 0.0743166
17.0613 21.2953 22.1745 0.0158646 -0.151109 0.88599
18.0729 20.4463 24.6168 0.17874 -0.49486 -0.55763
15.5449 19.661 23.6675 0.221664 -0.695746 0.142079
14.4694 20.2515 21.2815 0.810223 -0.22564 -1.11087
16.0614 22.2553 24.5337 -0.068923 0.0214761 0.944548
16.631 18.5962 21.3279 -0.083557 1.20604 1.2058
20.2684 18.7925 24.8361 0.096645 0.364211 0.184836
20.712 21.3887 24.9974 -1.16446 -0.84243 -0.100048
19.4773 22.2483 22.9229 -0.742696 0.498403 -1.22391
19.171 19.3876 22.1055 -0.131513 -0.235656 -0.935174
21.9062 20.2532 22.5519 -0.177238 0.56862 -0.743844
24.5586 18.4361 20.6698 -0.607177 1.29243 1.09815
24.532 20.2533 22.7981 0.217267 0.0295895 -0.386861
23.5754 17.8118 23.2802 0.686265 0.608312 2.3497
23.2469 22.1784 24.2651 -0.551083 -0.241506 -1.26428
22.9161 19.6479 25.0709 0.233816 -0.0802267 0.831996
16.1646 24.9945 20.6196 1.67151 -0.203502 0.117167
17.7666 26.4642 22.2288 -1.82549 0.408046 1.59721
15.0829 22.9152 22.1229 1.46383 -0.172628 0.283754
17.2834 24.0607 23.1895 0.618687 -0.288503 -0.514877
18.9689 25.7509 24.6788 -0.0287591 0.411161 -1.00493
21.2042 26.6913 23.5993 -0.766762 0.370852 -0.342885
18.6526 23.2829 25.4259 0.45002 1.53256 0.476062
19.8947 24.954 22.2029 -0.126138 -0.571456 -1.02415
22.013 23.1541 22.0272 2.18791 -0.44366 0.233397
20.067 27.5435 21.357 0.17681 0.279345 0.101476
21.2792 24.2159 24.5311 -0.825964 -0.593842 -0.358697
24.9635 25.4663 21.0734 0.261264 0.394463 -0.201112
24.7927 22.9521 22.219 -1.15448 -0.489881 -0.887749
22.3324 26.0931 21.2214 0.431708 1.46353 0.33162
23.4775 24.9934 23.4211 0.595335 0.534882 -0.566621
ITEM: TIMESTEP
3000
ITEM: NUMBER OF ATOMS
92
ITEM: BOX BOUNDS ss ss ss
1.4602901234719518e+01 2.6173012690970147e+01
1.3211576244522995e+01 2.7474848865112801e+01
1.5297843671233064e+01 2.5436382503564793e+01
ITEM: ATOMS x y z vx vy vz
18.4243 15.1817 19.0753 -1.04959 0.541015 0.613629
16.3462 17.1239 18.6965 0.577992 -1.03043 1.04821
14.4026 17.6225 20.4595 -0.540368 0.742074 -0.45811
21.063 17.1841 17.6183 -0.168868 -0.188751 0.0030032
18.5484 16.5715 16.7547 -0.142091 -0.379165 1.39033
20.3705 13.3658 19.9591 0.446584 0.495266 0.156428
20.7615 16.0311 15.1756 -0.740459 0.395145 -0.0869351
20.9218 15.9595 20.2023 -1.53936 0.565248 0.042542
20.5384 14.5153 17.514 0.404344 -0.0674674 -1.36379
22.7485 14.3712 19.0034 0.655044 -0.408043 0.0837536
23.067 15.6543 16.5375 1.07149 -0.890918 0.168784
23.559 16.9855 18.8599 0.536857 0.618219 -1.02423
24.9568 17.5675 16.4158 1.33379 -0.195956 0.362893
15.4241 19.6207 18.7035 -0.0564448 0.608863 -0.498952
16.5487 21.7167 17.1728 0.457318 -0.727868 -0.711025
15.5827 22.2392 19.7589 -1.08012 0.27574 -0.900548
17.9291 20.6485 19.1465 1.02913 1.75135 0.865659
17.5598 19.0603 16.9081 0.347402 -0.391798 1.11869
18.7239 21.2524 15.5176 -0.356018 0.17686 0.242707
22.0404 22.18 17.9642 0.0334087 -0.15638 -0.583133
21.6109 20.8356 15.5024 0.927049 -1.58466 -0.202001
19.2019 22.5324 17.7824 -0.70909 -1.09096 -0.472345
18.8767 18.0561 19.1138 -0.146212 0.0913568 -0.140925
20.4247 21.2177 20.1044 -0.184917 -1.07756 1.56722
19.905 18.5503 15.3749 0.625418 -1.33837 0.648462
20.157 19.9537 17.4993 0.538787 1.49724 1.33411
21.5124 18.6867 20.2194 0.465046 0.317147 -0.673607
22.9198 19.4627 17.8922 0.679788 1.55341 -0.186154
22.5991 18.097 15.4817 0.590475 0.446698 -0.121903
24.7925 21.7293 17.9847 -0.141367 -0.000400671 -2.02783
24.2279 20.286 15.8619 -0.131404 -0.00355262 -0.529355
25.3737 19.1229 18.6336 0.170546 0.405211 0.670218
17.8649 23.7351 15.6533 1.5773 -2.43363 1.14115
16.9245 24.0802 18.2606 -0.211721 -1.14057 0.755716
18.5208 25.772 19.7409 -1.45616 0.0154538 1.61668
20.8136 24.0749 19.7349 0.360255 -2.28212 -0.551194
20.6639 23.3312 15.5133 -0.0754835 0.70043 -0.737874
19.4707 25.2507 17.1361 -0.313533 -0.131426 -1.10555
20.9876 26.653 18.8772 -0.231725 1.85827 -0.44877
22.3025 24.8337 17.2471 1.62248 1.29127 -0.164108
23.4251 22.8845 15.7324 0.215417 0.0914994 -0.485052
23.4453 23.8981 19.7472 -0.26865 -1.05988 0.29
23.775 26.3811 18.9215 -0.766529 1.10656 -0.934428
24.9302 24.3791 17.5971 -1.47471 -0.749573 0.406364
26.1295 23.4507 19.8081 1.02508 -0.037365 0.174205
15.5427 16.9284 22.9303 -0.346189 -1.50743 1.39734
17.5584 15.202 23.6923 -0.070332 0.887449 -0.993415
16.2506 15.706 20.8185 0.25856 -1.21352 0.712494
17.6789 18.0013 23.9039 -0.0583918 -0.553395 -0.38084
18.0462 13.8867 21.3447 -0.627267 -2.43913 1.39044
18.7158 16.6793 21.6274 -0.797898 -0.296506 -1.17254
20.2425 14.665 22.5479 0.732661 -0.632106 -0.851892
19.8496 16.2621 24.5974 -1.65747 0.230244 0.122723
21.4037 17.4576 22.675 2.32725 0.328471 -0.533002
22.3542 15.2436 23.8917 0.515939 0.808472 -2.37475
22.2349 17.231 25.5829 -2.14835 0.127239 -0.574695
22.3544 13.4473 21.5519 -1.03343 0.0559242 -0.931799
23.2826 15.9195 21.4663 -0.940507 -0.466647 -0.868828
24.0058 17.5634 23.5994 0.0140916 -1.22612 0.074712
17.1519 21.0855 22.0813 -0.0856641 0.335814 0.637439
18.0169 20.5158 24.7259 -0.68074 0.692946 0.100147
15.4287 19.3776 23.6307 1.32745 1.11208 -0.287034
14.5453 20.2186 21.2513 -0.00958119 -0.230147 -0.413145
15.801 22.0623 24.4257 -1.08848 0.80768 0.0214135
16.734 18.6315 21.1151 0.794589 0.779494 -1.15757
20.3007 18.889 24.684 1.48825 1.32276 0.0960908
20.8237 21.4216 25.187 0.0548919 -0.19067 -0.0149747
19.7044 21.9455 22.9746 0.016127 -0.483222 0.278093
19.2836 19.383 21.8606 0.276488 -0.651937 0.331577
21.9455 20.1342 22.7836 0.126899 -0.563087 1.08365
23.2733 21.0717 20.3202 -1.09791 -0.373995 -0.154335
25.981 20.8297 20.6425 0.696369 -0.522814 -0.039078
24.1265 18.6183 21.0342 -0.680877 -1.20942 -0.0458959
24.6575 20.276 23.0163 -0.136273 -0.835774 0.110453
23.4323 22.2491 24.4043 -0.682992 -0.783274 1.37272
23.1806 19.5548 25.1958 2.14566 -0.604722 -0.602784
18.2914 23.1366 20.4892 -0.43766 0.817958 -0.787466
16.0759 24.7063 20.7799 -0.503051 1.60129 0.791854
17.6559 26.2944 22.2077 0.326949 1.94151 1.33996
15.0013 22.887 22.1943 -0.217536 -0.246525 -0.176191
17.423 23.6627 23.1701 -0.126823 0.514797 1.39253
18.8529 25.5344 24.4573 -1.04468 0.294641 -0.502657
21.1348 26.4526 23.6013 -0.808385 0.756868 -0.571748
18.7145 22.9251 25.3683 1.01367 0.633326 -0.166432
19.8268 24.7775 22.0728 0.508357 0.979811 -0.464025
22.0224 22.9073 22.0562 -0.867277 1.28715 0.734056
19.9872 27.3182 21.239 -0.0287822 0.825314 1.12537
21.0998 24.0216 24.5312 -0.16106 -0.342305 -0.0903409
25.0794 25.6226 21.162 0.0425646 -0.454205 0.223212
24.9435 22.7946 21.974 0.0474813 0.505457 1.70381
22.3968 25.9834 21.2053 -0.413513 -0.687533 -1.0133
23.5551 24.7516 23.4047 0.130684 0.690335 -0.164302
ITEM: TIMESTEP
4000
ITEM: NUMBER OF ATOMS
92
ITEM: BOX BOUNDS ss ss ss
1.4602901234719518e+01 2.6173012690970147e+01
1.3211576244522995e+01 2.7474848865112801e+01
1.5297843671233064e+01 2.5436382503564793e+01
ITEM: ATOMS x y z vx vy vz
18.3225 15.0939 19.1338 -1.04119 0.306546 -1.38144
16.4821 17.186 18.6256 -0.0399945 -0.266714 -0.127553
14.3989 17.5725 20.2312 0.49069 -0.908563 0.310838
21.1689 17.2628 17.8191 -1.02534 0.774324 1.01389
18.5774 16.4182 16.9218 -0.572469 0.700753 -1.22516
20.3215 13.3142 19.8136 -0.121987 -0.23242 1.30674
20.89 16.066 15.3407 -0.274642 0.219569 1.77312
20.9736 15.8011 20.1749 -0.991566 -0.392379 -0.887874
20.6402 14.601 17.4851 -0.17839 0.893322 0.236669
22.899 14.3045 18.9817 -1.84393 0.0403981 0.228236
23.1051 15.5025 16.6153 0.466588 0.771166 0.473198
23.7494 16.9612 18.6471 -0.000991726 0.532911 -0.745587
24.81 17.5811 16.3124 0.0706955 0.836524 0.579837
15.3663 19.6849 18.9134 -1.10992 0.771542 -1.43232
16.4495 21.6822 17.2317 -0.939424 -0.333637 0.0402774
15.4646 22.1861 19.7412 0.526242 -1.82563 -0.477132
17.873 20.4877 19.5867 -1.32585 -0.411569 0.756824
17.5844 19.0198 17.1468 1.10446 1.29481 -0.569359
18.9051 21.0752 15.5187 1.61924 -1.02409 1.41791
21.9978 22.2765 17.8627 1.42147 0.082127 -1.13674
21.774 20.7818 15.4926 0.0456975 0.941842 0.215224
19.1722 22.4884 17.7502 -0.141261 -0.87397 -1.29909
18.9603 17.9176 19.4117 0.841796 -0.123961 0.20734
20.465 21.324 20.1245 -0.477314 0.51235 1.21177
19.8581 18.444 15.3961 0.501345 1.04298 -0.488597
20.2022 19.8813 17.7144 -2.08737 -0.627451 -0.772827
21.6617 18.6338 20.5102 0.0106671 -0.10948 0.599537
22.8745 19.5784 18.1205 0.204167 -0.548666 -0.599669
22.5017 18.1561 15.5356 -1.04819 0.689379 -1.35161
24.8517 21.8177 18.0054 0.00894104 -1.64204 0.418153
24.4035 20.1575 15.8912 0.423389 1.66703 0.966874
25.5123 19.2428 18.2211 1.39077 0.261567 -0.253648
17.9047 23.5219 15.7117 0.803743 -0.654032 -0.19147
16.9641 24.228 18.2856 0.269434 -0.11581 -0.619492
18.5717 25.856 19.7867 0.32696 -0.86936 -1.24585
20.7756 24.082 19.3304 2.2411 1.88689 -0.191254
20.7545 23.2647 15.6451 -1.37616 0.17316 -0.603351
19.453 25.2799 17.3674 1.02529 0.7666 -1.43629
21.089 26.8622 18.9087 -1.48711 -1.63084 0.614653
22.2715 25.0423 17.2498 -0.0611263 -0.334234 0.556132
23.4702 22.8885 15.6617 0.716779 0.578883 0.833716
23.5869 23.6805 19.7837 -0.264897 -0.254811 -1.84831
23.8588 26.3768 18.9185 0.343923 -0.897838 -0.273764
24.9546 24.3685 17.4452 1.60436 -0.45496 -0.0620398
26.2435 23.6237 19.5727 -1.06739 1.01488 -0.911542
15.1902 17.2612 22.832 -0.657374 -0.935028 -0.816443
17.1619 15.1954 23.2376 0.205466 0.123944 -0.682684
16.1705 15.687 20.7501 -0.442587 -0.75843 -1.60048
17.6855 17.8518 23.7679 0.418913 0.813846 1.40348
17.9865 13.5847 21.209 0.672372 -2.15442 -0.0516328
18.7203 16.5018 21.6727 -2.26192 1.15229 0.654096
20.0809 14.3012 22.5534 0.834996 1.77011 0.71229
19.4828 15.8028 24.4767 -0.0474543 1.8545 2.52758
21.1985 17.2422 22.8386 -0.912193 -0.0740799 0.431922
22.5567 15.0615 23.7049 0.451422 0.405509 -0.463458
22.2092 17.0387 25.3771 1.04695 0.00570651 -0.43218
22.4535 13.681 21.5286 0.66874 -0.272669 -0.246755
23.4479 16.1429 21.256 0.279669 0.517232 0.355126
23.7783 17.7486 23.374 -0.129197 -1.04492 -0.313117
16.9578 21.312 22.006 -1.08774 -0.249334 0.142683
18.1528 20.3997 24.6877 -0.877696 0.56153 0.856923
15.5655 19.7557 23.9026 0.666953 -0.446124 -0.0348239
14.5771 19.9723 21.4625 -0.37379 -0.997402 -0.468349
16.0834 22.1337 24.6337 0.153755 0.788518 0.95693
16.7392 18.5784 21.0846 -0.848742 0.44864 -0.153704
20.3036 18.7584 24.9724 0.100372 0.413041 0.619462
20.9333 21.4076 25.3462 1.52181 0.51471 0.379357
19.5079 22.0591 23.0004 -1.05044 -0.283132 -0.103006
19.2828 19.3522 22.1721 -0.934824 -0.297227 0.558807
21.7913 20.1073 22.8483 -0.951721 1.6704 -1.52372
23.2906 21.0603 20.4575 1.17431 -0.374714 0.839044
25.8294 21.1486 20.5763 -0.529536 0.732467 0.357526
24.5312 18.6229 20.7047 -0.364805 -0.101781 -0.912562
24.5954 20.2654 22.8601 1.06203 -0.38461 0.716293
23.2869 22.2361 24.3445 -0.45847 0.849515 0.734942
22.9068 19.5435 25.2298 1.61131 0.675369 0.422944
18.282 23.131 20.3939 -0.143911 0.770631 -0.822995
16.1205 24.5964 20.7509 0.0621943 -0.726452 0.335057
17.6589 26.4933 22.1892 0.152704 -0.36616 1.78658
14.7619 22.743 22.3088 0.117857 -0.0245159 -0.0119436
17.3355 23.9771 23.0511 -1.20517 0.0959725 -0.660966
18.9281 25.687 24.3665 -0.630252 -1.83219 1.47342
21.1579 26.7333 23.5373 1.49597 0.15123 0.243039
18.5153 23.129 25.3779 0.59823 -1.23997 -0.155006
19.9282 24.8054 21.9894 0.00451893 0.202602 0.81726
21.9742 22.9087 22.0074 1.28956 -1.06884 -0.802758
20.0191 27.4077 21.4103 -0.528534 -0.703576 -1.4559
21.0925 23.9998 24.4061 0.971601 1.30176 1.18209
25.1741 25.4825 21.1142 -0.270914 0.0503927 1.25429
24.8934 23.0646 22.1755 0.709402 -1.5517 -0.959329
22.4521 25.9623 21.1163 -1.35538 -0.770574 -1.12227
23.4741 24.8293 23.3332 0.810322 -1.43917 0.403965
ITEM: TIMESTEP
5000
ITEM: NUMBER OF ATOMS
92
ITEM: BOX BOUNDS ss ss ss
1.4602901234719518e+01 2.6173012690970147e+01
1.3211576244522995e+01 2.7474848865112801e+01
1.5297843671233064e+01 2.5436382503564793e+01
ITEM: ATOMS x y z vx vy vz
18.209 15.0343 19.0183 0.0117142 -1.29721 0.963067
16.4305 17.0143 18.7845 -0.342565 -0.666443 0.764303
14.2362 17.6318 20.7468 0.278889 -0.628014 -0.571264
21.3567 17.1501 17.623 0.925457 0.657601 1.32513
18.5597 16.3029 16.754 -0.917991 -0.64915 0.149784
20.0978 13.1376 20.0958 1.56573 0.016377 -2.26438
20.694 15.8272 15.4525 0.325064 -0.372729 -0.181881
20.8354 15.6489 20.2361 -0.810182 -0.400307 1.56092
20.5921 14.4283 17.6837 1.93104 0.245274 -0.792973
22.8537 14.4106 18.9248 -0.222836 0.671672 0.736941
23.1393 15.4701 16.5079 -0.0878265 0.400133 0.720204
23.9462 17.0193 18.7252 -1.11487 -1.40048 -0.137319
24.9795 17.8116 16.4753 -0.0105201 1.70134 0.645367
15.4695 19.6353 18.9162 0.682994 0.211421 0.807011
16.7568 21.6367 17.166 1.32225 -0.024922 -1.34033
15.7153 22.1498 19.7061 -0.494332 -1.54019 -1.05938
17.9233 20.4496 19.3724 1.03769 0.28576 -0.54141
17.5981 18.9653 16.9179 0.792624 1.439 0.0808857
18.9282 21.0082 15.5832 -0.914396 -0.277236 -1.62484
22.0406 22.2016 17.8694 -1.44967 -0.186679 0.364013
21.7362 20.7153 15.5613 -0.348618 -0.0865462 0.549362
19.273 22.4908 17.9716 1.54403 1.61441 -0.329723
19.0849 17.7273 19.1139 0.401163 0.108436 0.109213
20.5898 21.4747 20.3421 0.874457 0.437173 -1.76893
19.9383 18.3986 15.6034 -0.992428 -0.1049 -0.650239
20.1264 19.8947 17.7699 1.57933 -0.892514 1.09418
21.6628 18.5825 20.2401 -0.734858 0.695775 0.684112
23.0446 19.5105 17.9268 -0.238493 -2.10952 -0.767288
22.6267 17.9953 15.3589 -0.391104 0.402837 1.02577
24.9937 21.771 17.909 -0.653904 -0.319497 -1.06563
24.4397 20.2989 15.7919 0.470738 -0.430972 -0.913708
25.7198 19.237 18.3932 -0.582261 -0.864964 0.875736
18.1023 23.58 15.6856 0.0172443 -0.0908241 0.441409
17.0049 24.1361 18.2455 -0.052014 -0.390948 -0.23837
18.3475 25.9464 19.8731 -0.776312 -0.520699 -0.157806
20.8189 24.2285 19.5891 -1.2552 -0.722577 0.927754
20.7513 23.2662 15.4701 -1.15275 -1.16649 -0.532791
19.4519 25.3495 17.3174 0.343089 0.179093 0.716037
20.9616 26.8861 19.0049 1.39092 1.17059 -1.81688
22.1981 24.9363 17.2058 -0.185983 -0.702249 -0.56532
23.5007 22.9766 15.8418 0.508792 1.44353 0.410121
23.5067 23.7276 19.6536 0.203104 -1.01677 0.0703909
23.5346 26.5129 18.9781 0.770683 0.920747 0.770793
24.898 24.3777 17.4546 0.0720253 1.85393 -0.288868
26.2188 23.5688 19.5498 -2.12451 0.604725 0.539389
15.3857 16.9723 23.0894 -2.36905 0.292082 -1.25563
17.3321 15.1067 23.3846 -0.564378 -0.0824729 0.046858
15.9021 15.5955 20.9083 0.184051 0.634489 0.528688
17.7876 17.8718 23.7723 -1.12451 -0.362101 1.21653
17.8021 13.6916 21.2019 0.348504 -0.134635 -0.723644
18.5079 16.4064 21.4454 1.74265 -0.570903 0.558299
20.0564 14.3407 22.6289 1.31236 -0.0344782 -2.04412
19.6679 16.0823 24.6181 0.397125 0.306929 -0.254165
21.0411 17.2433 22.5617 -1.34919 -0.761762 1.56515
22.4522 15.1811 23.5936 1.07386 -0.939068 -0.245573
22.1953 17.0581 25.2383 0.154561 -0.0124249 0.281507
22.3469 13.4913 21.4132 0.306012 -1.16088 -0.0376909
23.4178 15.993 21.3332 0.259568 -0.985293 -0.384819
23.7701 18.013 23.2544 -1.62797 -1.74223 0.365279
17.1031 21.2221 22.0466 1.12212 1.34691 -0.148267
18.0449 20.4323 24.553 0.628436 -2.24023 -0.243717
15.6344 19.5857 23.7338 0.805154 1.63244 1.43435
14.5489 20.2258 21.3857 0.287711 -0.246966 1.48631
15.9382 22.1321 24.5539 0.155538 -0.918443 0.616955
16.6488 18.4687 21.1574 -0.853156 -1.11231 0.330268
20.2088 18.8243 24.7006 -1.32658 -0.319889 -0.0909995
20.7826 21.3037 25.315 0.612277 -0.395111 0.144555
19.6132 22.1673 22.9253 -0.235851 1.05007 -0.841946
19.1411 19.3951 21.9528 -1.16831 0.173595 0.266547
21.8665 20.148 22.7723 0.183331 0.930199 1.91323
23.2966 21.0324 20.4037 -0.928116 -0.211646 0.256802
25.9994 20.8979 20.3902 0.662323 0.307583 1.67022
24.5188 18.6006 20.8303 -0.78979 0.807943 -2.20575
24.7018 20.3812 22.8464 0.564999 -0.32362 -1.55547
23.4252 22.3496 24.2694 0.397354 0.741569 -1.67282
22.841 19.7596 25.1312 -1.60392 -0.276978 -0.838214
18.3477 23.2314 20.4526 -0.74815 1.31074 0.185823
16.1106 24.9189 20.6716 0.238405 1.30396 -0.127372
17.5518 26.5659 22.3577 0.529153 0.770083 0.314414
14.9864 23.096 22.2088 -0.995012 1.03853 0.0532516
17.2825 23.9791 23.0386 0.592431 1.35161 -0.5939
18.8742 25.7174 24.4554 0.725587 0.793768 -0.903765
21.4743 26.5354 23.7348 0.892112 -0.172355 -0.468331
18.5131 23.0615 25.2018 1.09108 -0.133746 0.623362
19.8255 24.8502 22.2516 -0.711471 -1.04958 -0.00152829
22.088 23.1225 22.0569 -0.11382 1.399 0.507339
19.8875 27.4515 21.7217 0.271342 -0.139663 -0.533819
21.1331 23.9957 24.6113 0.315081 -0.204284 0.758201
24.8039 25.5192 21.1559 -0.569438 1.57136 -0.631612
24.8228 22.8256 21.8714 0.799161 -0.741581 1.03123
22.2698 26.1654 21.3227 0.423569 0.0289671 0.280098
23.4971 24.8084 23.4056 -1.19255 -0.716155 0.645321
ITEM: TIMESTEP
6000
ITEM: NUMBER OF ATOMS
92
ITEM: BOX BOUNDS ss ss ss
1.4602901234719518e+01 2.6173012690970147e+01
1.3211576244522995e+01 2.7474848865112801e+01
1.5297843671233064e+01 2.5436382503564793e+01
ITEM: ATOMS x y z vx vy vz