ITEM: TIMESTEP
0
ITEM: NUMBER OF ATOMS
923
ITEM: BOX BOUNDS ss ss ss
4.6678200096910176e+00 3.3513445581913388e+01
3.7990103471987853e+00 3.6865301175629916e+01
4.6877002183970360e+00 3.6102300277579374e+01
ITEM: ATOMS x y z vx vy vz
14.5879 10.8288 7.20908 -0.3805 1.36492 1.42727
17.3908 11.6953 7.30639 0.387109 -1.4156 -1.36572
15.2846 13.5941 6.78952 1.35035 0.0715635 0.417107
13.632 15.7401 7.92085 -0.926777 1.26997 0.855637
12.9353 12.9747 8.3404 -1.27879 -0.4685 -1.48506
20.8903 15.3272 6.98416 0.639846 1.10684 0.264609
18.0875 14.4606 6.88684 1.34495 0.833739 0.198522
20.1936 12.5618 7.40371 -0.568308 0.502727 -0.595947
23.6932 16.1937 7.08148 0.332484 0.648092 -0.858803
22.9965 13.4284 7.50103 -1.13828 -0.813056 0.880147
28.6022 15.1614 7.69566 -0.86753 -0.655003 0.191034
25.7993 14.2949 7.59834 -1.05344 -0.530618 -0.198307
31.405 16.0279 7.79298 2.14193 -1.67193 1.01751
16.9492 17.9538 8.56763 1.75126 -0.637137 2.3382
16.6781 19.1248 5.95043 0.311336 0.190485 -1.06426
15.9813 16.3594 6.36997 -1.7568 -0.651598 0.589537
14.3287 18.5054 7.5013 2.39882 -1.50711 -0.404218
19.4809 19.9913 6.04774 -3.1962 -0.998901 0.442785
18.7842 17.226 6.46729 -1.07537 1.45794 -0.482917
24.3899 18.959 6.66193 -0.270131 0.367836 -0.581443
21.587 18.0925 6.56461 -0.0912568 0.2828 -2.10284
27.1927 19.8255 6.75924 -1.17181 0.276933 1.26027
29.2989 17.9267 7.27611 -0.982629 0.85165 0.44828
26.496 17.0602 7.1788 0.671431 -0.437001 0.681209
15.7221 24.036 6.6622 0.421571 -0.473727 -1.13775
15.0254 21.2707 7.08175 0.899093 -1.48376 -0.836426
13.3727 23.4166 8.21307 1.2515 0.126758 -1.809
21.1454 24.351 7.82585 -1.72405 2.05069 0.446554
18.3426 23.4844 7.72853 0.353152 1.30603 0.775566
20.4487 21.5856 8.2454 0.623854 -1.03522 1.17277
20.1776 22.7566 5.6282 1.37157 -0.967085 -0.675322
17.6459 20.7191 8.14808 3.12807 -0.653245 0.401609
17.3747 21.8901 5.53088 0.536938 0.989921 0.258897
23.2516 22.4522 8.34271 -0.654007 -0.186827 0.907664
22.9804 23.6231 5.72551 -0.0531649 -1.27272 1.43502
25.1662 24.4058 7.43384 0.916725 0.374278 -1.73353
25.0866 21.7243 6.24238 0.173358 -2.5684 1.37427
22.2837 20.8578 6.14506 0.619651 -0.393605 1.42273
27.2723 22.507 7.95071 -0.64403 1.29959 1.64685
29.3785 20.6082 8.46758 0.855571 -0.337464 1.76173
16.4188 26.8013 6.24265 -1.35722 -0.564763 -2.07672
14.0694 26.182 7.79353 0.764401 -0.581433 2.39884
15.8509 28.3748 8.59004 -0.618962 0.0781971 0.540443
19.0393 26.2498 7.30898 0.914851 -0.150193 -0.0425481
18.7682 27.4207 4.69178 0.866418 0.0898888 0.670713
20.9539 28.2034 6.40011 -0.447099 0.51538 -1.84918
20.8743 25.5219 5.20865 0.687981 2.42573 -2.80499
18.0715 24.6554 5.11133 1.34723 0.624036 1.31606
23.06 26.3046 6.91698 0.0330064 -1.58926 -0.185511
18.2002 28.9941 7.03916 0.832878 -0.849679 1.82064
23.1396 28.9861 8.10845 0.919673 -0.0816681 0.299446
15.8269 11.2522 12.0239 -0.0199225 1.09284 -0.402634
15.1302 8.4869 12.4435 -2.41804 -0.153193 0.723991
14.8591 9.65785 9.82628 -0.444432 0.375521 1.04976
13.2064 11.8038 10.9576 0.602899 -1.36884 -0.755389
20.4648 11.3909 10.0209 -0.94088 -0.22215 0.712753
17.9331 9.35342 12.5408 -1.75784 1.12816 1.38584
17.6619 10.5244 9.92359 -1.15008 0.76339 -0.0666109
11.5537 13.9497 12.0889 0.795474 -0.4497 -0.555003
11.2826 15.1207 9.47172 -1.03251 -0.272939 0.211064
16.5236 14.0175 11.6044 -0.455659 -1.93981 -0.717065
16.2525 15.1885 8.98718 0.203787 0.0725625 0.371931
15.5558 12.4232 9.40673 2.29879 2.12524 1.02755
13.9031 14.5691 10.538 -2.2588 -0.201479 0.0415774
19.3265 14.8841 11.7017 0.517015 1.54036 0.0484973
19.0553 16.055 9.0845 -1.07489 -0.0138122 -1.61381
18.6298 12.1187 12.1212 0.379498 1.61802 1.00675
18.3586 13.2897 9.50405 0.254586 -0.371316 -1.11686
22.1293 15.7506 11.799 0.540136 -1.25539 -1.14918
24.2354 13.8518 12.3159 -0.504793 0.444842 0.700007
23.9643 15.0227 9.69868 0.282334 0.149054 0.623803
21.4326 12.9853 12.2186 0.543935 1.09559 1.10009
21.1615 14.1562 9.60136 -0.60491 1.44715 -0.149786
23.2676 12.2574 10.1182 0.414765 -1.05368 -2.00636
27.0383 14.7183 12.4132 0.723387 1.38922 -1.38958
26.7672 15.8893 9.796 0.88967 0.745068 -1.85715
28.8733 13.9905 10.3129 1.60219 -0.540767 -1.72374
26.0705 13.1239 10.2155 0.71209 -1.40481 1.12851
29.8411 15.5848 12.5105 1.30828 0.380986 -0.0899192
31.6762 14.857 10.4102 -0.144024 -1.04448 0.668636
7.97724 19.4126 11.7344 -0.0208201 0.167013 0.67097
12.2504 16.7151 11.6694 1.03402 -1.30877 0.395297
11.9793 17.886 9.05217 0.790025 -0.312754 -0.00547824
10.3266 20.032 10.1835 -0.546033 -2.05831 -0.792966
9.62991 17.2666 10.603 0.487113 -0.675277 -2.1395
15.5677 18.9288 12.3162 -0.95044 -1.90816 -0.305883
15.2965 20.0997 9.69895 0.113771 -2.11789 -0.356884
14.5998 17.3344 10.1185 -0.100453 -0.737219 0.00880082
12.9471 19.4804 11.2498 -2.58603 -0.475899 1.32926
17.917 19.5482 10.7653 -0.415101 0.713842 -1.43343
20.0232 17.6494 11.2822 -0.656864 -0.192168 1.55499
19.752 18.8203 8.66495 2.48085 1.73963 1.29199
17.2203 16.7829 11.1848 1.53957 0.0373435 3.56066
22.826 18.5159 11.3795 -1.55225 0.486844 0.600727
22.5549 19.6868 8.76226 -0.519296 -1.11601 -0.785234
24.9322 16.6171 11.8963 2.00819 -1.41914 -1.48302
24.661 17.7881 9.27913 1.55826 -0.19407 -0.310794
21.8582 16.9215 9.18182 -0.991979 3.20243 -2.46692
25.6289 19.3824 11.4768 -0.377776 -2.22076 -0.795187
27.735 17.4836 11.9937 2.53494 0.342189 -0.0592872
27.4639 18.6546 9.37645 2.30594 -2.30641 -1.36514
29.6496 19.4373 11.0848 -0.622115 -0.14213 -0.157244
29.57 16.7558 9.89331 -0.85248 -0.547149 -1.50898
31.7557 17.5385 11.6016 -2.15138 -0.808873 0.901047
31.4846 18.7094 8.98444 1.78192 1.0728 2.12366
7.02127 24.3239 12.4462 -0.0827574 -1.05011 0.312798
8.67395 22.1779 11.3148 1.02075 0.630618 -0.953353
11.9912 24.3917 11.9616 0.749943 -0.804516 -0.617747
12.676 20.6513 8.63262 -0.998301 -0.264402 -0.200859
11.2945 21.6263 12.3811 0.957191 0.267784 1.55747
11.0233 22.7973 9.76394 -1.1117 -0.751079 0.584774
16.9611 24.4594 11.4771 -0.543867 0.068348 -0.119719
16.2644 21.6941 11.8966 -0.789505 -1.78072 0.256366
15.9932 22.8651 9.2794 0.418977 0.126297 0.0108219
13.6438 22.2457 10.8303 0.325151 2.37007 -1.89628
18.6137 22.3135 10.3457 1.07512 -0.0815307 0.256385
20.7199 20.4147 10.8626 -0.982032 0.394404 -0.489513
21.4166 23.18 10.4431 -1.56599 0.14502 -0.94566
23.6023 23.9627 12.1514 -0.689085 0.46162 0.144225
23.5227 21.2812 10.9599 -0.849199 0.657773 -1.2572
25.4373 23.2349 10.051 -1.22214 2.61981 0.977112
25.3577 20.5534 8.85958 1.92201 0.0913434 0.180888
27.623 24.0175 11.7594 -0.790816 -0.790252 0.343207
27.5435 21.3361 10.5679 -1.62507 -0.614515 1.18021
29.7292 22.1187 12.2762 -0.274862 -2.25904 0.182229
29.458 23.2897 9.65904 1.47833 -0.419944 -1.26941
31.6438 24.0724 11.3674 0.82557 -0.909412 -0.349177
31.5642 21.3909 10.1759 1.00728 -1.52452 2.09393
11.72 25.5626 9.3444 -0.888431 0.984451 1.7831
9.37065 24.9433 10.8953 0.0962531 -0.404627 0.454366
11.1521 27.136 11.6918 0.0859282 0.86301 -0.00193141
16.6899 25.6304 8.85986 1.09083 0.599799 1.20044
14.3405 25.011 10.4107 -1.07816 -0.373318 -1.40203
16.122 27.2038 11.2072 -0.878302 -0.417323 2.03577
13.5015 27.7554 10.1409 0.205725 -0.844734 -0.257654
19.3104 25.0788 9.92619 -1.33577 -0.281044 0.578628
18.7425 26.6522 12.2736 1.19357 -0.484161 -1.04408
18.4714 27.8232 9.65637 0.899278 2.06709 -0.215282
21.4962 25.8615 11.6345 0.154375 -0.194236 -0.281807
21.225 27.0324 9.01732 -1.92259 -0.23538 -1.87724
23.4108 27.8151 10.7256 -2.03156 1.47873 -0.127924
23.3312 25.1337 9.53418 1.39674 2.04375 -0.35682
25.2458 27.0873 8.62531 0.736159 0.0182706 1.91541
25.5965 28.5978 12.434 -1.19422 0.689499 -1.1703
25.5169 25.9163 11.2425 2.06196 -1.49491 -1.61763
27.4315 27.87 10.3336 -0.999483 0.759585 0.093044
27.3519 25.1885 9.14218 1.0152 -2.88363 0.6483
29.5376 25.9712 10.8505 0.792818 -0.702693 -1.68077
15.2829 29.9482 10.9374 -1.64044 -1.06207 0.817126
12.9335 29.3288 12.4883 -0.182855 -0.589412 0.525362
17.9034 29.3966 12.0038 -0.186179 -1.11768 0.91468
17.6323 30.5676 9.38655 -0.257617 -0.292622 0.345418
20.6571 28.6059 11.3647 -0.691353 -0.557597 0.366102
20.386 29.7768 8.7475 -0.927747 -0.268934 0.942462
17.0644 32.141 11.7339 1.41718 0.154157 0.00510803
19.818 31.3502 11.0949 0.517527 0.501613 -2.44022
22.5717 30.5595 10.4558 1.25521 0.573873 2.43107
24.7574 31.3422 12.1642 -0.463233 1.61885 -0.635636
25.3254 29.7688 9.81678 -0.857007 -1.35735 1.1263
27.5111 30.5515 11.5251 -0.942948 -0.959928 0.544372
29.6172 28.6527 12.042 -0.24949 -0.962693 0.656631
15.4013 7.31595 15.0607 0.204604 0.368528 1.30383
16.098 10.0813 14.6411 1.26242 1.01675 0.606902
13.7487 9.46189 16.192 0.0484399 0.970366 0.209602
13.4775 10.6328 13.5748 0.468054 1.76285 0.393828
18.9009 10.9478 14.7385 0.758009 1.63288 -1.7759
21.007 9.04898 15.2553 1.29053 0.504714 -0.355586
20.7359 10.2199 12.6381 0.0670004 1.64255 -0.0693524
18.2042 8.18247 15.158 -2.1632 0.422241 -2.46183
21.7037 11.8143 14.8358 -0.887194 -0.234412 0.812158
23.8099 9.91551 15.3526 -0.408887 1.38774 0.416235
23.5387 11.0865 12.7354 -2.41413 -0.366224 0.376325
26.6127 10.782 15.45 -1.87359 -0.41024 1.53937
26.3416 11.953 12.8328 1.14336 0.19102 0.86613
29.4156 11.6486 15.5473 -0.794925 -0.920943 -0.497284
12.5216 15.5441 14.2866 -0.00869223 0.3865 -1.08036
11.8249 12.7788 14.7061 -0.268902 1.72322 -0.303852
10.1722 14.9247 15.8374 0.972942 -0.654581 -0.654753
9.90105 16.0957 13.2202 -0.887277 0.938738 -0.268898
16.7948 12.8466 14.2216 -0.0914194 -1.34093 0.55112
15.1421 14.9925 15.3529 -0.120122 -0.460352 1.88973
14.8709 16.1635 12.7357 0.281051 -2.62565 -0.116508
14.4454 12.2272 15.7725 1.45871 0.139722 2.18659
14.1742 13.3982 13.1553 -0.989738 -0.600159 -1.83104
17.7626 14.4409 16.4192 -0.419606 -0.994303 -0.0809455
17.4915 15.6119 13.802 0.293284 -0.223555 1.52266
19.5976 13.7131 14.3189 0.219343 -1.23133 0.173671
25.2033 15.4461 14.5135 -0.669842 -0.777602 0.446862
22.4004 14.5796 14.4162 0.358477 0.625855 0.913215
24.5066 12.6808 14.9331 -0.312972 -2.2052 0.910936
27.3094 13.5474 15.0304 0.399494 -1.33928 0.0194404
29.1444 12.8195 12.9301 -0.165496 0.483944 -0.416826
30.1123 14.4139 15.1277 0.602722 3.00543 -0.366983
32.2184 12.5151 15.6446 -0.0246226 1.43117 1.27446
31.9473 13.686 13.0274 -0.0268068 -1.65552 -0.556486
8.24838 18.2416 14.3516 -0.645776 0.853645 0.734517
10.8689 17.69 15.4179 0.315777 -1.60966 -0.82662
10.5978 18.861 12.8007 -0.741512 0.625622 -0.67455
15.8388 17.7578 14.9334 -0.281944 2.61126 -0.287506
14.1861 19.9038 16.0647 -0.277134 -0.171671 -0.906799
13.2183 18.3094 13.867 0.717799 0.886957 0.285622
19.156 19.9716 15.5801 0.304952 0.916003 1.34931
20.991 19.2437 13.4798 0.154483 0.226028 -1.52172
18.4593 17.2063 15.9997 0.256067 0.550584 -0.908678
18.1882 18.3772 13.3825 -0.345979 -2.27035 -0.828331
20.2943 16.4784 13.8994 0.43759 -0.0420969 1.3152
24.065 18.9393 16.1943 0.837706 -1.175 0.437083
23.7939 20.1103 13.5771 0.792291 2.11892 -0.484155
21.2622 18.0728 16.097 -2.46968 0.583716 0.836761
23.0972 17.3449 13.9967 0.781728 1.12297 0.073912
25.9 18.2115 14.094 0.52981 -0.0361488 0.364117
28.0857 18.9942 15.8023 0.991268 -2.44289 -2.99435
27.8146 20.1651 13.1851 -0.161622 0.124162 -1.88853
28.0061 16.3127 14.6109 0.559926 -0.255134 0.749904
30.1919 17.0954 16.3192 -0.547675 -1.4088 1.88743
29.9207 18.2663 13.702 -0.756545 1.62142 1.17753
32.1065 19.049 15.4103 -0.698546 1.33117 0.590579
31.8353 20.2199 12.7931 -1.32659 2.00107 0.721564
32.0269 16.3675 14.2189 -0.590095 -0.98448 0.32148
7.29241 23.1529 15.0634 -0.593246 -0.41431 1.54507
4.6719 23.7045 13.997 -0.408806 0.929345 -1.67029
6.5957 20.3876 15.4829 -2.15486 0.920602 -1.00002
6.32456 21.5585 12.8657 -2.08835 -1.26271 1.49568
12.2623 23.2207 14.5788 0.213224 0.258631 0.726074
9.91293 22.6014 16.1297 -0.487126 0.958971 0.829075
9.64179 23.7723 13.5125 -0.625848 0.768124 0.673729
11.5656 20.4554 14.9983 0.965662 0.533777 1.76139
8.94509 21.0069 13.932 1.71188 -1.10503 -0.774091
14.8828 22.6691 15.6451 -0.268361 -0.634456 -1.37333
14.6117 23.8401 13.0279 -0.304253 0.0160525 0.916663
16.5355 20.5232 14.5138 0.916105 1.92681 0.665639
13.915 21.0747 13.4475 1.02507 0.48418 -1.0985
19.8527 22.7369 15.1606 -1.26651 1.24871 0.986845
19.5816 23.9079 12.5434 0.0396607 0.648704 0.256966
17.2322 23.2885 14.0943 -0.720021 2.14154 -2.34145
18.8849 21.1425 12.9629 0.338702 -0.137151 0.923817
21.9589 20.8381 15.6775 0.51228 0.61834 1.6237
21.6877 22.0091 13.0603 -0.0917058 -0.525784 -0.573204
23.8735 22.7917 14.7686 -0.434245 0.555344 1.02152
25.9796 20.8929 15.2855 -0.345874 -0.146255 -1.78665
25.7085 22.0639 12.6683 0.982781 0.807301 0.259542
27.8942 22.8466 14.3766 -3.181 -1.21854 0.293995
30.0799 23.6293 16.0849 -1.05983 -0.887547 -0.151182
30.0003 20.9478 14.8935 -0.758404 1.08408 0.124457
31.9149 22.9014 13.9846 0.438489 1.89573 0.0936906
6.45335 25.8973 14.7935 0.598091 -0.79815 -1.60479
8.23479 28.0901 15.5901 1.46951 0.451478 -2.07406
11.4232 25.9651 14.309 -0.285388 -1.15962 -0.446669
9.07386 25.3457 15.8599 -0.452547 -1.49452 -0.611095
8.80272 26.5167 13.2427 0.0528966 -0.773099 0.0205806
16.6643 24.8619 16.4417 0.43533 0.744264 0.501592
16.3931 26.0329 13.8244 1.56813 1.0278 0.500533
14.0438 25.4135 15.3753 -0.599991 -0.218062 0.690944
13.7726 26.5844 12.7581 -1.02737 0.759909 -0.870252
15.8252 27.6063 16.1718 0.155326 -0.931546 0.748596
13.2047 28.1579 15.1055 -0.17141 0.40193 -2.08937
19.0137 25.4813 14.8908 -0.108851 0.271137 1.71513
18.1746 28.2256 14.621 -0.914353 0.0711861 1.42583
20.9282 27.4349 13.9819 -0.964068 -0.803058 1.54732
21.7673 24.6905 14.2517 1.62446 0.119312 -0.799986
23.953 25.4732 15.9601 0.891911 0.52984 1.00089
23.6819 26.6442 13.3429 -1.09521 -0.0657752 0.707229
23.114 28.2176 15.6902 2.64321 -0.36456 0.53231
25.8676 27.4269 15.0512 -1.69783 -0.482397 0.274545
25.788 24.7454 13.8597 1.52956 -0.580004 -0.864062
27.9738 25.5281 15.5681 1.60757 0.564655 -0.277017
27.7026 26.699 12.9508 0.782478 -1.11359 1.39597
29.8884 27.4817 14.6592 -0.371432 -0.381431 1.01888
29.8088 24.8002 13.4677 0.3086 -1.9736 -1.98872
32.0741 28.2644 16.3675 0.40298 -0.232983 1.15604
31.9945 25.5829 15.176 -0.190211 -0.219358 -0.559162
31.7234 26.7539 12.5588 -0.595865 1.47551 -1.23504
10.5842 28.7095 14.0392 0.126165 0.0821632 -0.854465
12.3656 30.9022 14.8357 0.14732 0.793435 2.10531
10.0162 30.2829 16.3866 -0.335468 1.0387 -0.0591461
15.5541 28.7772 13.5546 -1.26406 -1.27024 -0.435869
14.9861 30.3507 15.902 0.0840841 -1.78159 -0.881124
14.715 31.5216 13.2848 -0.896123 0.389378 0.0272661
17.3355 30.97 14.3511 -1.25319 1.09142 -1.11451
20.3603 29.0083 16.3293 0.127562 2.75728 -0.252575
20.0892 30.1793 13.7121 0.14078 0.942856 0.827898
19.5212 31.7527 16.0595 -0.477522 0.0818258 1.76696
22.8428 29.3886 13.073 0.99925 0.294354 -1.98068
22.2749 30.962 15.4204 -0.253612 -1.34342 -0.653872
22.0038 32.1329 12.8032 -0.577186 -2.48518 -1.55538
25.0286 30.1712 14.7814 -0.837233 0.00862808 0.0721711
27.7822 29.3805 14.1423 0.612807 -0.807957 0.222862
26.9431 32.1249 13.8725 0.737226 -0.314066 -1.00229
29.968 30.1632 15.8507 -2.25925 2.11524 0.667749
29.6968 31.3341 13.2334 0.00288778 -1.98111 0.260181
31.8825 32.1168 14.9418 -0.419685 2.40983 0.442089
31.803 29.4353 13.7503 1.11102 0.0489382 1.10551
16.4964 33.7144 14.0813 0.272704 0.128187 0.648558
14.1471 33.095 15.6322 0.365246 2.52895 -1.14262
15.9285 35.2878 16.4287 0.263536 2.63422 -0.365013
19.2501 32.9237 13.4423 1.11106 -0.799317 0.138895
18.6822 34.4971 15.7897 -3.41234 0.17364 -1.06312
21.4358 33.7063 15.1506 -0.277264 0.769917 1.92734
24.1895 32.9156 14.5115 -2.45768 1.83757 -1.10541
26.3752 33.6983 16.2199 0.587702 -2.00012 -0.251333
29.1289 32.9076 15.5808 1.57487 0.879887 -1.59054
16.6403 7.73935 19.8755 -0.276524 0.905338 -0.405062
15.9436 4.97404 20.2951 0.802636 -2.65753 1.19151
15.6725 6.14499 17.6779 1.15285 -1.56973 -1.31705
18.7465 5.84056 20.3924 0.0849681 2.11471 -0.0858995
18.4753 7.01151 17.7752 -0.305856 -0.497088 -0.535307
21.2782 7.87803 17.8725 -0.54474 2.02438 -0.461
12.3671 10.4369 19.9405 -0.906455 2.472 -0.452218
12.096 11.6078 17.3233 0.705095 1.27835 0.1138
16.3692 8.91031 17.2583 -0.655299 -0.357378 0.293169
14.7165 11.0562 18.3897 -1.84642 0.652528 -0.690792
14.0198 8.29094 18.8092 0.370143 -0.254917 0.161755
20.1399 11.3712 19.5533 -1.13454 0.249702 1.39954
17.337 10.5047 19.456 0.775325 -0.610821 -0.971828
17.0659 11.6756 16.8388 -0.0393643 -0.710174 0.316235
19.4432 8.60588 19.9729 1.33035 1.06292 -0.433292
19.172 9.77683 17.3557 -1.77512 0.620828 0.557202
25.0489 10.3389 20.1675 0.655853 -1.79997 -2.07046
24.7777 11.5099 17.5503 -0.275901 -0.420388 0.474498
22.246 9.4724 20.0702 0.992605 0.271548 -0.728316
21.9749 10.6434 17.453 -1.2773 1.4957 -1.69711
24.081 8.74456 17.9698 -2.3171 0.605881 0.537014
27.8517 11.2054 20.2648 -0.270866 1.04851 0.559174
26.8839 9.61108 18.0672 0.553844 -0.936059 0.555468
32.4896 11.3441 18.2618 1.2161 -0.538861 -0.525794
29.6867 10.4776 18.1645 -0.79293 0.33095 0.737445
12.7927 14.3732 16.9038 -1.05671 1.08441 -0.747064
10.4433 13.7538 18.4546 -0.582477 -1.35308 -1.9782
8.79065 15.8997 19.586 -0.191759 0.170954 -0.262014
16.3811 15.4159 20.1678 -0.0168268 0.742193 -1.53113
15.4132 13.8216 17.9701 -1.84204 -2.32874 1.70864
13.7605 15.9675 19.1014 1.20697 1.23345 0.453906
13.0638 13.2022 19.521 -0.775334 -1.64413 0.530872
18.7304 16.0353 18.6169 1.37015 0.0772507 1.83394
20.8366 14.1365 19.1338 0.778919 -0.750473 -0.968135
20.5654 15.3075 16.5166 -1.12245 1.00422 1.91454
18.0337 13.27 19.0364 0.877787 1.26488 1.30142
19.8687 12.5422 16.9361 -0.401563 -2.03215 -2.32857
23.6394 15.003 19.2311 0.460689 1.22167 -3.12438
23.3683 16.174 16.6139 -1.1194 1.02884 1.71677
22.9427 12.2377 19.6506 -0.119303 1.29036 -0.197294
22.6716 13.4087 17.0334 -2.20908 -0.364294 1.2053
26.4423 15.8696 19.3284 1.45472 0.661147 0.0677241
28.5484 13.9708 19.8453 -0.376542 -1.96049 0.0468524
28.2773 15.1417 17.2281 -0.627031 0.377314 -2.10808
25.7456 13.1042 19.7479 1.90554 1.86971 -0.683852
25.4744 14.2752 17.1307 -0.61496 -0.806177 -0.0391033
27.5806 12.3764 17.6476 -0.191797 0.289092 -0.925236
30.463 15.9244 18.9364 -2.39952 1.08693 -1.85842
30.6546 12.072 20.3621 1.55339 -1.22013 -0.61455
30.3834 13.2429 17.7449 -1.08277 1.86895 -0.391097
32.5691 14.0256 19.4533 2.21483 0.189962 -0.323354
32.298 15.1966 16.8361 -0.0753043 0.0407095 -0.138097
8.51951 17.0707 16.9688 -1.96478 -0.37351 0.480874
6.86684 19.2166 18.1001 0.987958 0.980514 2.20181
12.1079 18.1135 20.2328 -0.940139 1.38385 0.921972
11.8367 19.2844 17.6156 -1.04152 -0.672004 0.147343
11.14 16.5191 18.0351 1.47923 -1.62421 0.322016
9.48736 18.665 19.1664 0.385556 1.20034 -1.48504
9.21622 19.836 16.5492 0.407955 0.274093 -2.17165
16.8066 19.3522 17.131 0.43772 0.829148 0.701135
16.1099 16.5869 17.5506 -1.01826 -1.29373 0.150069
14.4573 18.7328 18.6819 1.31869 0.342614 -0.88811
13.4894 17.1385 16.4842 -0.839412 -0.211795 0.452253
19.4271 18.8006 18.1973 0.312729 -0.559736 -0.123527
17.0778 18.1813 19.7482 0.542262 0.260614 -0.736238
22.23 19.6672 18.2947 0.626097 0.213276 1.84526
24.3361 17.7684 18.8115 0.824372 -0.233253 0.419309
21.5333 16.9018 18.7142 0.592318 0.23864 0.287517
26.2507 19.722 17.9027 1.06083 -1.91373 -1.24634
26.1711 17.0405 16.7112 0.705892 -2.2089 1.52941
28.3569 17.8232 18.4195 0.0973105 0.933716 -1.56619
30.5426 18.6059 20.1279 0.0592282 0.404063 1.15081
30.2715 19.7768 17.5107 -0.118708 -0.531252 -1.8062
32.3776 17.878 18.0275 -0.679245 0.275978 -1.07989
7.83468 20.811 20.2978 -1.99664 0.115553 -0.479616
7.56355 21.982 17.6806 -0.590461 -0.75061 0.418024
5.21417 21.3626 19.2314 -0.218545 -0.355067 0.254763
4.94304 22.5336 16.6142 2.60801 -0.377996 1.0293
6.99562 23.5554 20.0279 -1.78455 -0.0537757 0.179348
12.8046 20.8788 19.8132 1.17699 0.834016 -0.309981
12.5334 22.0498 17.196 -2.11239 0.899686 0.565437
10.1841 21.4304 18.7469 1.0651 0.934916 -0.835324
11.9655 23.6232 19.5434 1.18241 -0.916982 -1.29335
9.34499 24.1748 18.4771 -1.87724 -1.60932 -1.21745
15.154 21.4982 18.2623 0.696462 0.237938 -1.24823
16.9354 23.691 19.0589 3.5884 -0.667993 0.481852
14.3149 24.2425 17.9925 -0.361729 -0.564188 1.85708
20.1239 21.566 17.7778 1.47934 0.54402 0.565978
17.7745 20.9466 19.3287 2.12825 -0.291373 0.578709
17.5033 22.1175 16.7115 0.938781 0.536097 -0.864867
19.5559 23.1394 20.1252 1.18786 -0.385539 0.394498
19.2848 24.3103 17.508 -1.13937 0.393965 0.57526
22.3096 22.3486 19.4861 0.0292238 0.908925 -0.789723
22.0384 23.5196 16.8689 -0.677176 -0.0292572 -1.72873
24.2242 24.3023 18.5773 0.0551427 -0.26733 2.14032
24.4157 20.4498 20.003 -1.43908 -1.29481 0.273247
24.1446 21.6208 17.3858 0.132774 -1.73607 -0.511205
26.3303 22.4035 19.0941 1.92538 -0.140286 -0.403423
26.0592 23.5744 16.4769 -0.0688459 0.781927 1.25241
28.2449 24.3571 18.1853 0.845525 1.22632 -0.827073
28.4365 20.5047 19.611 -1.60784 1.40865 1.74545
28.1653 21.6756 16.9938 -0.114059 -1.12215 0.692251
30.351 22.4583 18.7021 0.253451 -0.932695 -0.0498027
32.2656 24.412 17.7933 1.59864 1.43257 -1.74323
32.4572 20.5595 19.219 -0.934484 0.876803 -1.26364
32.186 21.7305 16.6018 -0.80999 0.492522 -1.00688
6.72448 24.7264 17.4107 1.2812 -0.332233 0.0852561
8.50593 26.9191 18.2073 -0.00631016 0.323039 0.932487
11.6944 24.7941 16.9262 0.811976 0.317229 -0.0692012
11.1264 26.3675 19.2736 -2.69811 0.121041 -0.278777
10.8553 27.5385 16.6564 -0.935779 1.84364 -1.21326
12.9079 28.5603 20.0701 1.74102 -0.554757 0.522839
16.0963 26.4353 18.789 0.735068 -0.134669 1.02654
13.747 25.816 20.3399 -0.422653 -1.38254 0.0218771
13.4758 26.9869 17.7227 0.467179 -0.794613 -0.435484
18.7169 25.8837 19.8554 -0.381819 0.203562 0.00686311
18.4457 27.0547 17.2382 1.41588 -1.19263 -2.07016
20.6314 27.8374 18.9465 -2.61242 -0.544725 0.488654
21.4705 25.093 19.2163 -0.299586 2.05544 0.21645
21.1994 26.264 16.5991 -0.0895884 -0.861114 0.262827
23.3851 27.0467 18.3074 1.3677 -0.145815 -0.131507
26.4099 25.085 20.2856 1.70079 0.380489 2.16153
26.1388 26.2559 17.6684 1.2417 0.487746 0.945087
25.5708 27.8293 20.0158 2.58997 -1.60689 -1.74515
28.3245 27.0386 19.3767 -0.35384 0.369289 1.14832
28.0534 28.2096 16.7595 -2.36031 -2.94513 0.386378
30.4306 25.1398 19.8936 -1.18928 -1.67751 -1.09937
30.1595 26.3108 17.2764 -0.74585 0.582476 0.301847
32.3452 27.0934 18.9847 -1.14644 0.307024 0.0730096
12.6368 29.7313 17.4529 1.19356 -1.38513 -0.0372214
10.2874 29.1119 19.0038 1.62337 0.813722 -1.24541
12.0688 31.3047 19.8003 -0.161069 -0.355008 0.93174
11.7977 32.4757 17.1831 -2.51696 0.335151 -0.624944
15.2573 29.1797 18.5192 -0.867749 0.240551 -1.72061
16.7676 32.5434 16.6985 -0.795132 0.60639 1.31839
14.4182 31.9241 18.2494 0.488993 0.413674 -0.726075
17.8778 28.6281 19.5855 0.451998 0.087177 0.155965
17.6067 29.7991 16.9683 -0.575285 -2.04124 -1.51548
17.0387 31.3725 19.3157 -1.18155 -0.0706192 -0.278678
19.7924 30.5818 18.6767 -0.47165 -0.621354 1.99378
22.546 29.791 18.0376 -0.59233 -2.11236 -0.727109
21.9781 31.3644 20.385 -0.411315 -0.112731 -0.39399
21.707 32.5354 17.7678 -1.07011 -0.963033 -0.770381
24.7318 30.5737 19.746 -0.632534 -0.729684 -0.759302
24.4606 31.7447 17.1288 -0.0633296 0.0584221 -0.714659
25.2997 29.0003 17.3986 0.808507 -0.0462688 0.190492
27.4854 29.783 19.1069 -1.05958 0.0244836 -1.86493
27.2143 30.9539 16.4897 0.481738 -1.98923 -0.570258
26.6464 32.5273 18.8371 0.442893 1.89251 -1.59343
30.2391 28.9922 18.4679 0.440943 0.307345 -0.66671
29.4 31.7366 18.198 -0.964412 0.00436611 1.30971
32.4248 29.7749 20.1762 0.747154 -0.502683 0.070268
32.1537 30.9459 17.559 0.102994 -1.67279 -0.57282
16.1997 34.1169 19.0459 1.11563 0.545726 0.338166
13.5791 34.6684 17.9796 -1.074 0.477827 0.483137
15.3606 36.8612 18.7761 0.267085 -0.30267 -1.74201
18.9533 33.3261 18.4069 -0.84259 -2.50363 3.03486
18.1142 36.0705 18.137 -0.158479 2.00953 2.00544
21.139 34.1088 20.1152 -0.815818 -0.281171 -0.658552
20.8679 35.2798 17.498 1.74119 -0.304056 -2.64383
23.8927 33.3181 19.4761 2.50993 0.434827 0.774092
23.6216 34.489 16.8589 -0.656774 -0.00379819 -0.661442
16.9115 6.5684 22.4927 -0.191003 0.416411 0.126659
16.2148 3.80309 22.9123 0.677022 -0.347782 0.544081
14.5621 5.94903 24.0436 -0.322628 -0.833717 -0.677161
14.2909 7.11998 21.4264 0.406275 -0.0758753 -0.678953
19.7143 7.43493 22.5901 -0.956787 -0.183654 -3.20663
19.0176 4.66961 23.0096 0.815448 -0.86584 -2.63203
24.6233 6.40266 23.2042 1.72844 1.37348 -0.0402413
24.3522 7.57361 20.587 -2.27723 0.21719 0.336429
21.8204 5.53613 23.1069 0.528554 1.35254 0.6908
21.5493 6.70708 20.4897 0.132226 0.08249 2.23272
27.4261 7.26917 23.3016 -0.825491 -1.08824 -1.51901
12.6383 9.26593 22.5577 -1.23235 -0.896236 -1.35345
10.9856 11.4119 23.6891 -0.515678 0.0221157 -0.849489
15.9555 11.4797 23.2045 -0.608285 1.17913 1.88311
15.2588 8.71434 23.6241 0.104162 -1.13976 1.72361
14.9876 9.8853 21.0069 0.483284 0.566578 -1.54616
13.335 12.0312 22.1382 1.2749 -0.234388 -0.863001
18.576 10.9281 24.2709 0.576361 -1.60389 0.569004
20.411 10.2002 22.1705 0.0579359 -1.05707 1.51759
17.6082 9.33372 22.0732 -0.893371 0.791687 -1.14148
23.2139 11.0668 22.2678 -1.74977 0.665151 -0.135555
22.5171 8.30145 22.6874 0.0182577 0.80213 -3.27555
26.0167 11.9333 22.3651 0.288855 1.44047 0.502213
28.1228 10.0345 22.882 -0.012987 1.21899 1.12176
25.32 9.16797 22.7847 -0.0957681 0.718655 -1.35251
27.155 8.44013 20.6844 -0.385646 0.688881 0.21517
30.9257 10.901 22.9793 -0.540558 1.40875 2.62554
33.0318 9.00222 23.4962 -0.62024 1.08609 1.61791
32.7607 10.1732 20.879 -1.24286 1.10135 -2.66863
30.229 8.13569 23.3989 0.11895 0.636694 -0.0704195
29.9578 9.30664 20.7817 0.481574 0.518346 0.927967
11.6823 14.1772 23.2695 2.71238 -0.291154 0.642271
11.4112 15.3481 20.6523 0.874784 -0.482021 -0.541326
10.7145 12.5828 21.0719 0.912155 0.409296 -0.12996
9.06179 14.7288 22.2032 -0.520206 0.27166 1.6262
16.6522 14.245 22.785 -2.17036 0.208701 -0.586694
15.6844 12.6506 20.5873 -0.55344 0.335919 0.714368
14.0317 14.7966 21.7186 1.15483 1.2541 1.51917
19.2727 13.6934 23.8513 1.22469 2.40719 -0.609271
19.0016 14.8644 21.2341 -1.40768 -0.0783862 -3.16313
21.1077 12.9656 21.751 0.672993 -0.0250483 0.936407
18.3049 12.099 21.6536 -0.951064 -1.12051 -0.759498
24.8784 15.4264 24.0459 1.13511 0.391058 -0.995101
22.0756 14.5599 23.9486 1.11496 -0.437934 0.800515
21.8044 15.7309 21.3314 0.681179 2.00943 -1.80325
23.9106 13.8321 21.8483 -0.397671 -2.28573 1.04354
26.7134 14.6986 21.9456 0.981275 0.00239736 1.97454
28.8991 15.4813 23.6539 -1.17872 -0.474518 -1.22162
28.8196 12.7998 22.4625 -0.248357 0.0961308 2.02066
31.0053 13.5825 24.1708 1.77142 -1.96336 0.00105965
30.7341 14.7535 21.5536 1.02642 -1.12224 -1.88503
32.9199 15.5361 23.2619 -1.22536 -1.08689 -0.24619
32.8403 12.8546 22.0705 -1.29361 0.218918 2.62124
8.10582 19.6401 22.915 0.812962 -0.689018 -0.66823
5.48531 20.1917 21.8486 -0.384469 -0.612138 0.119855
7.40911 16.8747 23.3345 0.738025 0.800709 -0.0423851
7.13798 18.0457 20.7173 -1.97542 -0.319016 0.0579449
10.7263 19.0885 23.9813 -0.288963 -0.228018 -0.230966
10.4552 20.2594 21.3641 0.501586 -1.55643 -1.23329
12.379 16.9425 22.85 -0.115302 -1.86479 -0.831069
9.7585 17.4941 21.7836 -1.94856 -0.0484443 -0.787863
15.6962 19.1563 23.4968 -1.53131 0.925842 1.46593
15.4251 20.3272 20.8795 -0.518641 1.4614 -0.502178
13.0757 19.7079 22.4304 -1.45623 0.242067 -1.17502
14.9995 16.3909 23.9163 0.23701 0.579808 -0.15362
14.7284 17.5619 21.2991 0.919951 0.893652 -0.257586
20.6661 19.224 23.0122 0.490191 0.513543 -0.983193
18.0456 19.7756 21.9459 0.0200903 -0.477255 0.536831
19.9694 16.4587 23.4318 0.0810527 -0.176104 -0.326668
19.6983 17.6297 20.8145 -0.809478 -0.14654 1.80886
17.3489 17.0103 22.3654 -0.0233124 -0.89463 1.48846
22.7723 17.3253 23.5291 -1.1728 0.546109 0.582575
22.5011 18.4962 20.9119 -1.15733 -0.569685 -1.1558
24.6869 19.2789 22.6202 -0.757121 -0.435292 -0.530943
24.6073 16.5974 21.4287 0.110418 1.72622 2.09501
26.793 17.3801 23.1371 -1.05383 -1.0653 -0.395185
26.5219 18.551 20.5199 -0.0923398 2.05582 1.29608
28.7076 19.3337 22.2282 1.398 0.0913208 -0.797893
28.628 16.6522 21.0367 0.489697 -0.226402 1.54913
30.8933 20.1164 23.9365 0.996898 -2.07282 -0.243426
30.8137 17.4349 22.7451 -0.177805 -0.0381728 -0.655797
32.7283 19.3886 21.8362 1.21712 0.688255 0.60905
32.6487 16.7071 20.6447 -1.05067 0.260203 -0.488413
7.26676 22.3845 22.6452 1.18135 1.61301 0.79734
12.2366 22.4522 22.1606 -0.837234 -0.33163 0.860198
9.88727 21.8329 23.7115 -0.678211 1.46123 0.765234
9.61613 23.0038 21.0943 -0.745355 -0.834176 0.553844
14.8572 21.9006 23.2269 0.237507 0.493046 0.010082
14.586 23.0716 20.6097 1.04273 -1.19453 -0.07483
16.6386 24.0934 24.0234 -0.701452 -2.23447 -0.234444
20.395 20.395 20.395 1.11728 1.06655 0.411329
19.8271 21.9684 22.7424 -1.70292 -1.16099 1.25469
17.4777 21.3491 24.2933 0.689557 -0.49061 1.80061
17.2065 22.52 21.6761 0.948788 0.121796 1.01306
22.5807 21.1777 22.1033 -0.267862 -0.814369 -0.18014
21.7417 23.9221 21.8335 -0.373798 -0.151684 2.97199
24.7664 21.9604 23.8117 -1.33581 -0.799922 -0.619063
24.4953 23.1313 21.1945 0.0297025 0.762859 1.45911
26.681 23.914 22.9028 4.49079 -0.983684 0.578693
26.6015 21.2325 21.7113 1.53731 -1.71383 1.51914
28.7872 22.0152 23.4197 -1.16984 -0.692596 0.725694
28.516 23.1862 20.8025 -0.360274 0.620288 0.843888
30.7018 23.9689 22.5108 0.889472 0.669537 -1.37115
30.6222 21.2874 21.3193 0.215511 0.584838 1.45449
32.8079 22.0701 23.0277 0.489821 0.505558 -1.00167
32.5368 23.241 20.4105 0.664459 -0.643039 0.674815
8.77707 25.7482 20.8245 -2.57949 -0.569782 0.365832
11.3976 25.1966 21.8908 -2.06968 -1.25545 -0.367706
9.04821 24.5772 23.4417 0.132392 -0.716414 -1.07049
10.8297 26.77 24.2382 -1.75918 0.48822 -1.03475
10.5585 27.941 21.621 0.402625 -0.465835 0.876514
16.3675 25.2644 21.4062 1.45784 -0.284021 0.460403
14.0181 24.645 22.9571 0.915721 -0.927153 2.83338
15.7995 26.8378 23.7536 0.579243 1.62007 -0.0860403
15.5284 28.0087 21.1364 0.380888 -0.814162 0.0191479
13.179 27.3894 22.6873 1.55255 -0.412919 0.575309
18.988 24.7128 22.4726 1.15268 -0.0985828 0.0136281
18.1489 27.4572 22.2028 -2.27147 -2.06224 1.27452
20.9026 26.6664 21.5637 -1.27323 0.439305 -0.106363
20.3347 28.2398 23.9111 -2.11053 0.26087 2.10441
21.1737 25.4955 24.1809 2.77247 -0.857019 1.43434