ITEM: TIMESTEP
0
ITEM: NUMBER OF ATOMS
92
ITEM: BOX BOUNDS ss ss ss
1.4542855161375943e+01 2.5989059496338069e+01
1.3606555410616251e+01 2.5866132016973307e+01
1.3955533522354941e+01 2.7201747593846338e+01
ITEM: ATOMS x y z vx vy vz
20.5255 17.2208 15.8554 0.990164 -0.49439 0.303143
19.3034 15.814 17.9315 -1.52323 0.365708 0.510144
21.8548 15.081 16.8511 0.862534 1.58242 -2.04571
24.0847 15.9524 18.2902 0.937105 0.292901 0.938199
23.3127 17.2902 16.0462 -0.170452 0.171559 1.21165
16.9649 20.5345 16.1098 0.972426 0.64183 1.2455
18.1542 18.1824 17.0532 -0.705341 0.347386 2.21097
15.7958 19.126 18.1464 0.781721 1.6819 -0.0129684
19.2305 19.5577 14.8513 -0.199771 0.630275 0.18576
21.9666 19.3796 14.8035 -1.55916 -0.694106 -2.13401
20.583 19.5246 17.3787 -0.51954 -0.101938 0.885354
25.985 20.8205 17.5502 0.755187 -0.263279 0.492908
23.4051 21.6545 13.9729 -0.946474 2.0854 -2.65515
23.4427 19.2079 17.9961 0.677716 -1.1658 1.76089
25.761 17.9756 17.5505 -0.0868941 -0.529189 -0.536654
24.5848 19.7627 15.5348 -2.29157 -0.533695 -2.21976
22.3895 21.4814 16.5691 0.164278 0.696957 -1.21814
17.9532 25.6072 16.8502 2.07189 -0.758461 -0.314361
18.0156 21.889 13.9596 0.389131 0.580677 -1.0929
15.7572 21.9158 18.224 -1.95435 2.22469 0.455509
16.865 23.3036 15.9871 1.0597 -0.0776459 0.255042
15.7347 24.6492 18.1764 0.36876 1.42955 0.83308
19.4039 21.9372 16.3844 -2.02781 0.396181 -0.26278
20.4586 24.5971 17.2767 2.66199 -1.23864 -0.597269
20.7245 21.786 13.9775 -0.370371 -0.522646 0.00280335
22.1148 23.8008 15.1954 -0.604182 1.43198 -0.633404
19.3047 24.154 14.8228 0.408611 0.749041 0.470483
24.7654 22.7141 16.0369 -0.219669 1.54573 -1.75198
23.1227 24.0019 17.8211 2.28089 -0.499893 0.493703
16.9278 16.7718 19.0751 -0.85139 0.0746578 -0.177117
16.5482 16.5983 21.7942 3.64551 -0.675661 0.476954
21.2364 16.5312 21.5401 0.302119 -0.0896073 -0.447035
21.2247 14.5606 19.4473 -0.447071 0.145644 1.68498
20.3175 13.6106 21.7686 1.6346 -0.602517 -0.442701
18.7937 15.5319 20.6987 1.13389 0.564948 1.31477
21.6474 17.1698 18.5858 0.789552 0.00498505 0.955577
25.842 16.7431 20.1868 0.795747 -1.04219 1.05057
23.5409 15.0441 20.7821 -0.796731 0.276942 -2.19223
14.5486 20.477 20.2033 0.582873 0.341649 1.98726
14.7612 18.6353 22.2988 -1.10305 0.0870699 1.13013
14.5469 21.4767 22.6825 -0.299809 -0.429992 -1.52158
18.2806 20.567 18.6894 -0.408435 -0.706408 -1.51429
16.9266 19.0906 20.6471 0.651638 -0.642039 2.53103
19.3362 18.1141 19.7242 1.07464 -0.605742 -1.22374
19.3746 20.6562 21.4928 -0.0191694 0.908139 -0.936534
21.4769 19.1647 22.7663 -0.81578 -0.190538 -1.99147
18.8707 18.0031 22.5496 -1.7544 0.962376 1.51699
21.567 19.8406 20.0142 -1.35111 -0.390098 2.20856
23.491 17.8996 20.6486 0.76684 -0.428112 -0.23033
25.8919 18.4911 22.3261 -1.92568 -1.53613 1.13156
23.7837 20.4271 21.846 0.876065 1.94099 -0.416099
25.6669 19.5227 19.8615 -0.0246052 -0.461045 -0.528756
23.7774 21.6613 19.1533 -0.254413 1.30706 1.06752
14.6499 23.2772 20.4067 -1.4747 -0.547217 -2.21271
18.1404 23.3796 18.505 -0.445738 -1.28757 -0.0212488
16.9407 21.9728 20.9024 1.06602 -1.53428 -1.8098
16.9165 24.8758 20.613 -1.09804 -0.407066 -1.5113
22.0035 22.4534 21.1538 1.58642 0.414901 0.483662
20.7783 22.2508 18.7582 1.12753 -0.254566 0.829712
19.068 25.8621 19.327 -1.60891 0.069602 -1.07819
21.5307 24.9164 19.9003 0.761218 2.39441 -3.12733
19.3943 23.517 20.9928 0.348221 1.26909 0.568349
21.3326 24.6 22.7577 0.40558 -1.52241 0.763171
25.7928 23.3697 18.5039 0.987785 0.272798 -1.10884
24.1079 24.1788 20.4656 0.388578 -0.839687 -0.272568
25.8259 22.1022 21.0038 0.331107 -0.476314 0.799666
16.6402 17.6321 24.2656 0.913337 0.284232 -0.0179374
21.7349 16.9512 24.3553 0.0141499 -0.333312 1.18276
19.2219 17.6375 25.3605 1.63139 0.0303959 -0.96467
19.5289 15.5222 23.4964 -1.06652 -0.227751 1.85394
22.2579 14.557 23.2178 -0.214078 -0.675774 0.433478
24.1423 16.4863 22.9447 -0.0536018 -0.648732 -0.646313
17.13 19.6459 26.0331 -2.94491 -1.89565 -0.299808
14.7154 19.6118 24.777 -1.26974 0.697694 0.637621
16.9321 20.1634 23.1873 0.71921 -0.481935 1.90355
19.5559 19.7848 27.1977 1.22372 1.0535 0.358505
19.3938 20.1689 24.4602 -0.289796 -0.936997 -0.281933
21.7322 19.3702 25.672 0.29148 0.796491 1.32646
23.9591 18.8832 24.1901 -1.52975 -0.587337 0.433799
25.7853 20.9595 23.5492 0.740181 -0.0571346 -1.5166
23.6193 21.4006 25.1887 -0.264607 -1.34614 0.778758
15.9422 23.8276 22.8925 0.480106 -1.93863 0.273131
17.2622 24.4377 25.2019 -1.07582 -0.604336 -1.25736
15.9559 22.0381 25.0343 -0.0549444 -0.543391 -0.630912
19.9607 24.153 25.1035 -1.59558 1.36568 0.440364
18.52 25.254 22.9204 -1.22522 1.27979 1.00653
18.4084 22.1367 26.28 -2.19579 -0.424312 -0.358826
18.3839 22.5718 23.4412 1.91806 -0.714883 0.035629
21.1414 21.9538 26.4466 -1.37956 -0.668572 -0.729424
21.3322 21.9488 23.7168 0.767391 -1.07136 1.02492
24.0224 23.0389 22.9869 -0.992664 0.862522 -1.10829
22.6372 23.9391 25.1447 0.673369 0.445359 1.60598
ITEM: TIMESTEP
1000
ITEM: NUMBER OF ATOMS
92
ITEM: BOX BOUNDS ss ss ss
1.4542855161375943e+01 2.5989059496338069e+01
1.3606555410616251e+01 2.5866132016973307e+01
1.3955533522354941e+01 2.7201747593846338e+01
ITEM: ATOMS x y z vx vy vz
20.4493 17.0185 15.6846 0.686624 0.125316 -0.881571
19.3051 15.7879 17.7564 1.23034 -0.321056 0.519303
21.699 14.9218 16.6542 1.61475 0.631844 0.0284916
23.7557 15.7503 18.4067 0.827325 0.545195 1.40354
23.2927 17.0897 16.1265 -0.452556 -0.200261 0.767658
17.3324 20.5086 16.1884 -0.0942049 -0.0533142 1.22957
18.1543 18.0936 16.9605 0.564998 0.13108 1.73895
15.9596 19.1331 18.1031 -0.053176 -1.05953 -2.63292
19.3166 19.4693 14.688 0.354771 -1.07571 0.604563
22.112 19.1509 14.9542 0.873316 1.24658 0.472728
20.5187 19.439 17.1848 1.0673 -1.08851 -0.895074
25.8812 20.7256 17.779 -0.586604 -1.08841 1.41404
23.6423 21.6442 14.1757 -0.468779 0.943117 1.12748
23.3599 19.2554 17.9391 0.659279 0.0555438 -0.907377
25.5365 17.7755 17.7592 -0.249716 0.0964467 1.22803
24.8198 19.7427 15.7089 0.112514 0.312949 -0.871825
22.4258 21.2667 16.4808 -0.684158 -1.3161 1.10969
17.8884 25.4841 16.8083 -0.0595956 -0.68721 0.775112
18.1956 21.902 13.953 0.570129 1.36312 1.27248
15.7621 21.8556 18.3601 0.464293 -0.130873 0.951508
16.9547 23.1638 15.9918 1.21608 0.157686 -0.123137
15.7057 24.6128 18.4077 -0.595063 -0.263247 -0.379505
19.4713 22.1181 16.4135 -1.00065 -0.50299 -0.584132
20.2861 24.7992 17.3513 -0.252444 -0.742208 0.657384
20.8874 21.5059 14.0601 -0.110388 0.74827 1.34964
21.7815 23.6605 15.3835 -0.0215827 2.0971 -0.768101
19.1914 24.2306 14.8114 -0.571981 0.0354552 0.727808
24.7464 22.5333 16.291 -1.03296 0.252676 -0.100672
23.018 24.069 17.8238 0.535932 -1.13206 0.116624
16.8698 16.834 18.9847 1.48425 0.232192 0.164188
16.935 16.4421 21.7692 -0.633164 -1.45489 -0.927335
21.3449 16.4989 21.2583 -0.212255 1.66635 -0.899801
21.3044 14.5764 19.1911 0.0910122 -0.306573 0.821913
20.6824 13.6669 21.5113 0.922225 -1.05958 0.323495
18.8118 15.2854 20.3511 -0.415746 0.210206 0.774415
21.5404 17.2009 18.2998 -0.794728 0.545967 0.172115
25.6468 16.6382 20.2443 1.44855 -0.636539 1.47303
23.5492 14.9077 20.937 -2.22188 0.323658 -0.519621
14.5783 20.3993 20.3873 0.0600351 -0.129303 0.0333488
14.8082 18.6812 22.4142 0.255887 -0.604569 -1.27021
14.8069 21.7632 22.6102 2.00219 -0.106664 -0.233323
18.3741 20.564 18.6906 -1.93177 -0.2881 0.829
16.9542 19.0071 20.6326 -0.558796 0.856103 0.809022
19.233 17.9198 19.622 -0.943725 0.407 -1.55049
19.4317 20.8196 21.5838 0.153963 0.774376 -0.568336
21.614 19.2648 22.7833 -2.04966 -1.17886 0.0379372
19.0108 18.1 22.556 0.367336 -0.238369 -0.336468
21.3771 19.868 19.8883 -0.659922 0.517938 -0.468083
23.4305 18.0044 20.4217 0.962719 0.492576 -0.163414
25.7447 18.5464 22.4849 -0.945553 -0.790438 -1.62646
23.8397 20.4049 21.7701 -0.246125 -1.04346 0.817499
25.8335 19.4807 19.9794 -0.316895 -1.62899 0.409445
23.6686 21.5274 19.1663 -0.164384 -0.356398 -1.05248
14.6362 23.2884 20.531 -0.351045 -0.0500828 0.677209
18.1017 23.4023 18.6614 -0.386262 0.878163 0.25326
16.9336 22.0588 20.8227 1.37366 -1.1227 -0.0144069
16.8172 25.0531 20.7866 0.111269 -0.238036 0.0638278
21.927 22.4414 21.1599 -1.26448 -0.320779 -1.09089
20.8359 22.2546 18.634 -1.08578 0.419096 0.811719
18.7288 25.8497 19.4255 -1.47708 -0.696118 0.140663
21.3922 25.0195 19.8954 1.06523 0.0263532 0.636776
19.4585 23.6085 21.0876 -1.43627 -0.672921 0.668733
21.6768 24.8575 22.5511 0.364937 0.903836 0.0166099
25.6505 23.3936 18.7272 -0.146622 -0.381297 -2.45692
23.8103 24.2388 20.4189 -0.391182 -0.241387 0.45234
25.783 22.133 20.9968 0.971026 0.675252 -0.469546
16.6877 17.5414 24.2153 -0.404462 0.489012 -0.0912903
21.4924 16.9553 24.3959 1.28972 1.493 -0.932484
19.2716 17.764 25.4057 -0.40211 0.0515779 -0.493246
19.3713 15.6568 23.1246 -1.30155 1.12387 -0.183097
22.1876 14.7054 23.2049 -1.03261 0.290461 -0.190394
23.7803 16.8525 22.8449 -0.741221 -0.172143 0.346085
17.2609 19.4432 25.9172 -0.435803 1.57858 0.0261796
14.94 19.7728 24.8192 1.00239 -1.24822 0.503495
17.0697 20.0674 23.0734 1.46397 -0.00780646 0.369733
19.5946 19.6912 27.2633 0.952182 -0.264019 -1.49837
19.4952 20.3324 24.3737 0.286225 1.00458 0.593443
21.6357 19.3633 25.6987 0.924406 0.159405 0.409297
23.9119 19.0207 24.3171 -0.406477 1.65968 -1.87796
25.6853 21.0868 23.509 0.552888 -0.908971 0.698096
23.5156 21.5248 25.1534 -0.55905 -1.47391 1.04302
15.9785 24.1195 23.1389 1.27495 0.180393 0.332651
17.3625 24.3361 25.3003 1.65634 1.08395 -0.832053
16.0954 21.9964 25.0798 -1.35264 0.354491 -0.219011
20.0989 24.1228 24.9101 -0.202196 0.0506792 -0.660249
18.5491 25.3508 22.9487 -0.454975 0.362546 -0.10781
18.5291 22.102 26.3292 0.0612319 0.124725 -0.986558
18.2677 22.6503 23.4316 0.452679 1.00803 -1.63459
21.1771 21.9671 26.5335 0.271699 -1.07691 0.736146
21.2871 22.0141 23.7382 -0.789302 -1.11997 -1.05801
23.8737 23.1578 22.9859 -0.479682 -0.366298 -0.862439
22.6301 24.0367 25.1861 0.828635 1.15934 0.480369
ITEM: TIMESTEP
2000
ITEM: NUMBER OF ATOMS
92
ITEM: BOX BOUNDS ss ss ss
1.4542855161375943e+01 2.5989059496338069e+01
1.3606555410616251e+01 2.5866132016973307e+01
1.3955533522354941e+01 2.7201747593846338e+01
ITEM: ATOMS x y z vx vy vz
20.4042 17.273 15.6392 -0.949843 0.829179 -0.310268
19.2001 15.7881 17.9005 -0.59291 -1.10205 -0.441632
21.6216 15.228 16.6435 0.727387 0.64312 1.21767
23.764 15.8412 18.4884 0.58331 0.488706 1.32854
22.9979 17.499 16.2302 1.01192 -0.138268 -1.35012
17.1543 20.7192 16.2082 -0.584278 -0.11687 -0.249337
18.141 18.1516 17.0705 -1.31109 -0.279734 0.747711
15.9181 19.1354 18.2852 1.38368 -0.12593 -0.43134
19.2811 19.6409 14.7519 0.260181 1.10381 -0.536235
21.8742 19.4819 14.8385 -0.155865 -0.322059 0.440585
20.4934 19.4819 17.3577 -0.658705 0.863183 0.29137
25.9504 20.6875 17.7002 -1.02288 -0.60729 -0.32812
23.4734 21.7382 14.0569 -0.81673 -1.14731 0.404041
23.3768 19.4539 17.9999 -1.14366 -0.0109177 1.61417
25.3832 17.811 17.8189 0.238031 -0.473821 0.171472
24.619 19.847 15.527 0.909099 -0.177393 0.0124862
22.3575 21.5169 16.589 0.673389 -0.340611 0.856763
17.7747 25.6007 17.2148 -1.5275 -0.283155 0.00797208
18.163 21.9334 14.0107 2.00722 0.493474 0.933502
15.7053 21.8642 18.0729 -0.763613 0.468472 0.845353
16.8216 23.4824 15.8684 0.818961 0.0298742 0.322483
15.488 24.4781 18.1432 0.61485 -1.01532 0.11069
19.6384 21.8919 16.2922 -0.0268637 0.130758 -1.2369
20.3335 24.5077 17.4663 1.14789 -0.845197 0.550858
20.8313 21.909 13.9444 0.211711 -0.0693195 -1.25393
21.8481 23.7869 15.2347 1.30891 -0.385551 1.04157
19.2777 24.3407 15.1685 0.234619 -0.643871 -0.889006
24.8757 22.4916 16.151 0.921911 0.224373 0.854386
23.1664 24.0885 17.7193 0.635149 -0.76188 0.373262
16.848 16.8024 19.2372 0.348418 -0.320427 0.821481
16.78 16.5326 21.9652 0.268521 0.727327 -0.245871
21.161 16.5578 21.5276 0.34141 1.47369 -1.14388
21.4257 14.7406 19.334 1.06781 0.450232 0.837751
20.6984 13.7271 21.6438 0.535418 0.679429 -0.658402
18.8742 15.4818 20.6487 -1.05463 1.05361 -0.0110389
21.5451 17.2124 18.4935 -2.43989 -0.987018 0.618474
25.7629 16.6179 20.3334 -0.790233 -0.219745 -0.473951
23.555 15.0034 21.0937 0.899735 0.366023 -1.04685
14.5176 20.4295 20.2251 0.248937 0.388649 0.767063
14.9543 18.5537 22.1805 -0.594072 1.35621 2.02176
14.6816 21.37 22.5188 0.136326 -0.509627 -0.672801
18.3858 20.5454 18.6225 1.80387 0.539834 1.34268
17.0722 19.1218 20.7145 2.16071 1.3097 0.613598
19.3509 18.0963 19.6727 -0.692788 -0.101444 1.12259
19.3879 20.6145 21.5542 1.946 -0.835337 -0.276469
21.6424 19.0956 22.9122 0.0270627 -1.09884 -0.613827
18.9966 18.0148 22.553 -0.101562 -0.754505 -0.0169542
21.684 19.7846 20.0606 -1.83539 -0.0773707 -0.198279
23.5001 17.8307 20.4042 -0.275917 1.14053 0.104678
25.8567 18.3999 22.3527 -0.712339 1.58409 0.113416
23.8409 20.3052 21.9811 -0.202639 -0.322605 -0.0390135
25.6115 19.538 20.0438 -0.260247 -1.48749 -1.553
23.7227 21.7972 19.1562 -1.08537 -0.659971 -0.644748
14.6742 23.1877 20.3139 -1.75213 0.505015 -0.541391
18.1172 23.2193 18.4036 1.76476 0.577864 0.705143
16.852 21.8674 20.8702 0.122418 1.35706 1.42733
16.8405 24.6887 20.3404 -0.955231 0.626409 -0.631715
21.9983 22.366 21.1592 -0.548396 -1.61752 -0.56148
20.7523 22.1084 18.8462 1.47375 -0.546516 -0.486259
19.0385 25.8375 19.5871 0.895336 0.0960082 0.565862
21.6899 24.7861 19.9345 -1.31331 -0.333633 -1.25839
19.3492 23.356 20.9091 0.430989 0.665486 -0.844521
21.2853 24.7739 22.6215 0.866269 -0.705821 0.116273
25.9002 23.3263 18.548 -0.231047 0.242519 0.216302
24.1873 24.2897 20.3398 -0.734637 1.35798 -0.614884
25.8131 22.1186 20.9793 -1.30214 0.624266 0.53412
16.7277 17.6538 24.3393 -0.622893 -0.883424 -0.0558106
21.3947 16.9443 24.5861 -1.22027 -1.55688 -0.0157621
19.1006 17.4873 25.3964 -0.148527 -2.1598 -1.85188
19.3902 15.5264 23.4341 0.430308 -0.582831 1.12242
22.1141 14.8148 23.402 2.98796 1.31007 -0.285718
23.6335 16.9977 22.9541 -0.943478 -0.112913 -0.828353
17.2386 19.7477 25.9907 0.583861 -0.214008 -1.47789
14.833 19.6185 24.7228 0.0129148 0.0343133 0.400498
16.9932 20.1981 23.2543 1.15996 -1.49689 0.0506634
19.463 19.682 27.1233 -0.478804 0.389531 0.825726
19.4499 20.1033 24.3902 0.469386 1.88542 0.787526
21.8879 19.3189 25.6563 0.837008 -0.412054 -1.0525
24.3794 19.084 24.5022 -0.818302 0.482071 -0.570197
25.9733 21.0411 23.4322 0.436086 0.902846 0.634692
23.6141 21.3876 24.8467 -1.61622 -1.69522 1.17797
16.0066 23.7789 22.7736 -0.627697 0.486195 -0.401525
17.4359 24.5528 25.0302 0.102797 -0.717046 -0.0183953
16.104 22.201 25.0238 0.750812 -0.809891 0.0486332
19.992 23.9873 25.006 -1.78111 0.663145 0.332307
18.4764 25.2414 22.7608 -0.56512 0.477381 1.21659
18.4821 22.1736 26.1479 0.910662 -0.341961 0.201206
18.3885 22.5399 23.4612 -2.14952 0.918053 -0.894392
21.0506 21.8435 26.3265 0.483337 -0.47712 -1.31549
21.2646 21.9292 23.5316 -1.1866 1.6267 -0.4815
24.083 22.9906 22.8772 -0.198817 -1.30678 -1.42836
22.576 23.7276 24.8963 0.602222 0.618633 -0.613243
ITEM: TIMESTEP
3000
ITEM: NUMBER OF ATOMS
92
ITEM: BOX BOUNDS ss ss ss
1.4542855161375943e+01 2.5989059496338069e+01
1.3606555410616251e+01 2.5866132016973307e+01
1.3955533522354941e+01 2.7201747593846338e+01
ITEM: ATOMS x y z vx vy vz
20.5876 17.151 15.7775 -0.783246 0.00612919 -0.0158654
19.3275 15.8817 17.8453 -0.103477 0.381189 -0.687381
21.8727 14.9792 16.7411 -0.80052 0.524575 1.58466
24.0964 15.8822 18.3095 0.448692 -1.18994 -0.189683
23.224 17.1966 16.0101 -1.34585 0.00373669 3.11509
16.986 20.552 15.9941 -0.7064 1.35458 -1.11927
18.1483 18.1692 16.9337 -0.31864 -0.0257731 -3.38311
15.8716 19.1057 18.0716 -1.50672 -0.908271 -0.117974
19.1285 19.4352 14.7064 0.0623325 0.187722 0.492988
21.7611 19.4286 14.854 -0.899136 0.657252 0.053013
20.5727 19.5515 17.5089 1.00424 0.426185 -0.441487
25.8234 20.6603 17.3097 0.765935 0.575732 1.62122
23.4482 21.5584 14.0719 -0.603366 0.495678 0.246809
23.3833 19.1203 17.8704 -0.0226793 0.698903 0.934108
25.6897 17.8454 17.4893 -0.0358828 0.126967 0.321482
24.4229 19.5129 15.467 -0.496426 -0.721191 1.22289
22.4418 21.3993 16.7029 0.0143281 0.213033 -0.325066
18.0409 25.4498 16.9934 -0.92833 0.0187441 -1.60164
18.0753 22.0138 14.1712 -0.520772 -0.248565 1.02177
15.8535 21.8843 18.256 1.14944 -1.67382 0.640809
16.926 23.1778 16.2915 0.538406 -0.21922 1.28865
15.8933 24.5718 18.6142 0.617647 -1.75241 0.700388
19.4705 21.8091 16.4085 -0.788628 0.471679 0.551053
20.4506 24.5229 17.3809 -0.109317 -0.737727 1.62388
20.6718 21.7698 13.9366 -0.431153 0.112331 -0.39487
22.1402 23.6021 15.3228 -0.829852 1.22544 -0.580646
19.4432 24.0605 14.9362 0.5749 -0.224591 -0.801701
24.784 22.7953 15.9651 -0.599991 0.291607 -0.839845
23.1435 23.9921 17.8507 -1.87913 -0.259213 0.437305
16.976 16.9076 19.1471 2.22998 -0.196142 0.955826
16.9885 16.4516 21.9856 0.255378 0.453955 1.41844
21.1936 16.888 21.5659 1.03293 1.16739 0.78814
21.2696 14.5076 19.2353 1.38611 0.0218284 0.89819
20.544 13.946 21.6323 1.74252 0.494889 -0.183639
18.9948 15.5217 20.5048 -1.11211 0.206977 -1.39807
21.6294 17.0725 18.4785 -0.864217 -0.700491 -0.520918
25.8214 16.8093 20.1487 -0.282637 -1.16604 -0.947078
23.3056 14.9882 20.7369 0.0664638 0.602155 -1.66877
14.6621 20.3138 20.2497 0.635248 -0.089794 -0.089883
15.0002 18.3217 22.1622 -1.27911 0.781734 -0.679894
14.4709 21.3158 22.5333 -0.220386 0.358768 -0.621195
18.2258 20.5491 18.7367 -0.30098 0.182333 0.454018
17.1237 19.0725 20.6543 -0.804797 2.28889 -1.39661
19.4166 18.119 19.5865 0.890954 0.195463 0.544121
19.4561 20.7902 21.3451 0.496903 -0.598055 -1.24221
21.5857 19.4941 23.0432 0.0215488 0.651608 0.208304
19.1759 18.3304 22.5741 0.676472 -1.31222 -0.360568
21.6033 19.7931 20.1351 0.650577 -1.4976 -0.0300074
23.4548 17.8868 20.5929 0.0379896 -0.300626 0.452634
25.7481 18.5497 22.1148 -1.24024 -0.0611116 0.964683
23.7541 20.4013 21.8213 0.321356 -0.581151 0.16831
25.7492 19.5292 19.7453 1.34277 -1.11248 1.0452
23.8483 21.5276 19.1098 -1.16051 -0.804297 0.542394
14.5998 23.108 20.4974 1.40715 -0.575436 1.12736
18.1801 23.2781 18.7392 0.199932 -0.18822 -0.264448
16.9304 22.003 20.876 -1.46643 -0.783272 -0.9819
17.0651 24.9458 21.1081 0.910347 1.41836 1.00055
22.1893 22.6585 21.2082 -0.00821992 -1.04926 -1.00977
20.86 22.2274 18.879 1.18814 0.746153 1.77906
19.0194 25.7493 19.3923 0.730427 0.148191 0.115915
21.6524 24.9077 19.8317 -1.32624 0.185499 -1.65067
19.6357 23.6466 21.087 0.693344 1.24062 0.473641
21.4406 24.8031 22.9286 -0.454802 1.20428 -0.676148
25.8583 23.0344 18.6166 1.24073 -0.00672209 0.760694
24.1571 24.0533 20.3475 -0.0232487 -1.26372 1.09783
25.8289 21.9331 21.0193 0.726881 0.91642 -0.642483
16.785 17.7944 24.3023 -0.830919 -0.90243 -0.903378
21.6439 17.063 24.3127 1.08171 -1.09129 0.867817
19.2404 17.8622 25.4033 0.382137 -0.3381 -0.814362
19.3408 15.7119 23.4572 -0.864434 0.229625 -1.42988
22.1269 14.7839 23.1524 0.650546 0.607793 -0.103266
24.0339 16.5703 22.8233 -1.25034 -0.245194 1.14673
17.0172 19.7049 26.1555 -0.676858 0.0324906 -0.306215
14.6182 19.4012 24.5165 0.290893 1.23785 -0.504041
16.9734 20.2151 23.0987 -0.114893 0.0419683 0.332526
19.4629 20.0164 27.2794 0.1149 -0.181341 0.215206
19.2861 20.3435 24.5919 -0.590185 0.00410058 -0.359355
21.6686 19.4672 25.7487 1.37476 -0.14761 -0.765581
23.9432 18.6714 24.2539 0.0148269 -0.132979 -0.376452
25.6459 21.0615 23.4357 1.58316 0.231928 -0.682408
23.3447 21.2592 24.7008 -1.03626 0.592494 -0.346636
15.7703 23.684 22.8386 0.629383 -0.512759 -0.0912261
17.0909 24.4327 25.0208 0.846738 -0.588716 0.353646
15.7389 22.0224 24.9884 -1.5732 -0.231527 0.902168
19.7626 24.1303 25.1974 0.529529 -0.64793 -0.226131
18.5899 25.3154 23.1172 0.0408312 0.071864 -1.8475
18.2133 22.2228 26.2017 1.25347 0.336863 -0.174491
18.2213 22.7303 23.213 -2.02816 0.504916 -0.571777
21.0444 22.0076 26.4432 1.71677 0.768975 -0.0412067
21.025 22.2753 23.7021 0.847851 -0.184161 -0.796247
24.0322 23.1622 23.0829 -0.47261 -0.994888 -0.107347
22.626 23.9165 25.1416 -1.72627 0.748425 0.840795
ITEM: TIMESTEP
4000
ITEM: NUMBER OF ATOMS
92
ITEM: BOX BOUNDS ss ss ss
1.4542855161375943e+01 2.5989059496338069e+01
1.3606555410616251e+01 2.5866132016973307e+01
1.3955533522354941e+01 2.7201747593846338e+01
ITEM: ATOMS x y z vx vy vz
20.5534 17.1834 15.6877 -0.858301 -0.134733 0.0333936
19.359 15.9048 17.8082 2.02027 -0.311685 0.956485
21.7674 15.1118 16.7756 -0.420474 0.730598 -1.05777
23.8754 15.8148 18.6325 -0.081363 -0.0405866 -1.27329
23.6137 17.2139 16.1738 -0.128952 -0.791765 -0.298307
16.9843 20.7762 16.0179 -1.58472 -0.117969 0.779583
18.1932 18.2017 17.1331 0.841573 -0.150357 -0.390313
15.8707 19.2006 18.2179 -0.206797 -0.618653 -0.389178
19.2187 19.5406 15.0865 1.59027 -0.0352135 2.16642
22.0539 19.2662 15.2542 2.05405 1.11572 -0.237533
20.519 19.5721 17.4505 -0.575856 1.07152 -0.0863236
25.9275 20.8607 17.807 -0.791712 1.61947 0.354563
23.3193 21.6012 14.0905 -0.66988 0.260395 -0.104348
23.5396 19.1394 18.0878 1.14317 -0.299255 -0.61924
25.6917 17.9254 17.7595 0.771457 -0.786275 0.179472
24.6489 19.8996 15.695 0.570322 0.141934 -1.22898
22.3946 21.5685 16.8109 0.143191 -0.0194014 1.39551
17.7982 25.6785 17.2015 -0.390758 -1.49147 -0.796393
18.1877 21.9247 14.11 0.963584 1.15208 0.159969
15.6605 21.7987 18.1154 1.11377 0.310295 0.906947
16.8706 23.4808 16.0451 -0.903288 -0.118837 -0.538881
15.6223 24.5472 18.19 0.798496 -1.00162 -1.46262
19.3929 22.0809 16.4293 1.48028 -0.319616 -0.695639
20.3656 24.7137 17.3483 -0.214841 1.55139 -0.208859
20.7134 21.823 14.1564 0.0448377 0.190284 -0.248136
21.9655 23.7857 15.2768 0.39305 0.162322 -1.24808
19.1694 24.3663 14.9875 -0.237912 0.389625 0.749877
24.6861 22.7308 16.1065 0.437369 -0.875685 -1.55898
23.1285 24.2084 17.8185 1.44812 -1.1398 -0.653515
17.0512 16.8508 19.2009 -0.747235 -0.0885034 2.46534
16.8719 16.4525 22.0234 -0.901467 0.458039 0.432914
21.1139 16.6198 21.4575 0.233163 0.331305 -0.100373
21.2054 14.5969 19.3258 -0.111635 -0.207886 0.697102
20.518 13.7344 21.5809 -0.732504 0.48597 -0.336188
18.8051 15.4761 20.6067 -0.833852 0.59119 -0.730645
21.6652 17.2236 18.4096 0.258781 -1.98388 0.891792
25.6377 16.7287 20.2888 -1.11163 1.36528 -1.17739
23.289 14.8607 20.907 -1.13781 -0.447695 -0.619183
14.6798 20.2454 20.3124 -0.689409 0.895287 0.199077
14.9957 18.3261 22.3636 1.48233 -1.18751 0.814465
14.6763 21.2334 22.5624 -0.153501 -0.161208 1.2554
18.1476 20.7321 18.7265 -0.107183 0.483733 -0.763066
17.0412 19.1473 20.6898 0.195223 -1.27087 0.418929
19.3618 18.1568 19.7275 1.27886 -0.920324 1.78869
19.4189 20.7117 21.3765 0.839046 0.56332 -1.43254
21.6803 19.1146 22.9253 0.778575 -0.208083 0.537694
18.9632 18.0676 22.6841 -0.819541 0.0367367 0.981354
21.6492 19.8683 20.0638 -0.388026 0.371331 -0.280533
23.3841 17.8659 20.6235 -1.27716 0.455125 0.118749
25.763 18.271 22.4553 0.479718 -0.562969 -1.21193
23.8235 20.5201 21.8642 0.587842 2.11264 -1.56732
25.7781 19.4837 20.0551 -0.960031 0.266719 -0.281446
23.8291 21.6575 19.132 0.522832 -0.564722 -0.686951
14.5828 23.237 20.4139 0.996129 -2.40908 -1.35588
18.0822 23.363 18.4647 -0.6772 0.501055 -0.048055
16.938 21.9267 20.8882 0.520836 -0.407729 0.0483037
16.9686 24.806 20.4752 0.266365 -0.382209 0.714439
22.137 22.4453 21.0106 -0.623127 0.318542 -0.590574
20.762 22.3344 18.7405 -0.174637 0.024542 0.251974
19.1426 25.8096 19.6524 0.797611 0.154694 1.22227
21.4302 24.871 19.8831 0.59964 1.07717 -1.36566
19.3968 23.4459 20.9414 -0.871843 -0.226776 -0.265045
21.4892 24.7201 22.577 -1.32716 0.47036 1.25413
25.8297 23.3432 18.4368 -0.277958 0.257799 0.0886951
24.1589 24.2897 20.2981 1.0435 0.996847 1.27575
25.7928 22.0486 20.6798 -0.283111 0.00340587 -0.853559
16.8671 17.6508 24.4847 1.01474 -0.251988 -0.901085
21.4868 16.8857 24.3375 -1.54976 -0.364238 0.467379
19.1911 17.6237 25.6946 -0.882014 -0.765452 -1.4423
19.2509 15.5297 23.321 -0.677313 -0.77367 1.40859
22.0484 14.6472 23.2673 -1.12943 0.273573 -0.646038
23.9496 16.4835 22.906 -0.286795 0.422374 1.10946
17.2128 19.6279 26.1798 -2.11219 0.0685528 2.30693
14.7909 19.5111 24.6448 1.00803 1.22285 0.480047
17.1529 20.0911 23.1993 1.0107 0.907168 0.576897
19.5084 19.8638 27.1878 1.54705 -0.727556 -0.744018
19.4304 20.1765 24.5316 0.411819 0.773886 -0.365635
21.727 19.1907 25.6271 0.13669 -0.803791 -0.693632
23.9519 18.803 24.2155 -0.786241 -0.311319 0.447095
25.7193 20.9576 23.4376 0.426347 -0.59509 -0.00440988
23.3339 21.2848 24.66 -1.31773 1.08246 1.26848
16.0176 23.8058 22.7304 -0.0691661 -0.753419 -1.37892
17.2177 24.4373 24.9303 0.525905 0.373297 -0.6407
15.9972 22.0312 24.8202 -0.183563 1.48593 -0.450058
19.963 24.2308 24.9546 0.439031 0.048254 -0.0361455
18.5765 25.2184 22.6134 -1.74504 0.077225 2.49506
18.4997 22.1725 25.972 -1.91081 -1.24783 -0.381862
18.3705 22.6426 23.33 1.0024 -1.35181 0.998158
21.1282 21.8858 26.2216 -0.710568 0.557568 -0.594739
21.0848 22.0282 23.419 0.799482 0.528969 0.97909
24.1028 23.1257 22.7182 0.380504 -1.37762 -0.52043
22.6099 23.9296 24.8374 -0.76545 -0.13268 -0.113796
ITEM: TIMESTEP
5000
ITEM: NUMBER OF ATOMS
92
ITEM: BOX BOUNDS ss ss ss
1.4542855161375943e+01 2.5989059496338069e+01
1.3606555410616251e+01 2.5866132016973307e+01
1.3955533522354941e+01 2.7201747593846338e+01
ITEM: ATOMS x y z vx vy vz
20.2676 17.3854 15.7843 0.274691 1.62238 0.360522
19.1666 15.695 17.7093 0.701563 1.55526 0.286087
21.8642 15.1228 16.7513 -0.106491 0.244503 0.0995907
23.9849 15.9778 18.3967 0.884942 -0.499142 -1.40136
23.2252 17.4537 16.146 -1.10834 -1.08427 1.04948
16.8948 20.552 16.0623 -0.415701 -0.0814114 -0.981384
18.0517 18.2095 17.0734 0.120482 0.633229 0.653247
15.7407 19.1989 18.1308 -0.899351 -0.0875793 -0.763669
19.0441 19.5607 14.8764 -1.47499 0.780034 1.49715
22.0449 19.42 14.8107 -0.562936 0.0584539 0.269795
20.705 19.5038 17.2765 -1.33327 1.80937 -0.449933
26.0658 20.6656 17.5406 1.64122 -0.370395 0.321845
23.2975 21.6189 14.0527 0.550627 -1.53875 -1.31919
23.3632 19.1722 17.9948 0.000531285 -1.6865 -0.843309
25.6868 17.8898 17.8494 -0.595199 -0.415194 0.641361
24.6795 19.6941 15.7121 1.94727 -0.67487 0.193589
22.419 21.52 16.6779 0.0276196 0.294451 0.481955
18.0347 25.4784 17.096 -0.105123 -0.1167 1.7158
18.1334 22.0445 14.2147 0.138715 -0.610989 -0.611412
15.7861 21.8031 18.2119 -1.14729 0.763482 -0.249361
16.8668 23.3634 16.2482 -1.18854 0.796565 0.597778
15.7436 24.517 18.3549 0.327741 0.454809 0.119061
19.4296 21.8529 16.4883 -0.0755289 1.70799 0.760654
20.519 24.6791 17.4042 -0.571714 0.540484 -0.620255
20.7122 21.6514 14.2037 -0.438455 -0.792607 -1.1396
21.8966 23.721 15.3735 0.2063 -0.668757 -0.527317
19.1753 24.3829 15.1604 -1.35844 0.113677 2.11077
25.0212 22.4991 16.22 -0.326999 -0.126823 -0.541264
23.1916 23.9598 17.773 0.560135 -0.831081 0.834963
16.7852 16.6602 19.0609 0.585906 -0.893798 -0.494528
16.9553 16.5087 21.8086 1.0404 -0.0145768 0.478033
21.1302 16.5975 21.4321 1.32624 0.458984 -1.75626
21.4292 14.5352 19.2355 0.614691 -0.0820673 -0.369698
20.7387 13.9551 21.7308 0.0988827 -1.09575 0.30123
18.8185 15.3083 20.3251 -0.0995676 -1.44309 1.21216
21.4844 17.0912 18.4707 -0.441234 1.00503 -0.700138
25.641 16.6904 20.4069 0.399956 -1.36689 -0.114658
23.308 14.9835 20.9348 -0.181684 0.0121212 0.159888
14.6197 20.2879 20.194 0.26143 -0.979721 0.136345
14.8868 18.5314 22.2759 -0.374157 0.527833 -0.878053
14.5966 21.3385 22.6093 0.974164 -0.629091 -0.562881
18.2635 20.4673 18.6894 -2.68173 0.384936 -0.196208
16.9935 18.9916 20.6524 -0.0405084 -0.163597 0.978268
19.2655 17.9652 19.7042 0.581913 1.36555 -0.251375
19.3686 20.5874 21.4339 0.439394 -0.243139 -0.697118
21.5982 19.2579 22.6676 0.98234 -0.416623 0.17411
18.9997 18.0769 22.647 1.03623 0.712019 -0.633935
21.4586 19.9022 19.8394 -1.9803 0.150566 0.265254
23.2404 18.0141 20.5771 1.19757 0.687209 0.924564
25.863 18.6586 22.4348 0.94985 0.593169 0.615649
23.9028 20.4166 21.9127 -0.198744 1.25077 -0.831015
25.5265 19.352 19.9749 0.436291 -1.51725 -0.461543
23.9219 21.672 19.1218 -0.00149826 0.394221 -0.391011
14.6956 23.166 20.4414 -0.642323 -0.265968 -1.35025
18.288 23.3082 18.7157 0.33508 0.888381 0.208906
16.9969 21.896 20.921 1.74188 -0.9437 -1.71678
16.9665 24.8039 20.7611 2.12186 0.605314 -0.107033
22.0664 22.296 21.1519 -0.403213 -0.0399111 0.812436
20.886 22.4055 18.8092 0.665398 -1.32108 -0.855044
19.1693 25.8103 19.5769 -0.668207 0.0814016 -0.103196
21.6427 24.9697 19.962 -0.354896 0.230219 -1.36714
19.5834 23.4216 21.1323 1.04114 0.894344 1.393
21.6022 24.8554 22.5609 1.9872 -1.08002 0.393818
25.7639 23.4185 18.5031 -1.07564 0.228427 -0.151979
24.0483 24.2011 20.4067 -0.579984 -0.857566 -0.506645
25.8207 22.0161 20.9003 0.46966 0.0610016 -0.145873
16.8186 17.5771 24.2265 0.714343 -0.399446 0.268856
21.7792 17.0219 24.3664 1.46378 -0.60054 -0.240573
19.1682 17.6402 25.3822 -0.0423207 1.11438 0.269069
19.5652 15.5144 23.4934 -0.646829 1.69542 -1.74962
22.1903 14.7393 23.4438 -1.73961 0.051882 0.896638
23.9333 16.7299 22.8731 0.806827 -0.353719 0.543535
17.1139 19.5613 25.9182 0.100627 -0.346916 1.22591
14.7065 19.5449 24.8268 -0.523326 0.876003 -0.534762
17.0421 20.1562 23.1577 0.837375 -0.382615 1.24301
19.3939 19.9985 27.0751 0.81548 -0.115466 -0.103114
19.4914 20.2344 24.4028 1.15273 -1.01309 -0.874999
21.5621 19.2138 25.6137 -0.973751 -0.533392 1.9014
24.0739 18.9197 24.3062 -0.0334841 -0.148845 0.544768
25.8037 21.1371 23.5291 -0.818759 1.10033 0.847113
23.2812 21.3626 24.7921 1.01822 -1.33846 1.87173
15.971 23.7477 23.0021 -1.19762 0.177028 0.125742
17.4912 24.5801 25.0119 -1.51666 -0.713708 -0.540982
15.8252 21.9988 24.9868 0.332521 -0.568302 -0.696216
19.9337 24.3004 24.6962 -1.64044 0.713581 -0.134509
18.7118 25.404 22.5963 -0.0831499 0.245891 0.136584
18.2717 22.2376 26.1046 -0.180382 1.06389 -0.468187
18.2452 22.5298 23.3277 0.853941 0.231165 0.0729187
20.8939 21.9591 26.2223 -1.45794 -0.645404 -0.658506
21.1295 22.1647 23.48 -0.0145758 1.59072 0.0655017
24.072 23.1843 22.796 -0.361935 -0.556624 -1.08098
22.5339 23.8714 25.1327 -2.10234 -0.111037 1.11279
ITEM: TIMESTEP
6000
ITEM: NUMBER OF ATOMS
92
ITEM: BOX BOUNDS ss ss ss
1.4558377846686950e+01 2.5948010678664577e+01
1.3896732151237423e+01 2.5809375803154595e+01
1.4024005346587298e+01 2.7006702983690200e+01
ITEM: ATOMS x y z vx vy vz
20.5609 17.304 15.7673 -0.831675 -0.38006 1.06383