ITEM: TIMESTEP
0
ITEM: NUMBER OF ATOMS
923
ITEM: BOX BOUNDS ss ss ss
6.7537728342205368e+00 3.4036227165779451e+01
4.4243038103274310e+00 3.6365696189672569e+01
4.2030170926132735e+00 3.6586982907386727e+01
ITEM: ATOMS x y z vx vy vz
17.1824 12.0716 8.04009 1.84316 -0.424016 -1.07494
14.4553 16.2475 7.94997 -0.634083 0.660984 -0.229621
16.7282 14.7327 7.03678 0.801454 0.0501321 0.467347
21.2031 12.7083 7.90839 -0.467126 1.01079 -1.45116
19.001 13.2179 6.12359 -0.504503 -0.369908 0.500223
20.7489 15.3694 6.90508 -0.235583 0.921934 -0.730232
18.5468 15.879 5.12029 -1.93051 -2.29554 1.75123
20.8197 14.3643 4.2071 -0.716106 2.37093 -0.9898
25.2238 13.3449 7.77668 -0.388294 0.192184 -0.129332
23.0217 13.8546 5.99189 -1.30385 0.233537 1.21572
24.7696 16.006 6.77338 1.0202 0.760623 -1.47555
14.0011 18.9086 6.94667 -1.18128 1.46015 -0.444387
16.274 17.3938 6.03348 -0.555602 -1.92462 -0.668291
18.0218 19.5453 6.81497 0.108666 0.0668034 0.415207
18.476 16.8842 7.81827 -1.23168 -0.428891 -1.2317
20.2947 18.0305 5.90178 -0.203622 -0.448116 1.92671
22.0425 20.1819 6.68327 0.202338 -2.63491 -0.0854393
22.4967 17.5208 7.68657 -0.304002 0.117216 2.0097
22.5675 16.5157 4.98859 1.08316 1.28463 1.5496
24.3154 18.6671 5.77008 1.14004 1.24276 0.478551
26.5175 18.1575 7.55487 -0.599267 -3.03381 -0.39838
11.7282 20.4234 7.85986 -0.451988 -0.040909 -0.862312
15.7489 21.0601 7.72816 0.835981 0.767339 1.45258
19.7697 21.6967 7.59646 -1.84745 -0.678667 0.627199
23.7904 22.3333 7.46476 -0.174482 -0.767447 0.0342441
26.0632 20.8186 6.55157 -0.901875 -0.223888 0.471256
27.8111 22.97 7.33306 0.660277 0.853795 0.29896
25.5382 24.4848 8.24625 2.32986 -1.55865 -0.384471
29.5589 25.1214 8.11455 -2.63925 -0.530456 1.33709
13.5451 9.77901 11.8731 1.47457 2.1608 1.2032
17.5658 10.4157 11.7414 0.447534 0.629618 -1.17266
15.3638 10.9253 9.95658 -1.22263 1.03482 1.93352
21.5866 11.0523 11.6097 -1.40624 1.78778 -0.118533
19.3845 11.562 9.82488 -0.517761 -0.98266 -0.0615729
25.6073 11.6889 11.478 1.15042 0.523963 2.34398
23.4052 12.1986 9.69318 -2.24366 0.228268 -0.575547
29.628 12.3256 11.3463 4.42991 -1.00288 0.49197
10.818 13.9549 11.783 0.628952 -2.16193 1.54373
13.0909 12.4401 10.8698 -1.20808 1.06784 1.73342
12.6367 15.1012 9.86647 -0.483831 -1.31916 0.0388358
14.8388 14.5915 11.6513 0.698037 1.14076 0.0847027
17.1116 13.0768 10.7381 0.342358 -0.0328475 1.32846
14.9095 13.5864 8.95328 0.312946 -0.757528 0.00930923
16.6574 15.7379 9.73477 -0.931122 0.27611 -1.73632
18.8595 15.2282 11.5196 -0.747506 -0.204153 1.56265
21.1323 13.7134 10.6064 0.199958 -0.233024 1.5366
18.9303 14.2231 8.82158 -1.25183 -0.0419213 -0.320995
20.6781 16.3745 9.60307 -0.860631 0.613963 1.27064
22.8802 15.8648 11.3879 1.45114 0.0066952 3.56923
25.153 14.35 10.4747 -0.0851096 0.740617 -1.52575
22.951 14.8597 8.68988 -0.541793 -0.616374 1.93246
27.3551 13.8404 12.2595 -0.977786 0.454916 0.465508
27.4259 12.8352 9.56148 0.776764 -1.54952 -0.862119
29.1738 14.9867 10.343 1.65632 -0.187888 -0.670955
26.9717 15.4963 8.55817 0.411245 1.03082 -0.698386
31.3758 14.477 12.1278 1.64427 0.340261 2.06937
8.09097 18.1308 11.6929 1.01786 1.01224 -0.764884
10.3638 16.616 10.7797 1.12831 -0.846722 -1.24976
9.9096 19.2771 9.77636 1.25057 -0.0623018 -0.320968
12.1117 18.7674 11.5612 0.762566 0.366439 -0.0310998
14.3845 17.2526 10.648 0.410853 -0.75237 -0.424228
12.1825 17.7623 8.86317 -1.21244 -0.618978 0.712861
13.9303 19.9138 9.64466 -0.398032 0.672865 0.825428
16.1324 19.4041 11.4294 -0.223085 0.423117 -2.08398
18.4053 17.8893 10.5163 0.0255722 -1.76751 -0.902367
16.2032 18.399 8.73146 1.35293 0.140425 -0.812242
20.1531 20.0407 11.2977 -0.95003 0.382529 0.000501615
20.2239 19.0356 8.59976 0.441695 -0.201957 1.53377
24.628 18.0163 12.1694 1.66759 -0.689089 2.34096
22.426 18.5259 10.3846 0.212082 0.114484 0.595079
24.6988 17.0111 9.47137 -0.542931 0.0656857 1.69997
24.2446 19.6722 8.46806 -0.427469 -1.96089 0.0299871
26.9009 16.5015 11.2562 -1.08194 -1.31679 0.150028
28.6488 18.6529 12.0377 -0.340792 2.5675 -0.293247
26.4467 19.1626 10.2529 1.05059 -0.836787 0.0660452
28.7195 17.6478 9.33966 -0.623212 0.104269 -1.67764
28.2653 20.3089 8.33636 0.248628 1.43273 0.490041
30.9216 17.1381 11.1245 -0.378501 0.421936 -0.550038
32.6695 19.2895 11.9059 -0.19164 3.48749 -0.580107
30.4674 19.7992 10.1212 -0.635599 -2.15182 -0.811411
7.63674 20.7919 10.6895 2.5601 -1.52756 -1.74898
9.3846 22.9433 11.471 0.783137 0.0120535 0.181277
7.18252 23.453 9.68624 -0.715904 -0.716839 0.504093
9.45538 21.9382 8.77305 -0.159415 1.36483 -0.129872
11.6575 21.4285 10.5578 -0.384052 0.425236 1.12557
13.4053 23.58 11.3393 -2.38606 -2.91083 0.357886
11.2032 24.0896 9.55454 -2.24473 -0.311257 1.26727
13.4761 22.5749 8.64135 0.0284585 -0.990691 1.58987
17.8803 21.5555 12.2109 -0.229797 -0.58957 0.52546
15.6782 22.0652 10.4261 0.812662 1.25776 -0.851397
17.426 24.2166 11.2076 1.57954 0.574797 -0.30691
17.951 20.5504 9.51295 -1.64858 1.43672 1.72579
17.4968 23.2115 8.50965 2.23434 -0.189984 0.0370399
21.901 22.1922 12.0792 2.1423 1.07935 1.45682
19.6989 22.7018 10.2944 -0.14986 -1.11563 0.666814
21.9717 21.187 9.38125 0.0539918 0.937101 -1.5876
21.5175 23.8481 8.37795 -1.91398 1.06612 0.604422
24.1738 20.6774 11.166 1.90009 -0.448069 -0.840766
25.9217 22.8288 11.9475 0.947672 0.425953 -1.00207
23.7196 23.3385 10.1627 0.952803 -2.46116 -3.02159
25.9925 21.8237 9.24955 -0.673256 0.356009 -2.13087
28.1945 21.314 11.0343 -0.835046 -2.18609 0.189216
29.9424 23.4654 11.8158 -0.15393 2.35215 -1.14082
27.7403 23.9751 10.031 0.518593 -0.297737 0.721847
30.0132 22.4603 9.11785 1.87026 1.84082 -0.701823
32.2153 21.9507 10.9026 -0.292101 -1.40399 -0.743807
8.93037 25.6044 10.4677 1.96722 -1.37968 -1.43169
11.1325 25.0948 12.2525 -0.858086 0.0457437 0.0572985
10.6782 27.7559 11.2492 1.52196 -0.175657 -0.264948
12.9511 26.2411 10.336 0.327897 0.657809 0.969498
15.1532 25.7314 12.1208 0.592193 -0.794593 0.188706
15.2239 24.7263 9.42284 -1.15944 0.295039 1.46616
16.9718 26.8777 10.2043 -0.421632 -2.00833 -2.26809
19.1739 26.3681 11.9891 0.759077 -1.12488 1.36065
21.4467 24.8533 11.0759 -3.21248 -1.23325 0.262863
19.2447 25.3629 9.29114 -0.907627 0.829315 -1.07056
20.9925 27.5144 10.0726 0.766024 -0.594593 -0.906527
23.1946 27.0047 11.8574 -0.817237 -0.82612 0.306439
25.4675 25.4899 10.9442 -0.195505 0.0850124 -1.92126
23.2654 25.9996 9.15944 1.76687 -0.793277 -1.2903
25.0132 28.151 9.94093 -0.601371 1.19245 1.93665
27.2153 27.6413 11.7257 -1.65441 -0.674977 1.14224
29.4882 26.1265 10.8125 2.4986 0.278451 -0.0930935
27.2861 26.6362 9.02774 -0.927021 0.434599 0.355404
31.236 28.278 11.594 2.27431 -2.39171 -1.40476
31.761 24.6118 9.89934 -0.645837 -0.856634 -0.0626317
31.3068 27.2729 8.89604 -1.04658 -0.340144 -0.19887
12.4261 29.9073 12.0307 -0.301936 0.365109 -0.541275
14.6989 28.3925 11.1175 0.514316 -1.2449 -1.09881
16.4468 30.544 11.899 -1.01327 3.1923 -2.42236
18.7197 29.0292 10.9858 0.204092 -1.22862 0.228847
20.4675 31.1806 11.7673 0.506538 1.52223 0.098015
22.7404 29.6658 10.8541 -0.0440379 -0.715173 0.376063
24.4882 31.8172 11.6356 -0.0913649 -1.36723 0.605337
26.7611 30.3024 10.7224 -0.541784 0.32791 0.762107
29.0339 28.7877 9.80923 -1.13035 -0.295001 -0.0740316
9.90786 7.48639 15.7061 0.709394 -0.843289 1.8023
13.9286 8.12303 15.5744 -1.45429 -0.447848 -0.587684
9.45364 10.1475 14.7028 -0.790324 -0.529732 0.347757
11.2015 12.2989 15.4842 -1.02201 -0.262244 0.91855
11.7265 8.6327 13.7896 0.798855 -0.0779964 0.259465
13.4744 10.7841 14.5711 -0.0697437 -1.18207 -0.673999
11.2723 11.2938 12.7863 -2.41104 1.38395 0.648406
17.9493 8.75967 15.4427 0.561714 2.3843 -2.84455
15.7472 9.26934 13.6579 2.16004 -1.19714 2.30932
17.4951 11.4208 14.4394 1.51746 -1.58394 0.988778
15.293 11.9304 12.6546 1.63294 -0.872888 0.782615
19.6971 10.9111 16.2241 0.218368 1.25267 0.573757
21.97 9.39632 15.311 0.240373 -0.164883 0.897349
19.7679 9.90599 13.5262 -0.179732 -1.31844 1.39256
21.5158 12.0574 14.3077 -0.850478 -1.27314 -1.1033
23.7179 11.5478 16.0924 0.981623 -0.130469 0.224187
25.9907 10.033 15.1793 0.608011 -0.88617 1.016
23.7886 10.5426 13.3945 0.055927 0.194552 -1.55197
27.7386 12.1844 15.9607 -1.57752 0.914298 1.44461
30.0114 10.6696 15.0476 -0.395774 -0.0485911 0.868092
27.8094 11.1793 13.2628 -1.63159 0.0767535 -0.988004
34.0321 11.3062 14.9159 0.0488992 -0.436157 -0.502059
31.8301 11.8159 13.1311 0.170821 0.491743 -0.947124
8.99941 12.8086 13.6995 -0.6123 0.626833 2.09454
8.54519 15.4697 12.6962 1.00017 -1.85241 -1.23274
12.9494 14.4504 16.2657 -0.325956 -1.47562 0.425757
10.7473 14.96 14.4809 -0.197184 -1.21835 -2.01038
13.0201 13.4452 13.5677 -0.685245 1.39798 0.570777
12.5659 16.1063 12.5645 0.457581 -0.0101116 0.372637
15.2222 12.9356 15.3525 0.588252 0.676101 -1.47649
16.9701 15.087 16.134 -0.93433 -1.26005 1.63441
14.768 15.5967 14.3492 0.186142 1.67344 -0.434374
17.0408 14.0819 13.436 -1.00412 -0.586677 -0.265324
19.2429 13.5722 15.2208 -0.255147 -0.670319 2.68159
20.9908 15.7236 16.0023 1.10708 0.410676 -1.00207
18.7887 16.2333 14.2175 -2.3045 -2.03284 1.24975
19.3137 12.5671 12.5229 2.722 -0.819582 1.39759
21.0616 14.7185 13.3043 -1.3195 0.4557 -0.148963
23.2636 14.2089 15.0891 1.7185 -0.965558 0.724641
25.0115 16.3603 15.8706 -2.83928 0.647589 -1.63578
25.5365 12.6941 14.1759 -1.076 0.341737 -0.525269
23.3344 13.2037 12.3912 -1.83995 0.366891 0.4983
25.0823 15.3552 13.1726 0.126495 0.780888 -0.840507
27.2844 14.8455 14.9574 0.53483 -1.10929 1.13159
29.5572 13.3307 14.0442 1.17637 2.39066 -0.624479
29.103 15.9918 13.0409 0.0807235 0.945132 -0.747899
31.7593 12.821 15.829 -1.16505 -0.459227 -1.45655
31.3051 15.4821 14.8257 -1.45162 -0.116458 -3.18432
33.5779 13.9673 13.9125 -0.42657 -2.35078 -0.872409
8.47441 16.4748 15.3941 1.47631 -0.455331 -1.94702
10.2223 18.6263 16.1756 0.154511 0.438636 -0.611696
8.02019 19.1359 14.3908 1.48125 -0.53632 -0.860379
10.293 17.6211 13.4776 -0.401987 -0.105916 -1.77876
9.83882 20.2822 12.4743 -0.529837 1.01509 0.894092
12.4951 17.1115 15.2624 -0.694324 2.30155 -0.455098
14.243 19.2629 16.0439 -0.349604 0.299344 -0.460841
12.0409 19.7726 14.2591 0.931578 0.826552 0.26206
14.3138 18.2578 13.3459 -0.44539 -2.21622 -0.792464
16.5158 17.7481 15.1307 -0.718715 -2.18735 -0.228638
18.2637 19.8995 15.9122 1.4456 -0.257858 0.460658
16.5866 16.743 12.4328 -1.63152 0.483343 0.605945
18.3345 18.8944 13.2142 -0.59369 -1.14093 -0.785842
20.5366 18.3848 14.999 0.424067 0.0956557 0.125401
20.6073 17.3796 12.3011 2.39536 1.70668 1.29396
22.8094 16.87 14.0858 -2.65413 -0.549674 0.44049
24.5573 19.0214 14.8673 0.0909493 2.73155 -0.306479
22.3552 19.5311 13.0825 -3.27771 -1.05342 0.439007
29.0322 16.9969 15.7389 1.28738 -1.06236 -0.722388
26.8301 17.5066 13.9541 0.998934 1.59292 0.373454
28.578 19.658 14.7356 1.33999 -0.184656 -0.200715
26.3759 20.1677 12.9508 0.232218 0.117429 -1.06758
33.0529 17.6336 15.6072 1.33132 0.0179853 1.80777
30.8508 18.1432 13.8224 -1.7645 1.696 0.507248
32.5987 20.2947 14.6039 0.775908 -0.484475 -0.909408
33.1237 16.6284 12.9092 1.18986 0.426318 0.847127
7.49519 22.8022 16.0855 0.148522 0.214488 0.834513
9.76805 21.2874 15.1723 2.01845 -1.47256 -1.61969
7.56597 21.797 13.3875 0.274388 2.41155 -1.83206
9.31382 23.9485 14.169 1.20559 0.146726 -1.75041
11.5159 23.4388 15.9538 0.697205 0.0196062 1.90818
13.7888 21.924 15.0406 -1.2689 2.61808 0.974082
11.5867 22.4337 13.2558 -0.663843 0.803 0.733083
13.8595 20.9189 12.3426 -0.330209 -1.13182 -0.41426
15.5366 24.0754 15.8221 0.874984 0.351044 -1.74256
16.0616 20.4092 14.1274 1.85944 0.0749697 0.178098
17.8095 22.5606 14.9089 0.115287 -2.60634 1.366
15.6074 23.0703 13.1241 0.0458922 0.869865 0.0248942
22.2844 20.5362 15.7805 -0.598618 -2.05426 -1.55191
20.0823 21.0459 13.9957 0.550144 -0.43965 1.41677
21.8302 23.1973 14.7772 0.188429 2.16903 -0.823542
19.6281 23.707 12.9924 0.0883623 -0.351283 -0.461374
24.103 21.6825 13.864 1.62285 1.66799 -1.55639
25.8509 23.8339 14.6455 1.23615 -0.683851 -0.111117
23.6488 24.3436 12.8607 0.785761 -1.81739 0.278889
26.3051 21.1728 15.6488 0.108904 0.895676 0.768495
28.1238 22.3191 13.7323 -1.6657 0.24296 -1.50781
30.3258 21.8095 15.5171 2.6204 -0.424644 0.457547
32.0737 23.9609 16.2986 0.980957 0.213143 -2.06141
30.3966 20.8043 12.8191 -1.00464 -1.97373 -0.317269
32.1445 22.9558 13.6006 0.0644455 -2.2047 -0.373919
7.04096 25.4633 15.0822 0.253823 0.674642 -0.0596609
8.78882 27.6147 15.8637 0.941589 0.967314 -0.169282
7.11174 24.4581 12.3842 -0.606738 -2.43566 -1.55515
8.8596 26.6096 13.1657 0.276866 1.71892 -0.0648103
11.0617 26.0999 14.9505 1.89517 -1.14948 0.632796
12.8095 28.2513 15.732 -0.83403 -0.0594478 1.27313
13.3345 24.5851 14.0373 0.0630887 -0.391121 0.508049
12.8803 27.2462 13.034 -0.479301 1.63496 -0.656245
15.0824 26.7365 14.8188 0.015578 -1.41325 -0.926497
17.3552 25.2217 13.9056 1.4658 -0.897135 -2.49764
16.901 27.8829 12.9023 -0.959032 -0.967798 0.504617
19.5573 24.7121 15.6904 0.957328 -0.796725 -0.918623
19.1031 27.3732 14.6871 -1.62335 0.69839 2.95974
21.376 25.8584 13.7739 -0.232736 -0.102418 -0.348257
23.578 25.3487 15.5587 1.23024 0.701124 0.30148
25.3259 27.5002 16.3402 -0.498036 0.655977 0.53392
23.1238 28.0098 14.5554 0.576366 1.13003 -0.874645
25.3967 26.495 13.6422 1.19212 0.465682 0.438632
27.5988 25.9854 15.427 0.59566 -1.61206 0.601703
29.3466 28.1368 16.2085 -0.927233 -1.14983 -0.732617
29.8716 24.4706 14.5138 -0.735117 -0.611875 2.24396
27.6695 24.9802 12.729 0.323768 0.499038 -0.775466
29.4174 27.1317 13.5105 0.243245 0.592375 -2.61178
31.6195 26.622 15.2953 -0.308022 0.586012 0.0914831
31.6902 25.6169 12.5973 0.885159 0.244318 0.315546
10.6075 28.761 13.9472 -1.2789 1.00561 0.902283
12.3553 30.9124 14.7287 1.043 -1.1594 -0.368989
14.1739 32.0587 12.8122 0.987986 -0.236049 0.0110353
16.8302 28.888 15.6003 1.15266 1.25355 -0.0821513
14.6282 29.3976 13.8155 -0.0523882 0.232409 -1.03269
16.376 31.5491 14.597 0.603885 -0.163481 1.72021
20.851 29.5246 15.4686 0.32719 0.603136 1.05053
18.6489 30.0343 13.6838 -0.62311 -3.51176 -2.72203
20.3967 32.1857 14.4653 -2.63818 -0.203317 -1.67228
20.9217 28.5195 12.7706 -1.01839 0.727325 0.0519151
22.5988 31.6761 16.2501 1.12227 -1.76978 -0.365628
24.8717 30.1613 15.3369 0.849532 0.476464 0.212898
22.6696 30.6709 13.5521 -1.44251 -2.33433 -1.3523
24.9425 29.1561 12.6389 0.99375 -2.94099 0.605931
26.6195 32.3127 16.1184 0.638118 1.61486 -0.0939365
27.1445 28.6465 14.4237 -0.380411 2.81373 0.744414
28.8924 30.7979 15.2052 -1.63375 1.11138 1.49419
26.6903 31.3076 13.4204 -0.72782 0.340953 2.02632
28.9632 29.7928 12.5072 -0.668506 1.21817 1.6033
31.1652 29.2831 14.292 -2.07226 0.235317 2.05236
14.1032 33.0639 15.5102 2.34997 -0.863184 -0.661633
15.851 35.2153 16.2917 0.0767359 -1.03667 0.845496
18.1239 33.7005 15.3785 0.0805257 1.23214 2.18834
15.9218 34.2102 13.5937 1.37487 -0.56664 -0.488418
17.6697 36.3616 14.3752 -1.69015 0.697974 -0.06285
18.1947 32.6954 12.6805 -0.107691 0.251067 -2.06388
19.8717 35.8519 16.16 -0.913584 1.9055 0.600039
22.1446 34.3372 15.2468 1.60062 -0.167843 -1.52441
19.9425 34.8468 13.462 -1.03988 -1.00722 0.516344
22.2154 33.332 12.5488 -1.08085 -0.0533658 -1.57015
24.4175 32.8224 14.3336 0.39846 0.637097 -0.418156
12.1099 6.97672 17.4909 0.80027 0.47911 -0.262833
12.0392 7.98185 20.1888 -0.364943 -2.25627 0.145446
14.312 6.46705 19.2756 -0.608971 1.44727 2.62094
16.1307 7.61336 17.3592 1.81914 -1.03671 -1.72388
18.3327 7.1037 19.1439 0.307073 -1.35256 0.00319249
20.1514 8.25001 17.2274 -3.49366 0.162936 -1.14145
22.3535 7.74034 19.0122 -0.604094 0.402189 0.680517
26.3742 8.37698 18.8805 -0.975934 -0.284936 0.797315
9.38286 11.1526 17.4007 0.0419208 0.393739 1.30329
9.31208 12.1577 20.0987 -0.707723 1.53595 0.818314
9.83709 8.49152 18.404 -2.76555 0.177236 -0.258938
11.6557 9.63783 16.4875 1.66905 -0.587852 0.0873828
13.4036 11.7893 17.269 2.41643 -1.0377 -0.476114
11.5849 10.643 19.1855 -0.998254 1.87885 -1.19919
13.8578 9.12816 18.2723 0.461553 0.65837 -0.118683
15.6764 10.2745 16.3558 0.941295 -1.43196 -1.67303
15.6057 11.2796 19.0538 -0.640297 -1.14323 -1.35473
17.8785 9.7648 18.1406 1.05697 0.559329 0.281643
16.0599 8.61849 20.0571 1.48999 -1.20318 -0.625226
19.6264 11.9162 18.9221 0.209501 2.62689 -0.427271
21.8992 10.4014 18.0089 -0.566384 0.066059 0.845946
20.0806 9.25513 19.9254 0.635743 1.35508 -1.41166
24.1721 8.88665 17.0957 -0.358118 0.735648 1.8301
25.9199 11.0381 17.8772 -0.476096 -0.382845 0.655881
24.1013 9.89177 19.7937 0.187871 0.0851486 0.59866
28.1928 9.52329 16.964 -0.696014 -0.765969 -0.868236
29.9407 11.6747 17.7455 -0.121999 0.00102704 -0.829229
28.122 10.5284 19.662 0.460119 1.02403 1.07965
32.2135 10.1599 16.8323 -0.941507 1.14656 -0.836152
33.9614 12.3114 17.6138 -0.15196 0.966833 0.844025
30.3949 9.01362 18.7488 -1.01755 -0.220126 -3.20941
32.1427 11.1651 19.5303 1.27462 1.0054 -0.441343
8.85786 14.8188 19.0954 1.05926 -0.0833265 0.893576
8.92864 13.8137 16.3974 -0.338422 -0.272591 0.33907
11.1307 13.3041 18.1822 -0.455885 -1.14988 0.0366519
12.8786 15.4555 18.9637 -2.78131 -1.7364 -0.229814
10.6765 15.9652 17.1789 1.08083 0.466093 0.976243
13.3328 12.7944 19.967 0.0685657 0.0959251 -0.845987
15.1514 13.9407 18.0505 0.318735 -1.83815 0.258319
16.8993 16.0921 18.832 1.09869 1.62408 -1.77407
17.4243 12.4259 17.1373 -1.30042 -0.505255 -1.8795
17.3535 13.431 19.8353 -0.110814 -0.489481 -0.298364
19.1721 14.5773 17.9188 0.219261 0.804983 -1.02551
21.445 13.0625 17.0056 -0.978359 -0.0175172 1.03244
21.3742 14.0677 19.7036 0.671022 0.0408699 1.63121
23.1929 15.214 17.7871 1.77588 -0.481824 -0.322535
25.4657 13.6992 16.8739 0.264295 1.23606 0.737794
23.6471 12.5529 18.7904 -1.08485 -1.65795 2.16254
25.3949 14.7043 19.5719 -0.9737 0.270419 -0.391335
27.2136 15.8506 17.6554 1.26324 0.532763 1.27272
29.4864 14.3358 16.7422 -0.559975 1.42871 -0.529397
27.6678 13.1895 18.6587 0.508315 0.0136483 1.34692
29.4157 15.341 19.4402 0.407353 1.5973 -0.587988
33.5071 14.9725 16.6105 0.682491 -0.688584 2.33918
31.6885 13.8262 18.527 -2.51193 1.7592 -1.22567
33.4364 15.9776 19.3085 -0.0964444 -0.80756 -1.45997
33.8906 13.3165 20.3118 -1.82653 0.542035 0.54364
10.6057 16.9703 19.8769 0.927909 -0.649278 1.20739
8.40364 17.48 18.0921 1.03349 1.06826 -0.0402519
10.1515 19.6314 18.8736 0.100196 -0.696419 1.47361
7.94941 20.1411 17.0888 0.52601 0.328095 -0.671694
12.4243 18.1166 17.9604 -0.0769259 2.35317 0.276947
14.1722 20.268 18.7419 -1.02864 -1.18204 1.14557
14.6264 17.6069 19.7452 -2.15851 -0.326996 -0.272888
14.6972 16.6018 17.0472 -0.0347266 -1.61165 -0.188807
16.4451 18.7532 17.8287 1.54048 2.18709 0.691095
18.6471 18.2436 19.6135 -0.463515 0.332682 2.12466
20.92 16.7288 18.7003 -1.18751 0.55924 0.577614
18.7179 17.2384 16.9155 -0.555461 1.5679 -0.63873
20.4658 19.3899 17.697 -0.764433 -0.422681 -0.543839
22.6679 18.8802 19.4818 -1.1673 -0.577916 -1.16663
24.9407 17.3654 18.5686 0.243569 -1.31292 0.781198
22.7386 17.8751 16.7838 0.0869887 1.7248 2.08281
24.4865 20.0265 17.5653 0.805772 -0.256145 0.401243
26.6886 19.5168 19.3501 0.0818549 -0.192065 -0.332758
28.9614 18.0021 18.4369 -0.303432 -0.54686 -1.4751
26.7593 18.5117 16.6521 1.10228 -0.44742 0.792774
27.1428 16.8557 20.3534 2.26143 -1.317 1.03716
30.7093 20.1535 19.2184 0.881896 1.44293 -0.0368586
31.2343 16.4873 17.5237 0.660024 0.183875 -1.28119
32.9821 18.6387 18.3052 -0.300191 -0.709848 -1.41195
30.7801 19.1484 16.5204 -0.410051 1.65132 -0.0548613
31.1635 17.4924 20.2217 1.63394 -1.6881 -1.04032
7.87863 21.1462 19.7868 0.425123 0.792717 0.541942
7.42441 23.8073 18.7835 -0.387698 -2.39408 -2.37397
9.69727 22.2925 17.8703 0.42619 0.87549 0.760226
11.8993 21.7828 19.6551 0.776954 0.759286 1.23106
11.9701 20.7777 16.9571 1.44402 0.167012 -1.12126
13.718 22.9291 17.7386 -1.44643 0.292853 -1.1174
15.9201 22.4195 19.5234 0.565664 -0.636643 0.875486
18.1929 20.9047 18.6102 -0.0702056 -0.952405 -1.93719
15.9908 21.4143 16.8254 0.24066 0.537045 0.0410578
17.7387 23.5658 17.6069 1.05073 -1.17197 -0.0495077
19.9408 23.0561 19.3917 -1.31355 -0.783343 -0.633976
22.2136 21.5413 18.4785 -1.44174 -1.30353 0.254816
20.0116 22.051 16.6937 0.727466 -0.1297 1.02123
21.7594 24.2024 17.4752 0.152382 -0.947896 0.737605
24.4157 21.0316 20.2633 0.621095 0.183934 1.82918
23.9615 23.6927 19.26 0.13505 -1.76606 -0.535383
26.2343 22.178 18.3468 0.823843 -1.21923 0.413376
24.0323 22.6876 16.562 -1.27188 1.0576 -1.15653
28.4364 21.6683 20.1316 -0.804059 -0.18371 1.79741
27.9822 24.3294 19.1283 0.783156 2.05391 -0.513626
28.5072 20.6632 17.4336 0.673172 1.97906 -1.81697
28.053 23.3243 16.4303 0.490436 0.433161 -2.5057
32.4571 22.3049 19.9999 -0.199334 -0.471418 0.0538614
30.2551 22.8146 18.2151 0.589035 0.186815 0.268424
32.5279 21.2998 17.3019 -0.21287 -0.633878 0.368607
9.17227 25.9587 19.565 -0.462149 -0.770285 -0.384906
6.97019 26.4684 17.7802 -1.69276 -0.435658 0.285964
9.24304 24.9536 16.867 1.77617 1.68041 0.209616
10.9201 28.1102 20.3465 -0.317191 -2.5163 1.3482
11.4451 24.4439 18.6518 0.909373 1.95209 0.719084
13.193 26.5954 19.4333 -0.791727 -1.77715 0.304114
10.9909 27.105 17.6485 -1.49684 0.419598 -1.06
13.2638 25.5902 16.7353 0.00683921 -0.3318 -0.53964
17.6679 24.5709 20.3049 -1.03702 -0.541799 0.436252
15.4658 25.0806 18.5201 1.19187 0.863667 -0.257893
17.2137 27.232 19.3016 -2.0932 0.908132 0.611999
15.0116 27.7417 17.5168 0.137161 -0.468797 -0.790098
17.2845 26.2269 16.6036 -0.274221 2.4325 1.02102
21.6886 25.2075 20.1732 0.0568823 0.75843 1.43883
19.4866 25.7172 18.3884 -0.349185 -0.562756 1.87702
21.2344 27.8686 19.1699 -0.582744 -0.237799 0.705083
19.0323 28.3783 17.3851 0.904997 -1.22527 -0.781747
21.3052 26.8635 16.4719 0.932393 0.207834 -0.0580286
25.7093 25.8442 20.0415 -0.42731 0.504444 0.991904
23.5073 26.3538 18.2567 -1.26246 -1.30785 -0.452659
25.7801 24.8391 17.3435 1.40358 0.0990033 -0.0424033
29.7301 26.4808 19.9098 -0.853815 0.571357 -1.29242
27.528 26.9905 18.125 1.19519 1.50737 1.01898
29.8008 25.4757 17.2118 0.201193 0.163677 1.10068
32.0029 24.966 18.9966 -2.46863 0.510724 0.812098
31.5487 27.6271 17.9933 2.27237 1.20588 0.222209
8.71804 28.6198 18.5617 -1.18435 0.715179 -1.16471
10.4659 30.7713 19.3432 -0.842361 -1.35316 1.12655
10.5367 29.7661 16.6452 1.34511 0.394989 -0.805532
12.7388 29.2565 18.43 1.57948 -1.66943 1.53969
14.4866 31.4079 19.2115 1.97233 -0.116894 -0.388762
12.2845 31.9176 17.4267 -0.246184 -0.140578 -0.829866
14.9408 28.7468 20.2148 0.421649 0.108905 0.0528953
16.7595 29.8931 18.2983 0.296223 1.30935 0.945518
14.5574 30.4028 16.5135 -1.19281 0.284319 0.435224
18.9615 29.3834 20.0831 0.23745 0.245777 0.767015
18.5073 32.0445 19.0798 -0.99271 -1.04482 -0.37387
20.7802 30.5297 18.1666 -1.09603 -1.84448 -1.19
18.5781 31.0394 16.3818 -1.46579 0.477762 2.05708
22.9823 30.0201 19.9514 -1.00544 0.719088 -0.861962
25.2551 28.5053 19.0382 -1.63415 -1.12087 0.79486
23.053 29.0149 17.2534 -1.38592 -0.506713 0.900231
24.8009 31.1664 18.0349 -0.350775 -2.29842 1.06604
27.003 30.6567 19.8197 -0.207615 0.520246 0.409911
29.2758 29.1419 18.9065 -0.425797 2.54494 0.672678
27.0738 29.6516 17.1217 0.708535 -0.0458351 0.961203
28.8216 31.803 17.9032 0.819209 -0.792569 -0.949233
31.0237 31.2934 19.688 -0.509638 0.437742 1.69504
31.0945 30.2882 16.99 0.906595 1.21465 1.32293
12.2138 32.9227 20.1247 -0.58252 0.0267839 0.445364
14.0324 34.069 18.2082 1.06093 0.494146 -1.02723
16.2345 33.5593 19.993 -0.0174274 0.784228 1.26165
16.3052 32.5542 17.295 -0.227748 -0.181497 -0.151189
18.0531 34.7056 18.0765 0.567641 -1.5313 -1.15929
20.2552 34.196 19.8613 -0.0263628 2.05549 1.31198
20.326 33.1908 17.1633 1.31398 -0.456922 1.38799
22.0738 35.3423 17.9448 -0.764805 -0.323457 0.906021
22.528 32.6812 18.9481 1.03985 -0.00159869 1.99485
24.2759 34.8326 19.7296 1.51809 0.636024 0.0821433
24.3467 33.8275 17.0316 0.981511 -0.925879 2.85266
26.5488 33.3178 18.8164 0.512433 1.18822 -3.10807
14.2412 7.47218 21.9736 1.32556 0.51501 -1.32863
16.5141 5.95739 21.0604 -0.291338 -0.334934 0.287671
18.262 8.10882 21.8419 2.54033 -0.37908 1.05667
16.4433 6.96251 23.7584 -2.10099 0.124772 0.244489
20.5348 6.59403 20.9287 -1.38632 -2.84785 -1.34673
18.7162 5.44772 22.8452 -1.04486 0.384884 -0.196965
20.464 7.59916 23.6267 -1.21219 -1.0656 -1.23
24.5555 7.23067 20.797 0.902911 2.66844 0.338548
22.7369 6.08436 22.7135 0.0354165 -1.7071 -0.697435
24.4848 8.2358 23.495 -0.482596 2.35485 0.311965
28.5762 7.86731 20.6653 -0.0626555 -0.740628 -2.93506
26.7576 6.721 22.5818 0.332632 -0.291718 1.03034
9.76631 9.49664 21.102 0.167785 0.63504 1.42947
9.69553 10.5018 23.8 -2.33363 -0.194193 0.106171
11.5142 11.6481 21.8835 0.210465 -0.903907 -0.0806564
13.787 10.1333 20.9703 1.39321 -0.438144 -1.31202
11.9684 8.98697 22.8868 -0.000386307 -1.34396 0.349061
13.7162 11.1384 23.6683 -1.70698 -0.258806 0.0258185
15.5349 12.2847 21.7518 0.800088 0.365913 -0.282283
17.8077 10.7699 20.8386 -1.14178 1.8651 -0.407386
15.9891 9.62362 22.7551 -1.99026 -0.020655 -0.745237
17.737 11.7751 23.5366 0.348897 1.20708 -1.44815
21.8285 11.4066 20.7069 0.806783 0.689635 -1.88493
20.0098 10.2603 22.6234 -0.472154 0.90722 -1.64893
22.2827 8.74547 21.7102 2.36046 -1.96488 1.12625
22.2119 9.75059 24.4082 -1.00534 -0.0266772 1.20133
25.8492 12.0432 20.5752 0.242764 0.563038 -0.889784
24.0305 10.8969 22.4917 1.48092 -2.44646 -0.100379
26.2326 10.3872 24.2765 -0.197724 -0.206391 0.697445
26.3034 9.38211 21.5785 0.163556 -1.01147 -0.156273
28.0512 11.5335 22.36 -1.77968 0.467041 -1.07381
28.5055 8.87244 23.3633 1.0455 -0.0309729 0.974155
30.3241 10.0187 21.4468 0.702906 -1.47436 -0.328973
32.072 12.1702 22.2283 -1.11802 -0.0488531 0.43835
30.2533 11.0239 24.1448 -0.0435433 -0.148845 0.43104
8.78708 15.824 21.7934 0.803939 -0.618065 -0.590202
9.24131 13.1629 22.7967 0.634585 -0.431295 1.85878
11.0599 14.3092 20.8802 -0.770141 -0.780976 0.601254
10.9892 15.3143 23.5782 0.88491 0.713466 -1.4002
13.262 13.7995 22.665 -1.09826 -0.879967 -0.187691
15.0807 14.9458 20.7485 -1.04819 -0.464697 -1.7719
15.0099 15.9509 23.4465 0.275092 -1.98737 -2.03112
17.2827 14.4362 22.5333 1.75981 -1.94188 -0.00921689
19.1014 15.5825 20.6168 0.991086 1.22117 1.0616
19.5556 12.9214 21.6201 0.548666 2.98052 -0.388911
21.3034 15.0728 22.4016 1.25905 0.334511 -0.117453
19.4848 13.9265 24.3181 0.376035 0.259498 -2.14049
21.7577 12.4117 23.4049 -1.66338 -0.7664 1.87455
23.1221 16.2191 20.4851 1.18831 -0.162924 0.141349
23.5763 13.558 21.4884 0.593251 -0.513805 0.648122
25.3242 15.7094 22.2699 0.996465 2.08301 1.56513
23.5055 14.5631 24.1864 -0.302495 -0.365975 -0.161506
25.7784 13.0483 23.2732 0.119011 -0.730932 -1.08276
27.597 14.1946 21.3567 -0.230738 -0.113281 -0.388688
29.3449 16.3461 22.1382 0.00669535 0.762908 -3.27271
29.8699 12.6798 20.4435 -0.684143 1.35442 -0.176041
27.5262 15.1998 24.0547 -2.58849 -0.605495 0.348113
29.7991 13.685 23.1415 0.387145 -0.508354 0.832065
31.6177 14.8313 21.225 0.565512 0.992856 0.232767
31.547 15.8364 23.923 1.61279 0.750158 -1.29578
33.8198 14.3216 23.0098 -0.977725 -0.0458049 -0.944554
8.33286 18.4851 20.7901 0.00555251 0.674933 0.283781
8.26208 19.4902 23.4881 0.953234 0.568855 1.83366
10.5349 17.9754 22.5749 -2.0013 0.165399 -0.407205
12.3536 19.1217 20.6584 0.0199059 -0.430393 0.573636
12.2828 20.1268 23.3564 -0.5902 -0.722093 0.484911
12.8078 16.4606 21.6617 -1.89744 -1.57744 -1.17592
12.737 17.4657 24.3597 -1.18938 -1.65511 -1.13403
16.3743 19.7584 20.5267 -1.80633 0.428427 -0.166508
14.5557 18.612 22.4432 -0.467825 -1.48383 -0.575124
16.8285 17.0973 21.53 -0.347654 -1.85847 -0.10436
16.7577 18.1024 24.228 0.764109 -0.737517 -1.72876
18.5764 19.2487 22.3115 1.98816 -0.358518 -1.53759
20.8492 17.7339 21.3983 0.477387 0.403177 -0.76092
19.0306 16.5876 23.3148 1.01945 -1.12186 -1.9012
20.7784 18.739 24.0963 -2.40222 1.06639 -1.88022
22.5971 19.8853 22.1798 0.358358 2.49752 -1.18316
24.8699 18.3705 21.2666 0.715194 0.681055 1.7213
23.0513 17.2242 23.1831 -0.897259 -0.614961 -1.54235
24.7992 19.3757 23.9646 -1.02269 0.762809 0.409533
28.8907 19.0072 21.1349 -1.94347 0.622035 0.183746
27.072 17.8609 23.0514 -0.0958501 0.687815 -1.35173
28.8199 20.0123 23.8329 0.660605 -1.85236 -2.07542
32.9114 19.6438 21.0032 -0.896029 -0.654554 -0.761309
31.0927 18.4975 22.9197 0.985906 0.211042 -0.730785
33.3656 16.9827 22.0065 -0.624733 -0.762485 0.335609
7.80786 22.1513 22.4848 -1.61447 1.4228 0.527772
9.55571 24.3027 23.2663 0.528465 0.572132 -0.932681
10.0807 20.6365 21.5716 -1.36533 -0.276152 0.599842
9.62649 23.2976 20.5683 1.56281 1.05508 0.535241
10.0099 21.6416 24.2696 0.949497 0.281613 1.62408
11.8286 22.7879 22.3531 0.890328 -0.166497 -0.0270577
14.1014 21.2732 21.4399 2.13308 -0.2657 0.609877
13.6472 23.9343 20.4366 1.17991 -0.0558365 0.0317628
14.0307 22.2783 24.1379 -0.58825 -0.406962 1.60647
15.8493 23.4246 22.2214 0.948188 0.540666 -0.839532
18.1221 21.9098 21.3082 -1.68336 -1.14163 1.26148
16.3035 20.7635 23.2247 0.0424212 -0.783532 0.0509929
18.0514 22.9149 24.0062 0.409415 -1.10208 -2.69029
19.87 24.0612 22.0897 1.21254 -0.3873 0.395526
20.395 20.395 20.395 -0.261486 -0.808316 -0.19119
22.1429 22.5464 21.1765 0.0403741 0.893991 -0.806496
20.3242 21.4001 23.093 0.576542 -0.0752024 -0.325269
22.0721 23.5516 23.8745 1.59217 -0.415479 0.572079
26.1636 23.1831 21.0448 0.511997 0.567838 1.60195
24.3449 22.0368 22.9613 -0.214526 0.647206 -1.74039
26.0928 24.1882 23.7428 -0.519507 2.27563 0.767394
26.6178 20.522 22.0481 -0.731006 1.04376 -2.0775
28.3657 22.6734 22.8296 2.02488 -0.986474 0.191059
30.1843 23.8197 20.9131 0.323032 -0.618174 -0.140875
30.6385 21.1586 21.9164 -0.396972 -0.167467 -0.48062
32.3864 23.31 22.6979 -1.05112 -1.0391 -0.862704
32.8406 20.6489 23.7012 -1.27956 1.41414 -1.70535
7.28285 25.8175 24.1795 0.993982 0.293656 0.0737264
7.35363 24.8124 21.4815 -0.16051 1.48318 1.19727
9.10149 26.9638 22.263 0.743022 -0.420856 1.86102
6.89941 27.4735 20.4782 -0.41425 0.741129 -1.35854
11.3036 26.4542 24.0478 1.16037 1.104 0.456384
13.5764 24.9394 23.1346 0.846624 0.0524021 0.680655
11.3743 25.449 21.3498 -0.879212 -0.411452 2.06503
13.1222 27.6005 22.1313 -0.615103 0.0629204 0.563871
15.3243 27.0908 23.9161 0.181232 -0.146052 1.26216
17.5971 25.576 23.0029 -0.706099 2.1251 -2.32195