ITEM: TIMESTEP
0
ITEM: NUMBER OF ATOMS
923
ITEM: BOX BOUNDS ss ss ss
4.1908729902778683e+00 3.6599289750970236e+01
5.8480819142309413e+00 3.4940305588661623e+01
5.6381405665194224e+00 3.5153227659485054e+01
ITEM: ATOMS x y z vx vy vz
19.1726 13.1608 9.12812 -0.190924 -0.873359 -1.34253
21.8973 12.0656 9.58177 0.469435 1.85061 -1.63812
24.2195 13.4964 8.48124 0.17899 -1.59826 0.701251
26.8626 12.5149 9.02405 -2.04206 -1.7452 0.521536
29.0487 13.9349 8.04935 -0.472709 0.0188758 0.923083
11.8759 17.4539 9.30801 -1.18527 1.00224 2.27089
14.6836 17.8772 9.448 0.12663 0.902295 -1.59851
13.838 15.4655 8.48785 0.250612 -0.999749 -0.123961
13.5006 17.9403 6.99144 -1.69527 0.485295 -1.04767
16.1172 16.7864 7.24874 0.62328 -2.04826 -0.335238
19.691 18.1724 8.65823 -0.992045 3.12355 -2.4539
17.351 16.7316 9.71374 -0.38312 -2.06973 -2.29517
18.4569 18.1914 6.2358 -0.608171 1.62973 -1.8186
16.4456 14.2793 8.75252 -0.794435 -1.68686 -0.909276
18.8213 15.6815 7.59415 -2.3338 0.174066 -0.622993
22.3627 17.0875 9.06464 -0.103656 0.189412 -2.08059
21.1491 17.0941 6.62678 1.37803 -0.147336 -0.540942
23.8394 16.0058 7.05458 2.55598 0.386591 0.732366
21.5275 14.5826 8.00579 -0.189858 2.72405 1.05704
25.0166 16.0208 9.51788 -1.05279 -1.06198 0.513875
26.5074 14.9333 7.50965 -0.622892 -0.0666102 -0.693829
26.0962 17.7747 7.55816 -0.387001 1.26651 1.51712
28.696 16.6948 8.12221 1.06819 -1.17095 -1.85554
11.64 19.9399 7.8903 0.797748 -1.44047 -0.304355
11.1319 22.1448 9.65778 -0.570065 1.08098 1.58073
14.3917 20.3652 8.04065 -0.273136 0.608214 0.0950545
13.2262 20.3593 5.64222 -0.78654 -2.53796 2.95761
15.7839 19.2877 5.87835 -0.963983 0.146156 -1.10652
15.3347 22.1202 6.08972 -2.12904 0.371635 -2.42657
17.0319 19.263 8.30323 0.552015 -1.31903 -1.1455
16.5699 22.1763 8.52063 -0.169514 -1.29574 -0.510324
19.26 21.0826 8.7751 0.153753 0.030554 -0.861056
17.9943 21.0647 6.3258 0.234947 0.314578 1.36547
24.1763 21.7885 9.76567 -0.90193 1.79639 -1.19881
21.943 19.9914 9.14047 -0.979608 -0.523621 -1.7718
22.9541 21.7811 7.26843 0.84799 -2.69603 1.27828
20.6929 19.9476 6.67375 -2.39957 -0.222059 0.795129
23.3989 18.8487 7.08535 -0.438434 0.29181 1.13031
24.6162 18.9075 9.58984 -0.29638 -1.91052 -0.089709
27.8189 22.4613 8.49368 0.884952 0.298538 -0.25935
28.2674 19.5691 8.2939 1.82647 -1.99983 0.0249085
25.6765 20.6816 7.72286 1.18571 -1.62303 -1.22057
13.936 22.5908 9.7995 1.24509 1.21422 0.465114
12.7738 22.5232 7.33316 -0.634468 0.238815 -1.14668
12.3674 24.7376 9.17913 -0.665469 1.28878 0.512083
14.9135 24.3765 7.81501 -1.26896 -0.539797 -1.45924
14.4889 26.6172 9.67296 -1.1177 -0.290884 1.09855
18.7718 23.9688 9.09096 -0.487286 2.6247 0.371067
19.7804 25.726 7.2714 0.138431 2.08077 -0.0355337
17.5482 23.9221 6.66363 -0.26204 -0.539244 -0.492586
20.2255 22.8954 6.89385 0.734578 -0.371525 0.621346
17.1537 26.1978 8.3791 0.0854072 0.92907 0.250913
20.9887 25.7525 9.71173 1.27886 0.501977 -0.201036
21.4847 22.8816 9.35629 -2.65183 0.0887128 -0.273767
22.4709 24.702 7.52253 -1.13412 0.681621 -0.019019
27.351 25.3479 8.72558 1.49582 -0.514148 -1.30018
24.7168 26.4737 8.20799 -1.73251 1.05498 1.44114
25.2158 23.5872 7.93993 0.39059 -1.51204 -1.30839
19.3992 28.0045 9.00796 0.461501 -0.0977093 -0.62586
24.2326 29.2792 8.58129 -0.555925 0.408753 -0.571504
22.0144 27.5155 7.91425 0.878369 -0.89101 -2.57372
21.6364 29.7855 9.69779 -0.25802 -0.846842 -0.616305
26.8705 28.2077 8.98232 -0.244238 -2.34059 0.145688
26.355 30.9221 9.31833 2.06672 -0.982826 0.208815
14.9447 8.10787 13.1475 1.4613 0.427383 -2.051
17.583 7.03687 13.5488 1.61448 3.03193 -2.06185
19.9005 8.36311 12.3895 -0.801574 -0.303536 -0.68817
17.2084 9.35764 11.8999 0.0953998 0.569236 -1.0376
22.2318 9.72364 11.2417 1.75348 -0.344766 -2.67198
22.3761 8.4872 13.8498 0.669013 -0.670204 0.659874
24.7178 9.86964 12.708 -0.195994 -0.275819 -0.576696
15.7589 10.556 14.0319 0.882965 -0.00490537 0.475068
15.3789 12.9653 12.4699 -1.15267 -0.477071 -1.22997
14.5629 10.5302 11.5779 -0.392529 -1.15318 0.904145
14.1921 12.988 10.0191 0.992738 2.67257 0.377196
12.967 10.0247 13.9593 -1.07796 0.00906859 0.496536
12.5808 12.4634 12.3596 0.839081 -0.876071 1.11014
18.0724 11.8204 12.7887 -0.394158 -0.126602 -0.878539
20.3913 13.1601 11.627 -1.12134 0.22242 1.45805
16.8101 11.7981 10.3061 -2.02299 0.0914794 0.268301
19.5556 10.6832 10.7236 2.17034 -1.68157 1.05533
20.7778 10.7734 13.291 -0.116257 1.26586 -0.144229
23.0897 12.1382 12.1637 -2.20767 -0.406905 1.25947
27.8586 13.8079 12.6684 0.251839 0.58757 -2.54677
25.3819 13.5333 11.0755 0.357763 0.56505 0.968467
25.5842 12.3167 13.7172 0.262731 -2.68286 -0.0371654
24.5582 11.1127 10.1183 -0.555281 -0.106262 -1.15011
27.048 11.2942 11.6164 0.994288 1.00333 1.52367
29.2707 12.7818 10.5728 0.0443285 0.767583 -3.17684
29.43 11.6529 13.2518 0.997494 0.233122 -0.63012
10.6271 14.5054 13.2771 -2.50577 0.324422 -0.667125
12.2163 14.9448 10.806 0.0878705 -1.34772 -0.351568
10.28 17.0258 11.741 -1.07242 -1.13383 -0.148632
16.2502 15.4454 13.4611 0.507449 0.451434 -2.48672
15.9072 17.897 11.9611 0.215171 0.188862 1.11256
15.0191 15.4151 10.9361 0.517374 -0.243391 1.52852
13.3738 14.9336 13.3178 -0.227501 0.0945589 2.01056
13.0377 17.4103 11.808 0.565067 -0.292892 0.71993
18.9309 14.3123 13.7922 1.77993 1.60217 0.171335
18.5707 16.7651 12.2565 -1.49534 0.34842 -1.1044
17.6994 14.2531 11.2176 0.0833255 -1.06946 1.56672
20.0288 15.628 10.0818 0.22559 -1.28384 0.216211
22.0952 18.2103 13.7243 -0.0447171 -0.988146 -1.93315
23.9158 14.6453 13.1795 -1.20114 0.627229 -1.19398
20.8992 18.1894 11.1945 -0.61206 -0.0402346 0.39781
23.5525 17.119 11.6305 0.17957 0.111834 0.804624
21.246 15.6789 12.6635 1.56331 -1.7337 1.50966
22.7076 14.5565 10.5285 0.510847 1.47297 0.100305
26.1749 16.0803 12.1493 0.608457 0.197866 0.33222
27.6418 14.9852 10.0564 0.0098255 0.701574 -1.45317
27.2676 17.8324 10.148 0.132941 -0.411189 -0.437513
29.024 16.4646 12.0951 -0.395493 -1.41801 0.0664419
31.7223 16.8787 12.1241 -0.103809 -0.591565 -1.78511
30.4038 15.365 10.0154 -0.746809 1.00943 0.140442
30.0843 18.2163 10.1228 0.616763 2.93244 -0.332774
30.6725 14.2113 12.6311 0.751917 1.56947 -1.67419
11.2114 19.5069 12.7752 -1.63147 -0.663067 1.1179
12.2808 22.1811 12.1637 0.268136 2.52144 -1.43857
8.52163 19.0814 12.7575 -0.31785 1.02789 -0.106388
10.0736 19.5109 10.306 0.0356624 -0.707732 -2.91641
9.53795 21.7032 12.0899 -0.579358 -1.01851 0.251943
15.607 20.3713 10.5415 1.16257 -0.441641 0.800735
14.004 19.9422 12.8805 -1.74747 0.355888 0.500363
12.77 19.9338 10.3725 -0.649143 1.23055 1.58537
16.8111 20.3772 13.0192 0.308443 1.22673 0.577385
19.4484 19.285 13.3215 1.58258 2.14418 0.679778
18.9904 22.1722 13.537 1.61239 -1.62655 0.986958
18.2425 19.2752 10.8227 -0.854984 -1.42627 1.064
17.783 22.1724 11.0389 0.233783 2.14323 -0.839087
21.668 21.0844 13.867 -0.176545 -0.706889 2.69435
20.4651 21.0834 11.325 -0.482489 0.646904 0.534701
23.1403 19.9971 11.732 0.706824 -0.0483035 0.976818
25.3563 21.7758 12.4423 1.54633 -0.555583 -1.96521
25.7911 18.9206 12.2572 0.206826 0.347182 -0.619077
26.8416 20.6917 10.3183 -0.167095 -0.658472 0.538033
28.2438 22.2384 12.3814 0.421429 -0.844949 0.029463
28.6721 19.3565 12.1982 -0.840417 0.197473 -1.70464
31.4305 19.7378 12.2505 -2.33 -1.9768 -1.66311
29.6534 21.1216 10.2802 -1.05513 1.80819 -0.362464
11.8728 24.3944 14.0233 -0.0763104 -1.85198 -0.831843
9.12755 23.9571 13.9818 -2.15232 -0.847929 0.81977
10.7179 24.3919 11.5103 -1.2043 1.09113 -2.71714
10.3363 26.612 13.4145 1.24254 -0.553975 -0.585973
15.1635 22.5846 12.3107 -0.254375 2.39629 0.971363
13.5314 24.7937 11.6354 -0.81281 -0.236077 0.451931
16.1268 24.4507 10.2897 1.7901 -0.572068 0.487319
19.9844 23.9573 11.6252 0.609882 -0.477677 1.40272
19.5752 26.2119 13.4498 0.808938 -0.773309 -0.962189
17.3555 24.426 12.8281 -1.10187 0.972744 1.91256
18.3428 26.2592 10.8754 0.609433 -0.0919344 -0.351424
22.1889 25.7173 12.2726 -0.519525 -1.19143 -0.797368
22.6848 22.8693 11.9464 1.25974 0.679324 0.304353
23.7042 24.6585 10.0194 -2.01404 -1.27906 -0.354983
24.887 24.6214 12.683 1.92433 1.06036 1.72287
25.9083 26.4048 10.7884 0.509016 -0.838828 -0.4339
26.3867 23.5601 10.5326 -0.142483 0.345123 -2.08205
27.7603 25.1068 12.6278 0.632811 1.60156 -0.0813975
30.5026 25.5898 12.6876 -0.616086 -0.225495 -0.161045
30.9897 22.6699 12.436 0.848359 -0.43331 1.76361
29.1927 24.0268 10.4972 1.59404 -1.26828 -0.591592
11.9767 26.9543 11.0604 -1.3053 1.95355 0.631542
11.6084 29.1534 12.9667 1.01642 -1.57679 1.99241
13.1546 26.9856 13.5155 0.732397 0.857481 0.273919
15.7298 26.6705 12.1441 1.23096 -1.40751 -0.0842434
15.3716 28.8451 14.059 0.172771 0.765837 2.04684
14.1073 28.8374 11.5773 -1.18033 -0.895657 -1.32618
20.2277 30.1812 13.511 0.316317 1.6278 -0.146029
17.9633 28.4675 12.7697 1.60821 -0.415987 0.539923
19.0123 30.2568 10.94 0.413409 -0.281678 0.203181
16.7472 28.454 10.2696 0.493191 1.71647 0.423441
16.3853 30.6703 12.2155 0.615941 -1.41991 -0.737084
24.3756 27.426 12.9967 1.80909 -0.989819 0.743918
22.8128 29.7326 12.2854 -0.549785 -2.54429 -1.62652
23.1952 27.5068 10.3758 0.435842 -1.13826 -2.71187
20.5713 28.0266 11.5344 2.0349 -0.387821 -1.56136
25.386 29.2106 11.1191 -1.59918 0.232659 -1.48888
27.2027 27.9495 12.953 1.3544 0.30537 -0.854346
25.2895 30.006 13.8783 1.25272 0.0519458 -1.80406
28.1292 29.7095 11.087 -0.576773 -0.774064 -0.813011
28.0894 30.4981 13.8478 -0.235779 1.25699 -0.848403
29.8975 28.3865 12.9836 -0.850911 -0.62892 -0.700303
28.7051 26.9143 10.7726 -0.486775 1.37294 2.64248
13.7712 31.0236 13.5165 -0.866571 2.46729 -0.436244
18.6474 32.3213 12.9291 1.34977 -0.000453002 0.424651
23.8609 31.4433 10.438 0.00495685 1.02613 -0.364573
21.2623 31.8939 11.6704 2.31088 2.05571 1.05027
23.7207 32.2726 13.1834 -0.275269 -1.21793 0.153705
26.269 31.7091 11.9867 -0.0487062 0.994177 0.90084
11.5171 9.68172 16.46 1.51552 -2.41778 -0.0725468
16.1757 8.21647 15.6471 1.70392 -0.690427 2.37732
15.3564 5.85216 14.7254 0.716909 0.698806 1.76118
13.4391 7.68852 15.5609 2.40807 -1.95261 1.16499
15.1471 6.3585 17.4541 -0.609473 -0.250499 -0.895203
18.4724 9.45442 14.4446 -1.74479 0.659025 -0.0838146
18.6011 8.34273 17.1822 -1.12677 -0.0662979 -1.56478
17.7081 5.956 16.2105 -0.989928 0.375252 -0.142463
20.1537 6.17668 17.7747 -1.17626 -1.06489 -1.16479
20.0369 7.15522 15.035 0.496039 0.496761 -1.01789
20.9491 9.58042 15.9772 -0.559415 0.325924 0.79516
23.4039 9.81114 17.5408 -0.149101 -0.492396 1.9713
22.5065 7.36257 16.62 1.58167 1.40161 -1.75839
24.8718 8.72329 15.4452 -0.622972 1.41516 -1.25279
24.9767 7.63642 18.2088 0.75679 -0.46729 0.415927
27.3522 9.03885 17.0506 -0.94661 0.844015 -1.24915
9.60415 11.7099 17.3727 0.140724 -0.686307 -1.06595
11.0142 12.0269 14.8707 -0.950914 0.028507 -0.897382
9.10527 14.078 15.7924 -0.151877 -0.345113 0.888708
15.0822 12.5993 17.4779 -1.26918 0.445857 -0.133887
14.2104 10.1247 16.514 -3.20488 -1.24653 0.26122
12.298 12.1071 17.4082 -0.823347 -0.823215 0.293684
13.7591 12.4988 14.883 -0.411663 -0.409514 0.506193
17.876 13.1244 17.5603 -0.119366 -0.560347 -0.574474
17.0298 10.6818 16.6082 -0.106816 -1.33981 1.42559
16.6222 13.0282 15.0095 0.128975 0.907072 0.793121
19.3207 11.9327 15.42 1.23829 0.461911 0.91886
19.4486 10.8271 18.1426 1.91256 -0.15298 -0.410464
21.6225 13.2641 14.2784 -1.70281 -0.526427 0.249645
21.7858 12.0892 16.9568 -0.0948948 2.04131 1.31005
24.1008 13.4559 15.8281 1.05638 -1.94617 -1.23093
23.2761 10.9139 14.8247 -1.84968 -2.35687 1.79071
26.5262 13.8076 17.4324 -0.369115 -0.590764 1.90372
28.0175 12.6844 15.3331 -2.08894 0.247839 2.1217
28.1443 11.5899 18.0291 -0.391906 0.967475 -1.37796
25.7332 11.1862 16.4051 -0.13988 -0.79846 0.0877999
27.2237 10.1474 14.3198 1.22608 0.659207 0.623862
29.57 10.5373 15.9615 -1.29342 1.45337 -1.59924
30.8379 13.0563 15.3316 0.352206 1.55073 1.10802
30.9664 11.9477 18.0623 0.206041 -0.442163 -1.01588
5.51936 18.2351 17.6993 0.416934 -0.435704 0.827886
7.25174 16.1658 16.719 2.68118 0.992422 1.15683
11.8376 14.5057 15.78 -0.155962 0.898343 -0.735202
9.98062 16.5587 16.7075 -0.374418 -1.9573 0.0154313
11.4752 16.9739 14.2347 -0.62327 0.359905 -2.13867
8.73554 16.5955 14.2163 0.112471 -0.106297 -1.69649
15.5374 17.466 16.855 -0.358769 -0.146882 2.94134
14.6501 14.9857 15.8707 0.184437 0.787029 -0.82053
12.763 17.0134 16.782 1.04351 1.61516 0.382041
14.2898 17.4387 14.3349 1.38129 -0.161219 -0.185616
18.3367 17.9369 16.9513 -0.441272 0.316759 2.1213
17.4774 15.4846 15.9755 -0.0490567 2.30147 0.255547
17.1211 17.9114 14.4561 -1.00364 -1.22616 1.11767
20.1667 14.3928 16.3847 -0.277479 -1.53134 0.427249
19.7874 16.7974 14.7917 -1.30794 -0.801648 -0.633619
23.2705 18.2487 16.2933 -0.728994 2.09982 -2.32536
21.0047 16.8537 17.3573 1.60984 0.0833406 -0.81091
22.4572 15.7448 15.268 0.00707643 -1.66432 -0.18037
22.6214 14.5904 17.9334 0.879056 -0.145623 0.277848
24.7217 17.1654 14.2228 1.8282 -0.498159 -0.27617
24.9118 16.0168 16.8469 0.959828 0.110711 1.04459
27.5378 17.5603 14.1937 0.393427 -0.559462 -1.10127
26.3788 14.9182 14.7637 1.05626 -1.21713 -0.0276364
27.759 16.4001 16.8523 0.179275 -0.90788 -0.225081
30.3362 17.9703 14.1925 0.946155 -0.948475 2.88265
30.5858 16.7968 16.8712 1.09933 -0.856476 0.139142
29.2702 15.2834 14.7491 -0.126388 2.34904 -1.0651
29.4297 14.1613 17.4399 0.88661 0.258979 0.396276
32.0169 15.7442 14.7516 -0.94202 -0.210909 -3.09184
32.1745 14.6007 17.4898 1.32357 1.03181 -0.318998
33.3077 17.2851 16.9105 0.597664 1.01657 0.342448
8.21252 18.6644 17.6762 0.981567 -2.45059 -3.05762
7.00144 18.6552 15.2294 1.6392 0.823377 -1.29327
6.50722 20.8566 17.069 -1.27753 0.236663 2.55408
7.99333 21.273 14.5652 2.23236 0.187241 -0.389658
10.9731 19.0981 17.7377 2.25244 1.26598 0.21365
12.0115 21.7481 17.1352 0.999011 0.0125634 1.94008
9.68642 19.0821 15.2191 -0.169666 0.0959276 -1.95132
9.22344 21.3295 17.0634 -1.02508 -0.29868 -0.220261
10.716 21.7582 14.5915 0.534623 1.20111 -0.267431
13.7135 19.5289 17.7935 0.567036 -0.655199 0.83177
15.2243 19.9496 15.3723 -1.03861 -0.559456 0.39897
14.7915 22.1664 17.2056 -0.734159 -0.426227 -0.56777
12.4609 19.5171 15.2913 -1.31051 1.77559 -0.12279
13.5386 22.1734 14.688 1.47395 0.650867 0.0341805
19.2075 20.3891 17.9508 1.47994 0.528616 0.557388
18.0134 20.3832 15.4932 2.14344 -0.30351 0.576443
16.4548 19.959 17.8604 -0.252467 -0.807741 -0.205152
20.1912 22.1641 16.0396 -1.14304 0.546681 0.581483
22.8591 21.0808 16.4456 1.20462 -0.401542 0.393487
20.6456 19.2997 15.8258 0.141621 -0.244591 -0.30479
24.3262 20.0056 14.3489 -1.08854 -0.436219 -1.38379
26.0669 18.6499 16.2788 -0.27139 -0.673489 -1.33673
25.6641 21.5265 16.4372 0.739946 -0.652027 2.41381
28.4416 21.9658 16.4551 1.4721 0.0924237 -1.12493
27.1656 20.4425 14.3208 1.19857 0.806084 -0.259211
28.8336 19.0676 16.2975 0.394197 0.0547451 0.0520896
31.6106 19.4917 16.3241 1.0949 -1.79906 -0.335828
31.2272 22.4064 16.4717 -0.217416 -0.142213 -0.319935
29.9861 20.8814 14.3132 0.84328 0.453569 0.243781
34.2897 19.9437 16.4184 -0.156414 -0.0697808 -0.625272
33.0229 18.4086 14.263 0.0773832 0.357992 1.1765
32.7214 21.2787 14.4095 -0.756437 1.5494 1.19787
7.6061 23.525 16.4968 -0.0695422 0.0330587 -0.216014
10.3363 23.9664 16.4855 0.825235 -0.259058 -0.943119
11.5254 26.5753 15.9327 -0.913087 1.39131 0.909801
8.76914 26.1754 15.9256 1.76858 1.02862 2.03088
16.0063 24.7544 16.667 -0.504947 1.54992 -0.666653
14.7695 24.778 14.1572 0.908113 -1.24464 -0.836839
13.1612 24.368 16.5704 0.713309 -2.22403 1.48434
19.8147 24.3527 17.9171 0.806628 -0.910562 1.77896
17.6012 22.5716 17.2971 1.02147 -1.46678 -1.68474
18.2376 26.5497 17.292 -0.892 0.199339 0.534063
16.3798 22.583 14.8045 -0.867156 -1.29348 1.61169
18.5808 24.4026 15.3592 1.17236 0.393943 -1.00779
16.9782 26.6206 14.7107 0.446165 -0.0785785 1.30187
22.3751 23.8926 16.7147 0.967157 -0.712355 1.17778
23.3746 25.658 14.8571 -1.73532 1.97656 0.424353
23.2616 26.4165 17.6234 1.317 0.547781 1.30086
23.8755 22.8472 14.5611 -0.301574 -0.0345591 0.929234
20.8071 26.1452 16.0445 -0.629374 0.0179775 0.508742
21.1865 23.9392 14.152 2.26915 -1.25253 2.30922
25.1581 24.3783 16.7066 1.06204 -0.141908 0.262094
27.9188 24.8346 16.7282 -1.538 0.0745055 -0.925159
26.1742 26.1577 14.8358 1.26568 2.39629 -0.570375
26.7101 23.3144 14.5353 -1.42126 0.226521 -1.12976
30.6913 25.2868 16.7569 0.270589 0.568252 -0.0912659
29.5279 23.771 14.529 0.588108 1.09813 -0.854811
32.2541 24.2256 14.6296 -0.534295 -1.4682 1.90188
33.381 25.673 16.8461 0.459114 1.60591 -0.509532
33.9491 22.8298 16.587 -2.38744 1.04042 -1.82934
11.2609 28.7101 17.9001 1.18174 1.27276 1.50732
8.56162 28.3049 17.8488 -1.193 -1.06573 -0.337041
9.98928 28.7917 15.3588 -0.0102239 1.41091 1.20289
14.1162 29.0409 17.9778 0.15481 0.201601 -1.56655
14.4145 26.9409 16.0472 -1.10918 -1.84763 -1.2506
12.8099 29.1415 15.4181 -2.58318 -0.510361 1.3063
19.2269 28.3644 15.4057 1.49761 -0.289204 0.427879
16.6534 28.7422 16.6744 0.762022 -0.142562 0.979038
19.0813 29.1314 18.2289 -1.64462 -1.10289 0.765999
17.634 30.5895 14.7703 -1.25663 0.933176 0.811407
24.2714 28.2028 15.7559 0.271325 0.513136 -0.894599
21.8084 27.9308 14.1716 -0.648865 -2.23672 -0.251798
21.6785 28.7225 16.968 -1.25548 -1.30836 -0.471787
22.6908 30.5561 15.0793 0.841279 -0.0799594 0.11807
26.088 26.9318 17.6389 3.10743 -0.721568 0.414092
25.1553 30.7253 16.6806 0.325662 2.31385 -1.88982
27.1338 28.7516 15.7551 1.09304 0.907692 -0.800295
28.9622 26.6337 14.8396 0.954673 0.869146 -0.209532
28.8993 27.4262 17.6652 -1.20479 0.224019 0.407013
31.6543 27.0385 14.9074 1.68202 -1.67056 -0.970481
31.6396 27.7992 17.6958 -1.03544 -0.0125036 -1.90621
29.8884 29.1634 15.7539 0.504008 -0.849284 -0.386479
10.9944 33.3399 16.776 -0.904497 0.300934 -0.432971
9.75542 30.9015 17.2922 -1.02006 0.266618 -0.585683
11.2615 31.3209 14.879 -1.02055 0.238728 0.504904
12.5227 31.2353 17.3644 -0.270732 2.59652 -0.320082
15.0612 30.9528 16.0489 1.04709 -1.21283 -0.468837
13.297 33.7512 18.2845 1.2699 1.00186 0.601864
16.0369 32.7165 14.2074 1.0481 -0.443799 -0.269359
13.4504 33.082 15.4923 0.152343 -1.12406 1.72962
15.8547 33.511 17.0022 -0.74445 -1.64499 0.533906
20.0886 31.0044 16.3247 -0.81698 -0.0277753 -0.0154727
17.4906 31.3748 17.604 -0.455941 1.57969 -0.738226
18.4632 33.1504 15.6912 1.31869 -0.232844 -0.844835
22.5455 31.2757 17.9052 0.0476437 -1.07833 0.776678
23.5963 33.0134 16.0275 -0.978394 -0.645469 -1.80136
20.946 33.4656 17.2927 -2.26008 -0.249387 0.0556699
21.0904 32.7368 14.4157 -0.547202 1.65864 -0.78315
25.9853 33.1313 17.6492 -0.03655 -0.76294 -1.41721
26.1341 32.4316 14.8039 -0.834188 1.17147 -0.783119
27.9525 31.244 16.6903 0.138207 0.508707 0.168958
15.967 8.75675 18.4611 2.48957 0.306138 -0.0583556
15.7929 9.38531 21.2825 2.24219 -2.34516 -1.37046
14.9724 6.9908 20.2903 -1.1 0.480617 0.462503
13.1742 8.23411 18.3672 1.85962 1.48824 0.193369
12.998 8.85701 21.2362 -0.0810305 3.14037 -0.688192
18.4133 8.87439 20.0424 -0.509697 -1.97217 -0.65274
17.5437 6.46093 19.0323 -0.453833 2.38269 0.378916
17.3551 7.08907 21.8997 -0.192331 -0.159553 0.763537
20.0202 6.67032 20.6058 -0.90848 0.58753 -0.00350986
21.0339 8.5617 18.7381 -1.14152 1.39415 -0.429181
23.4726 8.83205 20.3068 0.856336 0.711542 1.4777
20.8609 9.10315 21.6176 -1.83375 -0.706132 0.654602
22.6134 6.43038 19.3534 -0.988488 -0.0161573 1.27647
22.4904 6.94422 22.1947 -1.17995 0.296336 0.0471793
25.8895 9.15071 21.8703 2.23554 -0.2355 0.0725777
25.0669 6.72134 20.935 1.53634 0.848139 -1.61885
27.4326 7.97504 19.7921 -0.843347 0.456161 -0.993184
29.6856 9.44793 18.6832 -0.924536 -0.280323 0.909243
29.7797 8.38876 21.3935 0.485381 1.04586 1.19642
7.72 13.7614 18.2933 -2.57937 -0.544607 0.353437
10.4132 14.1322 18.3182 0.974072 -2.92137 0.581999
12.0485 12.6794 20.2754 1.96237 -1.44193 -1.49419
11.2206 10.2413 19.2659 -0.118668 -0.380474 -1.04515
9.31142 12.2924 20.1876 1.53668 0.437786 -1.07378
11.0441 10.897 22.158 1.07279 -2.48882 -1.30973
14.8587 13.1784 20.3197 0.783693 -0.426131 -0.867473
13.9695 10.6778 19.3658 -0.706955 -0.795559 0.452367
13.7911 11.3222 22.2073 1.49383 -0.22584 -0.31563
17.6833 13.7014 20.3655 -0.313749 2.05472 0.20056
20.294 13.2909 19.098 0.0256864 0.760863 1.45188
20.1227 13.8948 21.9386 -2.07997 1.44107 -0.153246
16.829 11.2389 19.4144 2.61696 -0.381746 0.500809
16.6617 11.8829 22.2308 0.954781 0.274169 -2.01835
19.269 11.3886 20.9913 0.0919992 -0.497703 -0.804344
22.71 13.5587 20.6521 0.0369452 -0.280398 2.13764
21.8772 11.0632 19.6989 -0.0957465 0.757982 1.24997
24.2955 11.3644 21.2602 1.48839 -0.614978 -0.861805
24.2277 12.3599 18.5275 -0.37133 -0.182647 -1.77171
25.0965 13.9244 22.2048 0.246032 -1.29777 0.839242
26.6307 12.7428 20.1218 -0.628379 -0.24846 0.736997
28.2376 10.5368 20.7255 -0.492318 -0.64188 2.00981
25.8384 10.1224 19.1221 2.33806 -1.57201 -0.325868
29.5244 13.0891 20.154 -0.321192 0.171893 -0.0422743
32.2758 13.5109 20.2525 -1.803 0.586163 0.670786
31.0571 10.8921 20.8068 1.2751 0.759176 0.29863
6.82871 18.259 20.161 0.256622 0.15579 -1.09217
4.19495 17.8442 20.1156 -0.740979 1.10705 -2.11078
5.87438 15.8162 19.2136 -0.0148315 0.343148 0.903361
5.72093 16.4855 22.0056 0.40072 0.268505 1.20848
7.45823 14.375 21.1267 -1.22791 0.739836 0.722766
11.3363 16.624 19.2867 0.11461 2.75367 -0.313434
11.1794 17.3086 22.1425 -0.92875 0.493928 0.476756
8.57768 16.1766 19.2338 -0.760291 0.376054 1.9911
8.41985 16.8649 22.1053 -0.555686 -3.0031 -0.408446
10.1906 14.7376 21.1902 -0.332848 0.329006 -0.613404
15.9425 15.0572 18.4355 -0.293934 -0.3348 0.309585
14.0754 17.0633 19.3372 1.11183 0.419932 0.935627
13.919 17.7455 22.1833 -0.995066 -0.813452 1.49785
15.7444 15.6718 21.2718 -0.976442 -0.307051 0.897752
13.1841 14.5914 18.3753 -2.6167 -0.543048 0.444364
12.9714 15.206 21.2309 4.48813 -0.960023 0.527086
19.5602 17.9857 19.4556 -0.135897 1.66558 -1.47507
18.7209 15.5632 18.5111 -0.992822 1.02548 -0.884762
16.8139 17.5129 19.3919 1.12383 1.60703 -1.78298
18.5408 16.1678 21.3067 0.0156087 0.910008 -0.800317
16.6587 18.1898 22.2156 -0.699179 -0.0330517 -1.75598
21.9529 18.2507 20.9947 -1.37668 -0.325917 0.574488
23.5194 16.0948 21.5977 -0.585973 0.0298548 -0.100988
23.4399 17.1234 18.9238 1.1674 -0.527225 -1.04392
21.131 15.7606 20.0493 -1.96669 -0.286058 -1.89258
26.3197 16.4637 21.6629 -0.305525 -1.04914 0.903421
25.0372 14.9324 19.5176 3.57823 -0.682894 0.512877
26.2531 17.5133 18.9503 0.423704 0.714542 0.526303
27.9175 14.2794 22.2744 0.70344 -0.844811 -0.559242
27.8859 15.3041 19.5518 0.766389 -0.5726 1.08607
29.0882 16.8666 21.7181 0.182383 0.225479 0.785928
29.0349 17.9234 18.9866 -1.05044 0.710983 -0.83287
31.8664 17.2799 21.7714 -0.926904 0.344583 0.0530816
30.719 14.664 22.3358 2.14433 1.05521 1.51343
30.7135 15.6941 19.5874 -0.81183 -2.18804 0.267436
34.5428 17.7571 21.8037 -0.901565 -0.618161 -1.46421
33.4043 15.115 22.3749 -1.04748 0.773271 0.491706
33.438 16.1605 19.6808 -0.618505 -0.720808 0.450488
7.82942 20.8901 19.5855 -0.913392 0.46571 0.316808
7.95712 19.7781 22.3227 -1.06035 -0.651308 0.13598
5.14688 20.3991 19.5556 0.420252 1.88895 -0.0163768
5.27101 19.3179 22.217 -0.0650654 -1.65906 -0.62432
6.25302 21.9649 21.693 -0.433787 1.39442 0.389562
9.57496 18.6915 20.2084 -0.789889 -1.26063 -1.11859
10.5922 21.3116 19.6364 0.960824 0.788173 0.193429
10.7192 20.2056 22.3586 0.49854 -0.0421176 0.317067
8.96494 22.4565 21.7659 1.82979 1.15279 -1.18353
15.0125 19.5477 20.3023 1.09002 -0.133442 0.845807
16.0782 22.1476 19.7377 -1.37038 -0.483716 -0.606012
16.2038 21.0541 22.4293 -1.25578 -0.513428 -1.89077
12.2958 19.1199 20.2554 -1.6015 0.117147 -0.988693
13.3338 21.7349 19.6857 0.00369472 -1.21721 -0.708985
13.4604 20.6327 22.3987 -1.4476 -1.28 0.231411
20.395 20.395 20.395 1.13939 0.480862 1.04645
17.7111 19.9725 20.3488 -1.63083 1.36944 0.470153
19.4078 18.6509 22.2302 -1.29408 1.2336 0.979736
18.9609 21.4651 22.4401 0.808337 0.0326313 0.638328
23.0789 20.8174 20.4411 0.954122 0.231827 0.0250106
21.3823 22.1391 18.5599 0.509137 0.517594 -0.980066
21.8289 19.3248 18.3498 0.0195077 0.607703 0.253437
25.7775 21.2422 20.4873 0.136785 -0.173408 1.24825
24.5859 19.7358 18.3603 -1.68711 -1.164 1.26791
24.7121 18.6426 21.0522 -1.15337 0.376081 0.584024
28.4943 21.6698 20.5338 0.620101 0.188904 1.86945
27.3292 20.1571 18.3904 0.696686 0.213148 -1.20689
27.4565 19.0552 21.1038 0.10808 -0.391257 -0.403601
31.2151 22.0981 20.5803 -0.879596 0.596893 -1.23481
30.0705 20.584 18.43 -0.810914 -1.8377 0.30224
30.1982 19.4784 21.1527 -2.12734 0.8738 0.626463
31.825 18.3335 19.0224 -0.485878 0.03906 1.77165
32.8325 21.0114 18.4655 0.307969 0.566612 1.07894
32.961 19.8997 21.2031 0.0689456 -1.81886 -0.854156
35.5187 21.4714 18.5708 -1.38603 1.71265 0.624487
35.6435 20.3905 21.2326 1.27477 0.317218 -0.0441965
34.5369 18.8249 19.0951 -0.643875 1.37142 -0.0673788
6.24838 23.0333 18.9849 0.805692 -0.930463 -0.466106
7.38764 25.6761 18.4141 0.64647 0.0114795 -0.367486
7.35263 24.6301 21.1078 -2.44036 -0.373935 0.342665
11.7028 23.9241 19.0713 -1.24559 2.58602 0.904136
11.755 22.8667 21.8023 -1.13554 1.03119 1.6839
8.92459 23.5107 19.0176 -1.12306 -0.257005 -0.113779
10.0728 26.1273 18.4537 -0.61064 2.35223 -1.03075
10.0771 25.0967 21.2014 -0.660156 1.50143 0.743667
15.7533 25.8582 21.2724 1.41453 -1.19394 -2.12394
14.4712 24.3269 19.127 0.655082 0.647241 -1.5123
14.5368 23.2769 21.8391 -0.0120089 -1.6325 -0.250258
12.8741 26.5119 18.5156 0.891351 0.326093 -1.81278
12.9047 25.4866 21.2376 0.763774 1.11074 0.0345088
18.8374 22.5395 19.7954 0.877634 -0.203482 -0.074289
17.2714 24.6958 19.1925 1.06509 0.555376 1.16761
19.6596 25.0295 20.741 0.872073 2.02484 -0.255241
17.3501 23.6667 21.8661 0.359306 -1.85901 0.232652
21.2299 22.8041 21.3346 1.89184 -0.717283 -0.269602
22.0695 25.2264 22.2794 0.470505 0.0387015 -0.306523
23.9764 23.2768 21.3982 0.0997361 0.328936 1.28943
24.1314 22.5999 18.5741 -0.401748 -1.21201 0.0271679
22.2498 24.6219 19.4836 -2.73985 -1.78216 -0.250332
26.7149 23.7263 21.4526 0.306264 -0.577318 -0.0980676
24.8481 25.7322 22.355 0.290037 0.893296 1.35802
26.8712 23.044 18.606 0.324577 -0.18462 0.943684
25.0462 25.1176 19.5182 -0.272463 -0.519462 -1.43429
27.6066 26.1977 22.4151 1.32337 -1.03705 -0.672438
27.8193 25.5831 19.5587 -0.358864 -2.3147 -0.797441
29.454 24.1654 21.5027 0.584162 -1.10017 1.19213
29.6109 23.4807 18.6463 -0.193889 -0.602021 0.436754
32.2127 24.6127 21.5551 0.0791696 -2.17912 -0.30351
32.3704 23.9241 18.6829 -0.142912 3.50278 -0.497586
30.6001 26.0513 19.5989 1.89935 -1.22796 0.611519
33.9614 22.5304 20.6273 0.270733 -0.274436 1.59945
36.5952 22.9451 20.6724 0.708296 0.0150192 1.70319
34.916 24.9729 21.5748 -1.93488 0.641841 0.260269
35.0693 24.3034 18.7822 0.563474 0.0144367 1.43353
33.3325 26.4137 19.6618 -1.09945 -2.15289 -0.319352
11.2669 27.7023 20.6354 -1.86945 -1.59443 -1.24932
8.51567 27.2805 20.5366 -1.17488 -0.846257 0.835759
9.73509 29.8999 19.9829 -0.540425 2.03176 -0.478214
15.695 26.8667 18.5856 0.10884 -0.159295 -0.344246
14.1606 28.0484 20.6683 1.40521 0.131487 -0.0775194
12.5545 30.255 20.0648 0.859072 1.22674 -0.928483
14.9535 30.6687 21.6685 1.41796 0.108596 -0.871625
18.0812 27.2318 20.1384 -0.893778 -0.450414 1.99446
18.9146 29.7271 21.0919 -0.611917 1.35142 0.528088
16.4965 29.4267 19.5305 0.251327 1.63735 -0.483693
16.5633 28.4306 22.2628 0.535172 0.60941 -1.19802
23.1078 27.088 20.4252 0.32213 1.24853 0.761979
20.497 27.4989 21.6926 1.55564 1.00526 0.471923
20.6686 26.8952 18.8519 -0.773013 -2.11451 -0.257396
23.9628 29.55 21.3769 -1.39409 -0.0781061 -3.14576
24.1302 28.9061 18.56 1.38449 0.0586382 1.84932
21.523 29.4012 19.7997 0.162816 -0.9508 0.714117
25.9325 27.6105 20.4709 -0.436428 0.664304 -1.41926
26.8225 30.1107 21.4255 -0.262886 -0.21733 -0.192919
27.0011 29.4661 18.5832 0.528678 -1.5646 -1.1967
30.3776 26.6568 22.4718 0.855991 -1.55005 -0.799626
28.7429 28.1092 20.5148 -0.842395 -0.121935 1.24062
31.48 28.4959 20.6023 -0.370416 0.330226 1.50511
29.5715 30.5468 21.5252 0.487398 -2.02272 -0.631072
29.7484 29.8907 18.632 0.744119 -0.366801 -1.06458
33.0708 27.0275 22.4962 -0.401882 -0.131271 -0.414995
11.0132 32.4036 19.3969 -0.384011 0.404783 0.131891
11.106 31.344 22.1067 1.20901 0.159325 1.26435
14.9034 31.641 18.9207 -0.2396 -1.35903 -0.756783
15.7266 34.0702 19.8563 -0.644443 -0.361474 0.300638
13.36 32.8166 20.9986 -1.76352 -0.0342335 0.152444
19.7587 32.2284 22.0531 -0.554791 0.127833 -1.67662
17.3201 31.9589 20.4843 -0.575044 -2.11722 -0.81758
19.9322 31.6872 19.1738 2.61758 -1.6133 -1.82714
18.18 34.3603 21.438 -0.262575 0.911807 -0.384885
18.3036 33.8468 18.5969 -0.941169 1.21947 0.854457
22.3795 31.915 20.7491 2.32402 -0.907147 -0.734164
23.2498 34.3281 21.7596 0.500896 0.570131 -1.50947
23.439 33.6999 18.8921 -1.82741 0.637016 -0.65572
20.7735 34.1197 20.1859 1.46455 0.121793 2.20603
24.8255 32.0318 22.3307 -0.278567 -0.189886 -0.897278
25.0001 31.4032 19.5089 1.02456 0.447005 -1.09056
25.8213 33.7971 20.5017 -2.44787 1.80103 -1.18706
27.6185 32.5539 22.4248 -0.293141 0.518222 -1.19954
27.7953 31.9306 19.5551 -1.79082 1.03291 0.923128
14.8087 7.65657 23.1423 -1.60715 -0.350434 -1.16581
14.6594 8.35654 25.9869 1.60049 -1.50626 0.884704
12.8406 9.54358 24.1001 -0.193296 2.02499 1.94759
18.2476 9.51381 22.8861 0.131231 0.0371657 0.429806
17.1977 7.77583 24.764 1.00467 1.58191 -0.620156
19.8481 7.32462 23.4992 1.16131 -0.179713 1.37678
19.7034 8.05388 26.3761 1.04589 0.0329767 1.05786
20.7045 9.7863 24.4667 1.74324 -0.792084 -1.26163
23.3025 9.41647 23.1874 -0.633668 1.19523 1.97731
22.3309 7.64104 25.1008 -0.052186 -0.0829021 0.527777
28.2704 9.55702 23.4263 -1.06179 -1.3099 0.241085
25.7319 9.83936 24.7422 -0.153135 -1.3632 0.644909
27.4966 7.04109 22.5066 -0.641301 2.60465 -0.306519
24.7568 8.07606 26.5844 0.704156 -0.500576 0.0385042
27.3434 7.71069 25.299 0.0556425 -1.68978 -0.597548
24.9392 7.281 23.7894 1.28911 1.43011 -0.593235
29.7993 7.45299 24.0148 -1.07803 -1.65245 2.26157
31.0378 9.89115 23.498 -0.0405705 1.21442 1.20766
29.5319 9.47211 25.9116 0.80851 0.695327 -1.79558
11.8285 14.1546 25.9488 1.86664 1.89522 -0.687996
11.8919 13.3623 23.1241 0.933377 -0.259615 -0.0492556
9.13654 13.7493 25.8802 0.371995 0.209356 0.993703