ITEM: TIMESTEP
0
ITEM: NUMBER OF ATOMS
967
ITEM: BOX BOUNDS ss ss ss
4.1066735346503984e+00 3.5212881332739308e+01
3.6566376596661785e+00 3.7062510202278723e+01
5.9963020961605471e+00 3.4793698650411024e+01
ITEM: ATOMS x y z vx vy vz
14.7235 10.2433 8.51768 -0.782415 -1.70787 -0.901658
12.3741 9.62395 10.0685 0.067683 1.64742 0.204548
17.5263 11.1098 8.61499 1.383 -0.145697 -0.535514
19.6325 9.21105 9.13186 0.885031 -0.0420803 1.63551
16.8296 8.34453 9.03454 -1.7663 0.235534 -1.6693
20.3292 11.9764 8.71231 -0.766739 -0.317684 -0.695193
22.4353 10.0776 9.22918 -1.97853 -0.983636 0.239862
25.2382 10.9441 9.32649 -2.13448 0.881698 -0.908512
28.041 11.8106 9.42381 -0.182588 -1.27031 0.627752
15.4202 13.0086 8.09813 -0.228581 -1.04593 0.597812
13.7675 15.1546 9.22945 0.328818 -2.05254 -2.05261
13.0708 12.3893 9.649 0.189007 -1.60203 0.670456
16.1169 15.774 7.67858 1.02399 -2.51504 -3.02473
18.2231 13.8752 8.19544 -0.117348 1.95057 0.895775
21.0259 14.7417 8.29276 -0.263715 0.493293 -1.17774
23.132 12.8429 8.80963 -0.11436 1.97662 1.98726
23.8287 15.6082 8.39008 -0.0583513 0.99966 0.939865
25.9349 13.7094 8.90695 -0.497505 -1.4238 -0.344679
28.7377 14.5759 9.00426 1.69291 -1.56301 0.924525
30.8439 12.6771 9.52113 -0.475432 0.263418 1.75587
31.5406 15.4425 9.10158 0.137807 -0.134305 -1.61315
14.4642 17.9199 8.8099 -0.602341 0.322382 -2.13161
12.8116 20.0658 9.94122 1.94095 1.83346 -0.696756
17.7815 20.1336 9.45668 0.62305 0.197607 0.293458
19.6165 19.4058 7.35635 0.923153 -1.28093 -0.803465
17.0848 17.3683 9.87623 0.161841 -2.67283 1.35643
16.8136 18.5393 7.25903 1.001 -0.854763 -0.938213
18.9198 16.6405 7.7759 -3.16667 -1.28971 0.266131
22.6904 19.1014 10.0709 0.146561 -0.53115 -0.813465
22.4193 20.2723 7.45366 0.300525 1.25535 0.925162
19.8876 18.2349 9.97355 -0.254274 2.38612 1.00776
21.7226 17.507 7.87321 0.805878 -1.18755 1.36324
27.3283 19.24 8.06785 -0.0319763 0.161016 -1.04633
24.5254 18.3735 7.97053 -0.929679 -1.03652 0.500195
26.6316 16.4747 8.4874 1.69722 -1.66946 -0.96445
29.514 20.0227 9.77618 1.78404 0.646565 0.58312
29.4344 17.3413 8.58471 -1.90366 0.641597 0.259352
15.1609 20.6852 8.39035 0.610954 -0.495748 1.4026
13.5083 22.8312 9.52167 2.48061 1.65833 1.27724
18.4782 22.899 9.03713 0.125514 -0.198391 -0.320937
18.207 24.0699 6.41993 -0.768884 -0.187422 1.81352
17.5103 21.3046 6.83948 -2.45014 0.525153 0.83628
15.8577 23.4505 7.9708 1.40482 0.0306234 1.84265
21.281 23.7655 9.13445 -1.12611 -0.60239 -1.16341
23.3872 21.8667 9.65132 -0.420348 0.503141 1.01081
23.116 23.0376 7.03411 -0.676911 0.390407 0.122279
20.5843 21.0002 9.554 0.860205 -1.22989 0.432979
20.3132 22.1711 6.9368 0.813773 2.05644 -0.499642
25.3017 23.8203 8.74245 4.55201 -1.00888 0.552697
25.2222 21.1388 7.55098 -1.4833 0.335482 -1.09442
27.4079 21.9215 9.25931 -1.26623 0.920521 0.874545
14.205 25.5965 9.10213 0.712669 -0.910684 1.0275
19.1749 25.6643 8.61758 -1.34088 -0.361116 0.5477
18.9037 26.8352 6.00038 0.916479 -0.248519 -0.0838459
16.5544 26.2159 7.55125 -0.537966 -0.00825949 -0.152547
18.3358 28.4087 8.34777 -0.0935675 0.21256 1.67666
15.9864 27.7893 9.89864 -1.13887 -0.273349 2.14839
21.0895 27.6179 7.70871 -0.654858 -0.0812895 -1.7696
21.0099 24.9364 6.51725 0.662473 0.164518 1.8395
23.2752 28.4006 9.41705 -0.938567 -0.3485 0.895165
23.1956 25.7191 8.22558 -2.03357 1.40849 -0.173834
25.3813 26.5018 9.93391 1.06845 1.59044 0.405472
20.5215 29.1913 10.0561 1.14398 0.382535 0.931789
17.1008 7.17357 11.6517 0.16295 0.354153 0.666969
10.9926 10.5989 13.8171 -0.7802 0.131288 -1.112
10.7214 11.7699 11.1999 -0.147443 -0.0100808 1.56516
15.6913 11.8377 10.7153 -0.350072 -0.444008 0.969555
15.2658 7.90142 13.7521 -2.0203 0.0885446 0.28037
14.9946 9.07238 11.1349 2.19906 -1.69442 1.05218
13.342 11.2183 12.2662 -0.192825 2.73927 1.04513
12.6453 8.453 12.6858 -0.249722 1.05537 0.300076
18.7653 11.5333 13.4299 -2.2477 2.07664 0.616939
15.9625 10.6667 13.3325 -0.724891 0.541846 0.258381
18.0686 8.76794 13.8494 -0.98978 0.156379 -1.06775
17.7975 9.93889 11.2322 -0.621468 1.64133 -1.7999
23.4032 11.6719 11.4268 1.13823 -2.54308 -1.2664
20.8715 9.63446 13.9467 0.580713 0.0543065 -0.909913
20.6003 10.8054 11.3295 1.65677 3.02959 -2.06399
22.7065 8.90662 11.8464 0.92594 0.383669 0.736579
19.9036 8.0401 11.7491 -0.0375723 -0.213496 0.567193
26.4772 11.3675 14.1414 0.435147 0.161264 1.07149
23.6743 10.501 14.044 1.58565 0.403545 -1.01485
25.5093 9.77314 11.9437 1.0198 0.960507 2.31239
31.115 11.5062 12.1383 -0.0473717 -0.491437 2.09295
28.3122 10.6397 12.041 -0.0159607 0.119575 0.778669
7.4161 16.0618 13.4625 -0.616954 -0.0294117 -0.593101
11.6893 13.3643 13.3975 -0.581505 2.59274 -0.37858
11.4181 14.5352 10.7803 -0.367136 -0.796624 -0.221295
9.06877 13.9158 12.3312 -0.442155 1.70888 0.333478
15.0065 15.578 14.0443 -0.220664 0.0776405 2.02761
14.0387 13.9836 11.8467 -1.04337 -0.944128 -0.200596
12.386 16.1296 12.978 -0.101642 -0.578929 -1.85734
19.462 14.2986 13.0103 -1.58647 1.38374 1.73903
19.1909 15.4695 10.3931 -0.0885115 -1.1743 0.674005
16.6592 13.4321 12.913 0.522454 -0.253684 1.55063
16.388 14.603 10.2958 0.127881 0.891654 -1.58348
18.4942 12.7042 10.8126 0.0212013 -2.05223 0.19972
22.2649 15.1651 13.1076 0.870863 1.19764 -0.850749
21.5682 12.3998 13.5272 0.751703 -0.364993 -1.04926
21.297 13.5707 10.91 0.508831 -0.848777 -0.375622
25.0677 16.0316 13.2049 -2.3501 -2.99103 0.358218
27.1739 14.1328 13.7218 0.579174 0.0326255 1.43576
26.9027 15.3038 11.1046 0.472272 1.624 -0.508033
24.371 13.2663 13.6245 -0.0425945 -0.764014 -1.37266
24.0999 14.4373 11.0073 -0.844845 1.17738 -0.743144
26.206 12.5385 11.5241 0.306325 -0.328808 -1.75509
29.9767 14.9993 13.8191 -0.919524 0.283667 -0.312364
29.7056 16.1703 11.2019 2.32048 -1.30631 1.11815
29.0089 13.405 11.6215 -1.54337 -0.387408 -1.13128
31.8117 14.2715 11.7188 2.71802 0.966375 1.25888
33.9974 15.0542 13.4271 -0.56709 -1.36931 -1.85755
10.7333 18.2755 14.1093 -2.39273 1.05241 -1.90588
10.4622 19.4465 11.4921 -0.535493 -1.47043 1.84433
9.76548 16.6812 11.9116 -0.131342 -0.204188 0.718482
8.11281 18.8271 13.043 1.1209 -0.0170851 0.995602
15.7032 18.3433 13.6248 -1.56655 0.425062 0.594373
15.4321 19.5143 11.0076 -0.530973 -1.20189 -0.804539
14.7354 16.749 11.4271 -0.350144 -2.00461 0.0388633
13.0827 18.8949 12.5584 0.319675 1.42146 0.501586
12.1149 17.3005 10.3608 -0.74436 1.02316 0.0715532
18.0526 18.9627 12.0739 0.713073 1.99307 -1.79608
17.3559 16.1974 12.4934 1.91726 0.0145821 0.167292
20.8554 19.8292 12.1712 0.847687 -0.266272 0.42342
22.9616 17.9304 12.6881 0.0214298 -0.396297 -0.559581
20.1587 17.0639 12.5908 0.904268 0.295323 -1.76216
21.9937 16.3361 10.4904 1.63462 0.515051 -0.307112
25.7644 18.7969 12.7854 0.178621 0.124532 0.81146
25.4933 19.9679 10.1682 1.80594 1.59779 0.181922
24.7966 17.2026 10.5877 0.632187 -0.86534 0.185875
27.8706 16.8981 13.3023 -0.82906 -0.0314289 0.0524189
27.5994 18.0691 10.685 -0.45466 1.56553 -0.666052
29.7852 18.8518 12.3934 2.039 -0.959914 0.253929
31.9709 19.6345 14.1017 -1.7274 0.502616 -0.987406
31.8913 16.953 12.9102 -1.05984 0.00125403 0.550025
31.6202 18.1239 10.293 -0.924697 0.00689964 -0.839975
33.8059 18.9066 12.0014 -1.04844 -0.328212 0.318651
33.7263 16.2251 10.8099 0.992714 -0.687147 -0.537905
7.15684 23.7384 13.7548 -1.07186 -1.05878 0.433584
6.46013 20.973 14.1743 -0.187287 -0.278583 -0.670826
9.50622 24.3578 12.2039 0.291836 -0.284549 1.51229
11.43 21.0408 13.6897 1.35605 -0.63282 -0.565116
11.1589 22.2118 11.0725 -1.72451 0.63848 -0.140783
8.80952 21.5924 12.6234 -1.07496 1.82608 -0.43803
14.4761 24.4256 11.7193 -0.183239 -0.444527 0.0635615
12.1267 23.8062 13.2702 -0.336262 -2.59994 1.26701
13.7794 21.6602 12.1389 -0.666827 -0.261292 1.54941
19.446 24.4933 11.2348 0.0400613 0.590464 0.233229
17.0966 23.874 12.7857 0.951409 0.498458 -0.883659
18.7493 21.728 11.6543 0.293366 -1.32547 0.799243
16.3999 21.1086 13.2052 1.2606 2.40581 -0.592255
16.1288 22.2796 10.588 -1.38152 -0.106843 -3.16301
19.7171 23.3224 13.852 -1.26965 1.21119 0.973845
21.5522 22.5945 11.7517 -1.14077 0.535864 0.589098
23.7379 23.3772 13.46 0.901484 0.493791 0.975343
23.6583 20.6957 12.2685 0.149447 -1.77731 -0.518812
25.844 21.4784 13.9769 -1.71588 1.72555 0.568627
25.5729 22.6494 11.3596 0.827155 -0.459407 -0.855236
27.7586 23.4321 13.068 -0.118044 2.37418 -1.09836
27.679 20.7506 11.8765 0.300192 1.63355 -0.0930682
29.8648 21.5333 13.5849 1.92039 -1.07917 -1.68629
29.5936 22.7042 10.9676 1.15013 0.524635 0.323122
31.7793 23.4869 12.676 0.0114626 0.308207 0.982381
31.6998 20.8054 11.4845 0.44083 -0.473353 0.922034
33.8855 21.5881 13.1928 -1.21184 -0.895382 -1.23858
11.8556 24.9771 10.653 -0.093389 -0.544344 1.20592
11.2877 26.5506 13.0004 -0.00152702 0.715822 -1.54725
13.9082 25.999 14.0667 1.90873 1.06897 1.68721
13.637 27.1699 11.4495 1.54163 -0.558773 -2.02748
16.8255 25.0449 10.1685 -0.713852 2.09062 -2.3735
18.8781 26.0668 13.5822 1.20925 -0.408941 0.368126
18.6069 27.2377 10.965 -1.1267 0.354497 0.541223
16.2576 26.6183 12.5158 -0.27423 -1.072 0.843346
21.6317 25.276 12.9431 -0.242438 -0.83166 -0.199236
21.3606 26.447 10.3259 0.0547881 0.878753 -0.81915
20.7927 28.0204 12.6733 -0.274265 -0.361131 0.295166
23.5463 27.2297 12.0343 -0.700513 -0.619442 0.325136
23.4667 24.5482 10.8428 -1.0932 -0.122529 0.672412
25.7321 28.0123 13.7426 -1.25565 0.430739 -0.136392
25.6525 25.3309 12.5511 0.198801 0.773185 -0.80981
27.5671 27.2845 11.6422 0.257574 0.60542 -2.59541
27.4875 24.603 10.4508 0.9188 0.262105 0.360113
29.7528 28.0672 13.3506 1.08675 -0.840385 -0.600813
29.6732 25.3857 12.1591 0.378169 2.50457 -1.15847
31.8589 26.1684 13.8674 0.598851 -0.826741 -1.55927
15.4185 29.3627 12.246 -0.534196 0.529804 2.03658
13.0691 28.7433 13.7969 -0.142704 3.51584 -0.582493
18.039 28.8111 13.3124 -0.903051 0.181597 0.531265
17.7679 29.9821 10.6952 -0.770409 -2.14773 -0.275671
17.1999 31.5555 13.0425 0.187532 -0.912092 -0.305748
19.9536 30.7648 12.4035 -1.27173 -1.32493 -0.484532
22.7073 29.974 11.7644 -0.565161 -2.08443 -1.56775
22.1393 31.5474 14.1118 0.472745 -0.822195 -0.464009
25.4609 29.1833 11.1254 -2.60021 -0.575306 0.452357
24.893 30.7567 13.4728 0.401639 -0.827707 -0.00781136
27.6467 29.966 12.8337 -1.6562 1.13057 1.50683
15.5369 6.73047 16.3693 0.108258 0.57209 -1.03397
13.1875 6.11109 17.9202 1.05155 1.21423 -0.569127
12.9164 7.28205 15.303 -0.571357 1.09043 -1.03426
18.3398 7.59699 16.4666 -2.05469 -1.72178 0.50888
17.643 4.83167 16.8862 -0.212749 -0.965542 0.0158425
17.3719 6.00262 14.2689 0.593476 -0.00817373 -1.14448
23.2487 6.56471 17.0808 0.801044 -1.11406 0.101677
22.9776 7.73567 14.4636 0.514215 -0.656392 -0.547915
20.4459 5.69819 16.9835 -1.29962 0.747341 -1.42352
20.1748 6.86915 14.3663 -1.44959 1.90638 -2.03561
26.0516 7.43123 17.1781 0.77075 0.817485 0.0771736
11.2637 9.42798 16.4343 -0.750763 -0.533244 1.28479
9.61105 11.5739 17.5656 0.287111 -0.359939 -0.820295
14.5809 11.6417 17.0811 0.238003 0.570614 1.42704
13.8842 8.87641 17.5006 0.600399 -2.04203 -0.31646
13.6131 10.0474 14.8834 -2.35567 0.184311 -0.622964
17.2015 11.0902 18.1474 0.894605 -0.00595286 0.485971
19.0365 10.3623 16.0471 0.46246 0.281334 -0.713748
16.2336 9.49578 15.9497 -1.16895 -1.70707 -1.13929
20.0043 11.9567 18.2447 -0.557465 0.600317 -0.217492
21.8393 11.2288 16.1444 0.496215 -2.02712 -0.607502
21.1426 8.46351 16.5639 -0.133253 -0.789127 1.05898
26.7483 10.1966 16.7586 -0.696102 -0.46267 0.313338
23.9454 9.33004 16.6612 -0.0350644 3.12721 -0.647279
25.7805 8.60218 14.5609 -1.95271 -0.324713 0.169567
29.5511 11.0631 16.8559 -0.577541 -0.255486 -0.856036
28.8544 8.29776 17.2754 -1.96476 -0.385381 0.604482
28.5833 9.46871 14.6582 -0.642163 0.827219 0.850707
32.354 11.9296 16.9532 -2.51279 0.327218 -0.580407
31.6573 9.16428 17.3727 0.471832 -0.712853 -2.02245
31.3861 10.3352 14.7555 0.87293 0.626546 0.896769
7.68723 14.8908 16.0797 -0.291746 -0.856325 -0.443127
10.3078 14.3392 17.146 0.11378 -1.71494 -0.675691
10.0366 15.5102 14.5288 -0.411525 2.36277 0.334367
9.33991 12.7449 14.9484 -1.54315 0.412671 -2.99825
15.2776 14.407 16.6615 -0.14641 0.882379 -0.718591
14.3098 12.8127 14.4639 0.275208 -0.970734 -0.0906001
12.9283 13.7877 18.2124 -0.159214 -0.0467956 -0.686509
12.6571 14.9586 15.5952 0.0777566 0.378237 1.11792
11.9604 12.1933 16.0147 1.59033 0.837676 -1.68265
17.8982 13.8555 17.7278 0.522082 -0.0759501 0.367689
17.627 15.0264 15.1106 -0.389428 -2.28663 -0.803802
16.9303 12.2611 15.5302 -1.15073 -0.483941 -1.22119
23.5039 15.5885 17.9225 2.05079 -1.54593 -1.6379
20.701 14.722 17.8252 0.972272 0.767197 0.254182
20.4299 15.8929 15.208 -1.24095 2.56712 0.965898
22.536 13.9942 15.7248 -0.338142 0.608261 0.834125
19.7332 13.1276 15.6275 1.43038 0.0806581 -0.804616
25.3389 14.8607 15.8221 -0.335996 0.353268 1.13101
24.6422 12.0954 16.2417 -2.4603 1.80848 -1.13499
28.1417 15.7272 15.9195 0.823096 -0.0678159 0.179414
30.2479 13.8284 16.4363 -1.02543 -1.65354 2.2524
27.445 12.9619 16.339 -0.402814 -0.367741 0.745096
29.28 12.234 14.2387 -1.05212 0.462349 0.504486
32.4336 14.6111 18.1447 0.0101775 -0.697938 -2.82909
32.1624 15.782 15.5275 0.772608 -1.43146 -0.21717
32.0829 13.1006 14.336 0.0872926 -1.34875 -0.272988
34.2686 13.8832 16.0443 0.933448 0.41771 0.00520824
6.73127 19.8021 16.7915 1.60846 1.39761 -1.85062
6.03457 17.0368 17.211 -0.667844 0.527441 0.128242
5.76343 18.2077 14.5938 0.289034 1.13175 0.21801
4.11075 20.3537 15.7252 -0.236425 -1.38171 -0.186096
11.7012 19.8699 16.307 0.973529 -0.303745 -0.06143
11.0045 17.1046 16.7265 1.04564 -1.14551 -1.92431
9.35179 19.2505 17.8578 -0.529201 1.40172 2.60534
8.65508 16.4852 18.2774 -1.14245 0.279262 -0.0238273
8.38394 17.6561 15.6602 0.411342 -0.281263 1.05459
14.3217 19.3183 17.3733 -1.13226 0.976522 1.92672
13.625 16.553 17.7928 1.10498 0.741997 -1.46515
13.3538 17.7239 15.1756 -0.525354 -3.06215 -0.387101
19.2916 19.3861 16.8887 -0.921297 -0.0310407 1.05653
18.5949 16.6208 17.3083 -2.79954 0.652111 -1.60907
18.3237 17.7917 14.6911 1.14918 -0.443859 0.824736
16.6711 19.9377 15.8224 -1.55085 0.0818194 -0.954344
15.9744 17.1724 16.242 0.776166 1.08203 0.0740553
22.0944 20.2526 16.9861 -1.24282 -0.537256 -1.87075
21.3977 17.4873 17.4056 1.1612 0.397535 -0.979212
21.1266 18.6583 14.7884 0.132188 1.7185 2.11305
23.2327 16.7595 15.3053 0.719646 -0.0463386 1.89878
24.2006 18.3538 17.5029 -0.741725 -0.434751 -0.522067
23.9294 19.5248 14.8857 -1.42684 -1.31587 0.276562
26.1152 20.3075 16.5941 0.140943 0.969658 -0.687975
26.3067 16.455 18.0198 -0.882342 -1.41106 1.10671
26.0356 17.626 15.4026 -0.627271 -0.0240547 0.420702
28.2213 18.4087 17.1109 -0.255135 -1.37277 -0.672798
27.9502 19.5796 14.4937 -0.580663 -2.53708 -1.58562
30.3274 16.5099 17.6278 0.736297 0.707844 1.79436
30.0563 17.6808 15.0106 -0.720203 1.07431 -2.01937
32.242 18.4635 16.7189 0.227743 -0.983271 -0.0642788
34.3482 16.5647 17.2358 -0.280526 1.71207 -0.181453
34.077 17.7357 14.6186 0.786579 -0.486874 -0.441726
7.42798 22.5675 16.372 -0.131035 0.200991 -2.15239
5.0786 21.9481 17.9228 -0.178946 1.06007 -1.49003
4.80747 23.119 15.3056 0.00459731 1.20086 1.08354
10.0485 22.0159 17.4383 0.880037 1.24629 1.30686
9.77736 23.1868 14.8211 -0.422596 -1.0392 -0.0884437
11.8299 24.2087 18.2348 -0.31896 0.618522 0.0808156
9.08065 20.4215 15.2406 1.57095 -1.25473 -0.653962
15.0184 22.0837 16.9537 -0.276449 -0.525389 -1.46512
14.7473 23.2546 14.3365 0.907108 1.47344 -0.0248382
12.3979 22.6352 15.8874 -0.476077 -0.85085 -0.469097
14.0505 20.4893 14.7561 0.432182 -0.0920189 1.31708
17.6389 21.5321 18.0201 0.0313448 -0.480923 0.539317
17.3678 22.703 15.4029 2.14575 -0.313109 0.573061
19.0204 20.5571 14.2715 1.83626 -0.494265 -0.305453
16.7998 24.2764 17.7503 0.729535 -0.644976 2.38387
19.9883 22.1514 16.4692 1.48632 0.522816 0.559833
22.174 22.9341 18.1775 1.13338 1.60345 -1.78202
21.9029 24.1051 15.5603 -0.439508 0.310449 2.12674
21.8233 21.4236 14.3689 0.276176 0.779817 -1.0166
24.009 22.2063 16.0772 0.0627555 -0.287373 2.12689
26.1947 22.989 17.7855 -1.32768 1.77817 -0.080267
25.9236 24.1599 15.1683 -1.76841 0.355259 0.535951
28.3009 21.0902 18.3024 1.10161 -0.830268 0.117646
28.0298 22.2611 15.6852 -0.795755 -2.18136 0.238602
30.2155 23.0438 17.3935 1.02417 1.21891 1.09879
29.9443 24.2148 14.7763 0.503196 0.400856 -0.73225
30.1359 20.3623 16.2021 -0.888808 0.0573244 -1.08316
32.3216 21.145 17.9104 0.152358 -0.697363 -1.01081
32.0505 22.316 15.2932 -2.56953 -0.568932 0.42209
34.2362 23.0986 17.0015 0.367993 -0.257198 0.277829
33.9651 24.2696 14.3843 0.0443421 0.953524 0.317563
34.1566 20.4172 15.8101 -1.16009 -0.274867 1.19127
6.58891 25.3118 16.1021 0.634361 -0.522527 0.617298
4.23953 24.6925 17.653 -0.937328 0.846147 -1.37628
11.5588 25.3796 15.6176 -2.16146 0.199224 -0.591359
9.20942 24.7602 17.1685 0.491278 1.48951 0.0275738
8.93829 25.9312 14.5513 -1.10687 -0.0886009 -1.64862
10.9909 26.953 17.965 -0.0549895 -0.741901 0.317583
10.7197 28.124 15.3478 -0.108083 -1.39348 0.544986
8.37036 27.5046 16.8987 -0.533842 0.389007 0.657528
14.1793 24.828 16.6839 0.383638 -0.547899 -1.17193
15.6896 28.1918 14.8632 -0.917368 0.924613 1.76199
13.3403 27.5724 16.4141 -0.324557 0.437762 -0.549712
19.1492 24.8958 16.1994 -1.69043 -1.16831 1.2395
16.5287 25.4474 15.1331 0.125976 -0.400454 -0.461243
18.3101 27.6402 15.9296 -0.651444 0.0155312 0.499093
15.9608 27.0208 17.4804 0.727396 -0.851694 -0.638678
21.335 25.6785 17.9077 -0.931492 0.0412946 1.39578
21.0638 26.8494 15.2905 -0.201724 -1.17028 0.874625
20.4959 28.4229 17.6379 0.735863 -0.148138 0.999359
23.2495 27.6321 16.9988 -2.26535 -2.06811 1.24821
24.0886 24.8878 17.2687 -0.0949924 -0.886593 0.238063
23.8175 26.0587 14.6515 -0.973285 -0.847036 1.51861
26.0032 26.8414 16.3598 2.80456 -0.851264 1.41779
28.1889 27.6241 18.0681 1.19006 0.477605 0.453085
28.1093 24.9426 16.8767 0.975511 0.433283 -0.975247
27.8382 26.1135 14.2595 0.343971 0.509192 -0.750525
30.0239 26.8962 15.9678 0.141318 0.771922 2.11287
32.2097 27.6789 17.6761 -0.429633 0.915301 -1.61254
32.1301 24.9974 16.4847 1.28513 -0.340557 0.144752
34.3158 25.7801 18.193 -2.45853 -0.179124 0.82978
34.0447 26.9511 15.5758 -0.479124 0.332678 1.14837
10.1518 29.6974 17.6952 -1.29697 1.47013 -1.72631
15.1217 29.7652 17.2106 1.21534 0.0646628 -1.84544
14.8506 30.9361 14.5934 1.90154 -1.23316 0.54287
12.5012 30.3168 16.1443 -0.553869 0.32039 0.713324
14.2826 32.5096 16.9408 -1.13825 -0.2913 -0.114465
17.7422 29.2136 18.2769 -0.619178 -0.245915 0.6626
17.4711 30.3845 15.6597 -1.04886 0.716661 -0.912138
16.9031 31.958 18.0071 -0.654061 0.736303 0.657157
19.6568 31.1672 17.3681 0.804092 0.29799 -0.0882478
19.3857 32.3382 14.7509 -0.297838 -1.20254 -0.475264
20.2247 29.5938 15.0207 0.153302 -0.966398 0.712204
22.9784 28.8031 14.3816 0.466451 0.0698646 0.117606
22.4105 30.3765 16.729 -0.419227 -1.39341 0.00316987
25.1641 29.5858 16.09 0.601525 1.63343 -0.105079
24.3251 32.3301 15.8202 -0.664273 1.4752 0.780489
27.3499 30.3685 17.7983 1.23081 0.532291 -0.191985
27.0787 31.5394 15.1811 -0.532674 2.65218 0.381526
27.9178 28.795 15.4509 -0.393185 2.83586 0.757244
30.1035 29.5777 17.1593 -1.02409 -0.492882 -1.77596
29.8324 30.7487 14.542 -0.326893 -1.88858 -0.105626
29.2644 32.3221 16.8894 -1.95146 -0.0401715 -0.742199
32.0181 31.5314 16.2504 1.20251 0.136033 1.3445
31.9385 28.8499 15.0589 -1.63033 -0.761156 1.91975
34.1243 29.6326 16.7672 0.683226 -0.334835 0.65355
16.632 33.1289 15.3899 0.0696146 -0.4591 0.428779
16.0641 34.7023 17.7373 -1.04812 -0.32335 -0.228648
18.8177 33.9116 17.0983 0.947829 0.505643 1.75662
21.5714 33.1209 16.4592 -2.00263 0.110876 -0.468592
23.7571 33.9036 18.1675 0.745655 -0.361615 0.0100263
26.5108 33.1128 17.5285 0.295161 -1.63477 -0.797486
11.806 7.08608 21.6687 -1.59741 0.036834 -0.337684
14.1554 7.70546 20.1178 0.455964 1.88243 -1.65481
13.4587 4.94014 20.5374 2.27766 -0.318101 0.828296
16.7759 7.15388 21.1841 0.672151 -0.484467 1.86844
18.882 5.25508 21.701 1.75203 -0.315657 -2.67682
18.6109 6.42604 19.0838 -0.563784 -0.0766891 -1.15917
16.0792 4.38857 21.6037 2.53055 0.429843 0.743166
15.808 5.55952 18.9865 -0.647707 -0.0289577 -0.705485
17.9142 3.66072 19.5034 0.536666 -2.11593 0.0720447
21.6849 6.1216 21.7983 -1.21118 0.721081 0.806549
21.4137 7.29255 19.1811 -0.368452 0.242108 -3.56157
23.5199 5.39376 19.698 -2.10676 -1.29174 1.60167
20.717 4.52724 19.6007 3.14028 -1.17798 -0.20231
24.4877 6.98813 21.8956 1.88665 1.49301 0.243507
26.3227 6.26028 19.7953 2.2498 0.643786 0.359548
29.1256 7.12681 19.8926 -0.184888 0.179615 -0.132637
10.85 11.9973 22.3805 0.170342 0.508383 0.350669
11.5349 8.25703 19.0515 2.17484 0.164065 1.18293
9.88218 10.403 20.1828 0.452248 1.64032 -0.81083
15.1232 9.29982 22.3155 -0.166644 -2.3589 1.49572
14.8521 10.4708 19.6983 1.02289 -2.07731 -0.268327
12.5027 9.8514 21.2491 -1.15857 -1.06698 -1.20094
12.2316 11.0224 18.6319 -0.956658 -0.0221039 1.23566
17.4726 9.9192 20.7646 -0.752501 0.356539 2.05464
19.5787 8.0204 21.2815 0.111226 0.535948 0.204967
19.3076 9.19136 18.6643 -0.265812 1.28708 -0.822754
16.5048 8.32483 18.5669 0.917675 0.666592 -1.40371
23.0783 11.6522 20.9592 1.55973 -0.167031 -1.51607
20.2754 10.7857 20.8619 0.36555 0.64708 -0.401991
22.3816 8.88693 21.3788 -0.380028 0.355524 1.53165
22.1104 10.0579 18.7616 -1.04944 0.0120893 -1.89826
25.1844 9.75344 21.4761 -0.627269 -0.730051 -0.771166
24.9133 10.9244 18.8589 -0.0570063 0.0420185 -0.734647
27.2906 7.85465 21.993 1.5723 -0.314834 -0.576326
27.0194 9.0256 19.3758 0.428199 0.240339 1.31624
24.2166 8.15909 19.2784 -0.0908764 -0.39599 -0.990544
30.7901 11.4865 21.6707 -3.43081 0.168072 -1.05707
27.9873 10.62 21.5734 -1.0735 -0.968312 -0.772814
27.7161 11.7909 18.9562 -0.27884 0.751791 1.92574
30.0934 8.72117 22.0903 -1.0997 -1.11983 -0.0503942
29.8223 9.89212 19.4731 -1.2153 1.02548 2.36821
32.8963 9.58769 22.1876 0.828163 -0.855799 1.19843
32.6251 10.7586 19.5704 -0.148089 -0.346574 0.989804
34.8109 11.5413 21.2787 -1.03273 -1.23676 -0.633472
31.9284 7.99333 19.9899 -0.906333 0.925303 -0.13726
7.95837 13.7199 18.6969 -0.0864605 1.05085 -1.18104
6.57684 14.6949 22.4454 -0.122026 -0.904931 0.925003
6.3057 15.8658 19.8282 0.769912 -0.68617 2.06276
11.5467 14.7627 21.9609 0.836796 0.341906 -0.294918
11.2756 15.9336 19.3437 1.79402 -1.97078 -0.0235811
10.5789 13.1683 19.7632 0.760977 -0.522185 -0.0221584
8.92622 15.3142 20.8946 1.2034 -0.199153 1.32591
8.22951 12.5489 21.3141 -0.215137 -1.32551 1.03544
15.5488 13.2361 19.2787 -0.410589 -0.416237 0.518466
13.8961 15.382 20.41 -1.221 0.210614 1.23746
13.1994 12.6167 20.8296 -1.39545 1.74596 0.571264
18.866 15.4498 19.9255 1.77863 -0.968851 0.761611
18.1693 12.6845 20.345 0.699622 -2.23733 1.54519
16.5166 14.8305 21.4764 0.45577 1.21845 -3.11848
16.2455 16.0014 18.8592 -1.13051 1.00627 1.73073
15.8199 12.0651 21.8959 -0.687999 1.24771 1.62977
20.9721 13.551 20.4424 -0.360002 -0.170881 -1.79064
22.8072 12.8232 18.342 -1.14958 -0.690356 0.723807
26.5778 15.2841 20.637 -1.21983 0.661396 -1.18937
23.775 14.4176 20.5397 1.51745 -0.609242 -0.873517
25.8811 12.5188 21.0565 -0.974507 1.90647 0.611031
25.61 13.6897 18.4393 1.30953 -0.138438 -0.317609
28.7636 16.0668 22.3453 -0.576093 0.135202 -1.60443
28.684 13.3853 21.1539 0.0206081 -1.06213 0.851382
28.4128 14.5562 18.5367 2.61143 -1.61501 -1.75448
30.5986 15.3389 20.245 1.21656 -0.141458 0.211901
30.519 12.6574 19.0535 -0.499662 0.0734688 0.934155
32.7843 16.1216 21.9533 -0.412206 -1.12883 0.95967
32.7047 13.4401 20.7619 -0.342128 1.04186 -0.000239886
34.6193 15.3938 19.853 0.69762 1.2844 0.245884
34.5397 12.7123 18.6615 -0.49834 0.0479178 -0.708473
7.97025 20.2256 21.6064 0.504213 -1.305 -1.17896
7.27354 17.4602 22.0259 0.497627 0.504864 -1.09
7.00241 18.6311 19.4087 0.671992 -0.666304 0.583864
4.65303 18.0118 20.9596 -0.985178 -1.21653 0.839474
4.38189 19.1827 18.3424 -0.139096 1.28008 0.271595
9.62293 18.0796 20.475 -2.36761 -1.95083 -1.74098
15.5607 19.7417 22.1882 0.304345 1.25813 0.760168
12.9401 20.2933 21.1218 0.483326 0.926713 0.24144
14.5928 18.1474 19.9905 0.776388 -0.765395 -0.957407
12.2434 17.528 21.5414 1.52046 -0.248333 -0.333079
11.9723 18.6989 18.9242 -0.31496 0.296774 -0.612916
19.5627 18.2152 19.5059 0.284921 1.24067 0.598973
17.2133 17.5958 21.0568 -0.392219 1.69863 -0.0159099
16.9422 18.7667 18.4396 -0.200012 -0.59139 0.406317
20.5306 19.8095 21.7036 0.495562 0.529627 -0.978015
22.6367 17.9107 22.2205 -1.38596 -0.484838 -0.56952
22.3656 19.0817 19.6033 1.01178 -1.46956 -1.66099
19.8339 17.0442 22.1232 0.634994 2.37338 -2.8278
21.6689 16.3164 20.0228 -0.199831 -0.689552 2.719
24.5513 19.8644 21.3116 -1.33117 -0.784372 -0.625255
24.4717 17.1829 20.1201 -0.526463 1.5597 -0.614652
26.6574 17.9656 21.8285 1.22534 0.541949 2.41915
26.3863 19.1365 19.2113 -0.915384 0.475266 0.531979
28.572 19.9192 20.9196 -0.491466 0.0725429 1.75948
28.4924 17.2377 19.7281 -0.594133 -2.12561 -0.738007
30.6782 18.0204 21.4365 -0.214765 -0.123053 3.22961
30.407 19.1914 18.8193 0.192531 1.20853 -1.07204
32.5928 19.974 20.5276 1.5243 -2.42104 -0.022627
32.5132 17.2926 19.3361 0.975108 2.70597 0.434761
34.6989 18.0753 21.0445 0.566148 -1.39572 -0.638421
34.4278 19.2462 18.4273 -1.32275 -0.511036 -1.37883
7.69911 21.3965 18.9892 -1.03393 3.14916 -2.50942
5.34974 20.7771 20.54 -1.03554 0.781146 0.378764
7.13119 22.9699 21.3366 0.688217 1.34724 -1.44393
6.86005 24.1409 18.7193 0.854198 0.682226 -1.92135
4.51067 23.5215 20.2702 1.2224 0.675658 0.51101
10.3196 20.8449 20.0555 -0.954122 -1.12844 -0.752736
9.7517 22.4183 22.4029 -0.428674 -2.05766 -2.34097
9.48056 23.5893 19.7857 0.193465 -1.27284 0.161444
15.2895 20.9127 19.5709 1.30092 0.555146 1.29421
12.669 21.4643 18.5046 -0.395772 -2.4825 -2.462
14.7216 22.4861 21.9183 -0.829799 -1.82191 0.24344
14.4505 23.6571 19.3011 0.381898 0.0728445 -0.011207
12.1011 23.0377 20.852 -0.741825 -0.585835 2.24288
17.91 20.3611 20.6373 0.947904 -0.703106 1.17774
19.4204 23.7248 18.8166 -1.80819 0.404254 -0.190501
17.071 23.1055 20.3675 -1.11838 -0.417463 -1.42156
20.2594 20.9805 19.0864 1.12391 1.06581 0.412938
19.6915 22.5539 21.4338 -2.15589 -0.356205 -0.294612
22.4452 21.7632 20.7947 0.356504 -1.87259 0.259573
21.6061 24.5075 20.5249 1.40746 -1.20809 -2.10374
24.3597 23.7168 19.8859 -0.304836 2.0585 0.199804
24.2802 21.0353 18.6944 0.0380921 0.764986 1.45165
26.5455 24.4995 21.5942 -0.571739 0.498944 1.7268
26.4659 21.818 20.4027 2.24998 1.26511 0.266227
28.6516 22.6007 22.1111 0.248762 0.115629 0.632306
28.3805 23.7716 19.4939 1.93663 -0.446159 -0.810808
30.4866 21.8728 20.0107 -0.0756855 -0.499871 -0.262966
32.6723 22.6555 21.7191 1.18666 1.64864 0.875789
32.4012 23.8265 19.1019 -1.7901 -0.0424655 0.247437
34.7785 20.7567 22.2359 -0.32539 -0.80056 -0.547367
34.5074 21.9277 19.6187 0.40511 -0.0588568 -0.557439
6.29211 25.7143 21.0667 0.623104 -0.0184394 -0.364895
6.02098 26.8852 18.4495 -1.22194 -1.1034 -0.335993
11.262 25.7821 20.5822 0.763311 -0.623518 -0.96655
8.91264 25.1627 22.1331 -0.302453 -0.441751 0.447807
8.6415 26.3337 19.5159 -0.340512 -2.25128 0.877444
10.4229 28.5264 20.3124 0.981459 0.26054 -0.745971
8.07356 27.9071 21.8632 -1.37091 1.96282 0.623096
13.8825 25.2305 21.6485 0.845678 -1.54526 -0.857576
13.6114 26.4014 19.0313 1.72247 -0.176626 -0.668407
15.664 27.4233 22.445 0.989873 0.460681 -1.11599
15.3928 28.5942 19.8278 0.286731 2.33424 -1.92475
13.0435 27.9749 21.3787 1.7735 -0.809606 -1.34051
18.8524 25.2983 21.164 1.54476 1.00573 0.475598
18.5813 26.4692 18.5468 -0.910795 -0.462966 2.00773
16.2319 25.8499 20.0976 0.189729 0.233735 0.717952
18.0134 28.0426 20.8941 -0.379249 -0.574514 1.84095
20.767 27.2519 20.2551 1.46193 -0.279298 0.439588
23.5207 26.4612 19.616 -0.955142 -0.619855 -0.269158
22.9527 28.0346 21.9634 1.07135 -1.76702 -0.393679
23.7918 25.2902 22.2332 1.69608 -0.909581 0.784793
26.2743 25.6704 18.977 0.52834 0.600045 -1.15818
25.7064 27.2439 21.3244 0.5508 1.14186 -0.88309
25.4353 28.4148 18.7072 0.819238 0.488759 0.205364
28.4601 26.4531 20.6853 0.787993 -1.81545 0.295438
30.6458 27.2358 22.3937 -0.962763 1.85308 -1.19616
30.3747 28.4068 19.7765 0.101901 0.0669693 -0.844428
30.5662 24.5543 21.2022 1.74212 -0.543429 0.541613
30.2951 25.7253 18.585 1.19195 -1.3953 -0.028612
32.4808 26.508 20.2933 2.59822 -0.377756 1.10444
34.6665 27.2907 22.0017 -1.20856 0.7399 0.0157739
34.3954 28.4616 19.3845 0.332959 -1.46513 -1.29599
34.5869 24.6092 20.8102 0.173827 0.363052 1.41986
7.80242 29.078 19.246 0.96998 -1.59336 1.99182
9.58388 31.2708 20.0426 -0.625551 -1.03073 0.232785
12.7723 29.1458 18.7615 -0.608036 1.18515 1.89429
14.8249 30.1676 22.1752 2.3444 -1.56422 -0.420682
14.5538 31.3386 19.558 -0.928648 0.438077 0.318977
12.2044 30.7192 21.1089 -0.628308 -0.702903 0.33494
11.9333 31.8902 18.4917 -0.963383 -0.188177 -3.21955
17.1743 30.787 20.6243 -0.514007 0.946489 0.821301
19.36 31.5697 22.3327 -0.962677 1.39598 0.930921
19.0889 32.7406 19.7155 -1.06526 -0.685511 0.145403
19.928 29.9963 19.9853 1.17663 -0.92169 -1.30825
22.6816 29.2055 19.3462 0.924525 -0.917792 2.83243
22.1137 30.779 21.6936 0.163995 0.405535 -0.453311
21.8425 31.9499 19.0764 0.817317 -0.677715 -0.649568
24.8673 29.9882 21.0546 -0.453445 -0.12202 0.599362
24.5962 31.1592 18.4374 1.83351 1.12949 -1.15199
24.0283 32.7326 20.7847 0.991332 -1.34229 0.420428
26.7819 31.9419 20.1457 1.46341 -1.63068 0.363299
27.621 29.1975 20.4155 0.376342 -1.10358 -2.71097
29.8067 29.9802 22.1238 -0.261712 -0.617192 1.38861
29.5356 31.1511 19.5066 1.38072 0.494642 -1.32487
28.9677 32.7246 21.854 1.25411 0.495772 -0.314752
32.5604 29.1895 21.4848 0.980188 0.61352 -0.904038
32.2892 30.3604 18.8676 -0.416324 0.397308 0.215651
31.7213 31.9338 21.215 0.0640262 2.13467 -0.0109268
11.3653 33.4636 20.8391 1.19397 -0.56283 -0.597949
13.9858 32.912 21.9054 0.195975 -0.419586 -1.13865
13.7147 34.083 19.2882 1.28916 0.77084 0.172887
15.4962 36.2757 20.0847 -0.0683327 1.05753 -0.408929
13.1468 35.6564 21.6356 0.105112 0.643407 -0.11967
16.3352 33.5314 20.3545 -2.64034 -0.516866 1.31491
18.5209 34.3141 22.0628 0.46279 0.57631 -1.53164
18.2498 35.485 19.4456 -1.87564 0.643854 -0.681659
17.6819 37.0584 21.793 1.54799 -0.588247 -1.78713
21.2746 33.5233 21.4238 -0.342532 -1.19302 0.141494