ITEM: TIMESTEP
0
ITEM: NUMBER OF ATOMS
976
ITEM: BOX BOUNDS ss ss ss
5.2684177208537912e+00 3.5521582279146237e+01
4.2471691506661218e+00 3.6542830849333875e+01
4.0470634058328026e+00 3.6742936594167212e+01
ITEM: ATOMS x y z vx vy vz
21.4656 10.8752 7.06104 -0.948072 0.778177 0.00399202
19.1928 12.39 7.97424 -0.57184 -3.50379 -2.79606
18.7385 15.0511 6.97093 0.579351 -1.24979 -1.16733
23.2135 13.0266 7.84253 -1.4002 -2.28222 -1.39085
21.0114 13.5363 6.05774 -0.340051 -1.99345 -2.32871
22.7592 15.6877 6.83923 0.262523 -1.19474 0.195617
20.5572 16.1974 5.05444 -0.98618 -0.61835 0.167509
16.4657 16.5658 7.88412 -0.26154 0.344354 -0.620512
16.0114 19.227 6.88082 -0.581254 2.38636 -0.999694
18.2843 17.7122 5.96763 -0.984071 -0.261221 -0.193114
20.0322 19.8636 6.74912 0.56024 1.2604 -0.230931
17.8301 20.3733 4.96433 1.28551 0.587019 -0.198681
20.1029 18.8585 4.05114 -0.888162 1.9074 -1.22246
20.4864 17.2025 7.75242 -0.98133 3.2233 -2.48114
22.305 18.3488 5.83593 1.00925 0.587245 1.79942
24.5071 17.8391 7.62072 0.540325 1.58421 0.0800398
13.7386 20.7417 7.79401 -0.100755 -0.45866 1.91866
13.2844 23.4028 6.79072 -0.0778304 -1.05789 0.332107
15.5572 21.888 5.87753 -0.703431 -0.79159 0.572676
17.7593 21.3784 7.66231 1.20029 1.31044 1.56729
17.3051 24.0395 6.65902 -1.86198 -1.57634 -1.19685
19.5779 22.5247 5.74582 -0.500823 2.72263 0.394095
21.78 22.015 7.53061 0.842929 -0.207665 -0.888191
24.0529 20.5002 6.61742 0.979459 0.314071 1.60472
21.8508 21.0099 4.83263 0.157545 0.131635 -0.85177
23.5987 23.1613 5.61412 -0.99041 -0.416181 -1.76611
25.8007 22.6517 7.39891 -1.12055 -0.71555 0.637592
11.0115 24.9176 7.70391 0.20061 0.411828 -0.447331
15.0322 25.5543 7.57221 -1.49006 0.909175 -0.0911875
19.0529 26.1909 7.44051 -0.4518 -1.4669 -0.577417
21.3258 24.6761 6.52731 -0.192947 -1.21427 -0.473735
23.0737 26.8276 7.3088 -2.05776 -1.18328 -0.324303
25.3465 25.3128 6.39561 -0.31268 -1.801 -0.0749981
27.0944 27.4642 7.1771 2.00789 -0.278722 -1.49899
24.8215 28.979 8.0903 -2.71046 0.193838 -0.22476
15.5555 10.0973 11.8072 1.84988 1.64099 0.105198
17.8283 8.58254 10.894 0.343514 1.32255 0.862798
19.5762 10.734 11.6755 -0.977414 -1.0271 -0.446827
17.3741 11.2436 9.89073 0.142082 -0.410087 0.430959
19.647 9.72885 8.97754 0.145676 0.880022 -0.0411337
21.8491 9.21918 10.7623 -1.06034 -1.80715 -1.25343
23.5969 11.3706 11.5438 1.05936 0.0596391 1.96199
21.3948 11.8803 9.75903 1.5461 -0.879745 -2.55946
23.6677 10.3655 8.84584 -0.122976 -0.55781 0.489232
25.8698 9.85582 10.6306 1.03778 -0.746908 -0.956649
27.6176 12.0073 11.4121 0.986689 0.277688 -0.076219
12.8284 14.2732 11.7171 1.7834 -0.16282 -0.680745
15.1013 12.7584 10.8039 1.28248 0.0965981 -1.8529
14.647 15.4195 9.80062 1.07371 -1.19751 -0.460409
16.8491 14.9099 11.5854 1.9492 -1.19021 0.557179
19.122 13.3951 10.6722 0.0683112 -1.42154 -0.994356
16.9199 13.9047 8.88743 0.639955 -0.16334 1.6534
18.6678 16.0562 9.66892 0.0881366 1.25412 2.13955
20.8698 15.5465 11.4537 1.1846 1.27297 -0.13025
23.1427 14.0317 10.5405 -1.58336 0.738546 2.93899
20.9406 14.5414 8.75573 -2.62226 -0.164667 -1.7256
24.8905 16.1832 11.322 0.35015 0.658247 1.03682
25.4156 12.5169 9.62733 0.170612 -0.303027 -0.486302
27.1634 14.6684 10.4088 -0.17801 -0.0376164 -0.356803
24.9613 15.178 8.62403 0.423237 0.718323 -0.436531
29.3655 14.1587 12.1936 -1.36838 -0.424765 0.902327
10.1013 18.4491 11.627 -2.06645 0.268424 2.03857
12.3742 16.9343 10.7138 -0.262149 0.195671 -0.138604
11.92 19.5954 9.71051 -0.34423 -1.96901 0.0131669
14.122 19.0858 11.4953 0.515043 1.05358 -0.694428
16.3949 17.571 10.5821 2.36068 -0.884527 -0.738545
14.1928 18.0806 8.79731 -0.495952 -3.02359 -0.403885
15.9407 20.2321 9.57881 0.329819 1.47898 0.504501
18.1428 19.7224 11.3636 0.0509021 -1.04342 0.791406
18.2135 18.7173 8.66561 1.0083 -0.244186 -0.0497911
20.4156 18.2076 10.4504 -0.936607 1.94599 0.559778
22.1635 20.359 11.2319 1.33015 -0.0889241 -0.351661
22.6885 16.6928 9.53722 1.61008 -0.113634 -1.56119
22.2342 19.3539 8.53391 -0.0976111 0.283874 -2.10514
26.6384 18.3346 12.1035 1.12286 -1.71024 -0.370023
24.4363 18.8443 10.3187 -1.12337 -0.624874 0.700238
26.7092 17.3295 9.40552 -0.521466 0.6843 -0.233302
26.255 19.9906 8.40221 -1.08044 0.0167283 -1.57998
28.9113 16.8198 11.1903 0.608789 1.21592 -0.869763
30.6591 18.9712 11.9718 0.857176 0.57473 0.238664
28.457 19.4809 10.187 1.44869 0.176731 -0.802755
7.37424 22.625 11.5369 -0.804503 -0.854901 0.267641
9.6471 21.1102 10.6237 1.00807 -2.48455 -3.06414
11.395 23.2617 11.4052 -0.171587 0.0887863 -1.94286
9.19288 23.7713 9.62039 -0.876717 0.798772 -1.11571
11.4657 22.2565 8.7072 -1.78652 -0.703226 0.601519
13.6678 21.7469 10.492 -0.617194 0.373984 -2.14181
15.4157 23.8983 11.2735 0.554121 -0.267386 0.739942
13.2136 24.408 9.48869 -1.8794 1.06502 0.594496
15.4864 22.8932 8.5755 0.28104 -2.64017 -0.0869243
19.8906 21.8738 12.1451 2.62486 -1.58425 -1.79956
17.6885 22.3835 10.3603 1.9329 1.90435 -0.677011
19.9614 20.8687 9.4471 1.37093 -0.560909 -0.535692
19.5072 23.5298 8.4438 1.23139 1.28377 0.507159
23.9113 22.5105 12.0134 -0.338059 0.416261 1.11742
21.7092 23.0202 10.2286 -1.73429 0.724942 -0.0922989
23.9821 21.5054 9.3154 -1.06015 -0.964827 0.502866
23.5279 24.1665 8.3121 0.257158 2.60676 -1.38426
26.1842 20.9957 11.1002 -0.331235 0.688332 0.829185
27.932 23.1471 11.8817 0.859011 1.29133 -0.839527
25.73 23.6568 10.0969 -0.390413 -0.0417283 -0.866668
30.2049 21.6323 10.9685 -1.59273 1.49441 1.76287
28.0028 22.142 9.1837 -1.1022 1.48956 -0.433518
29.7507 24.2934 9.96519 0.898334 0.808948 1.48807
31.9528 23.7838 11.75 -0.113129 -1.05434 0.714853
10.9407 25.9228 10.4019 0.778625 -0.616318 -0.935061
12.6886 28.0742 11.1834 -0.0612202 -0.72206 0.369314
12.7594 27.0691 8.4854 0.83441 -0.660106 -0.625379
13.1428 25.4131 12.1867 -1.66327 -0.659319 1.15064
14.9614 26.5594 10.2702 1.79241 -0.787575 -1.29312
17.1635 26.0497 12.055 2.51724 0.326859 -0.0629041
19.4364 24.5349 11.1418 -0.620861 -0.790171 -0.0190065
17.2343 25.0446 9.35699 -0.123562 -0.748676 0.0491715
18.9822 27.196 10.1385 2.3663 -1.52814 -0.355619
16.7801 27.7057 8.3537 -0.435598 -0.0930705 0.625516
21.1842 26.6864 11.9233 -0.697287 -0.767377 0.479459
23.4571 25.1716 11.0101 -0.117358 1.3472 -0.14414
21.255 25.6813 9.22529 -0.846005 -0.17426 0.515689
23.0029 27.8327 10.0068 0.697323 0.923797 0.358456
20.8008 28.3424 8.222 0.0347619 -0.747972 0.0674517
25.205 27.323 11.7916 -2.23835 -0.321229 1.27531
27.4778 25.8082 10.8784 0.0662119 -0.980503 1.6127
25.2757 26.3179 9.09359 -0.0984256 -1.78861 -0.752775
27.5486 24.8031 8.1804 0.865553 -0.126785 -1.17369
29.2257 27.9597 11.6599 -1.15322 0.326562 1.50428
31.4985 26.4449 10.7467 2.27711 -0.137403 0.0818521
29.2964 26.9545 8.96189 -0.555354 0.457148 -0.47447
14.4364 30.2256 11.9649 -0.134807 -1.36173 0.615506
14.5072 29.2205 9.26689 -2.00983 0.142372 -0.425678
16.2551 31.3719 10.0484 -0.618252 -0.733824 0.486419
16.7093 28.7108 11.0517 -0.612817 1.22272 1.96459
18.4572 30.8623 11.8332 -0.578996 0.369583 0.800488
18.5279 29.8571 9.13519 1.83408 1.17297 -1.10976
20.2758 32.0086 9.91668 -0.687557 1.53195 0.843848
20.73 29.3475 10.92 -0.93166 0.489714 0.403534
22.4779 31.4989 11.7015 -1.16197 -0.227861 -0.0120262
22.5487 30.4938 9.00349 0.37741 -1.0526 -2.67064
24.7507 29.9841 10.7883 -2.64349 -0.451453 1.41725
27.0236 28.4693 9.87508 -0.948467 1.46955 1.01879
18.0029 33.5234 10.8299 -0.642334 -0.401842 1.62902
11.9182 7.80471 15.6402 0.331059 0.781783 -1.09949
14.1911 6.28992 14.727 0.349383 -1.30191 0.732191
16.0097 7.43623 12.8105 -0.367259 0.691616 -1.49248
18.2118 6.92656 14.5953 0.761571 -0.856169 1.00353
20.0304 8.07287 12.6788 -0.740866 -1.79024 0.218303
22.2325 7.5632 14.4636 -1.0903 -0.202872 2.14238
26.2532 8.19984 14.3319 -0.584271 0.0859789 0.498652
24.4346 7.05353 16.2484 0.913693 0.385896 -0.320977
28.4553 7.69018 16.1167 0.88933 -0.33539 1.71624
9.19114 11.9806 15.5501 -0.665748 0.399548 0.0478005
11.464 10.4658 14.6369 -0.82206 0.605548 -1.34665
15.9389 8.44135 15.5085 0.16088 -0.160481 -0.371052
13.7369 8.95102 13.7237 -0.946205 0.355794 -0.559692
15.4847 11.1025 14.5052 0.64603 -1.08654 1.12069
13.2826 11.6121 12.7204 -1.67252 1.74374 0.493583
17.6868 10.5928 16.29 -0.755167 -0.136692 1.78481
19.9596 9.078 15.3768 -1.46009 0.968012 1.44999
17.7576 9.58766 13.592 3.17147 -0.687885 0.361472
19.5054 11.7391 14.3735 0.546737 0.957174 0.228272
17.3033 12.2488 12.5887 -1.46429 0.389745 -1.15442
21.7075 11.2294 16.1583 -0.463893 1.5002 -0.517286
23.9804 9.71464 15.2451 -0.121481 1.46881 1.11835
21.7783 10.2243 13.4603 0.452075 0.119929 -0.0182174
24.0511 8.70951 12.5471 -2.05353 0.946147 0.556764
25.7282 11.8661 16.0266 0.760184 -0.428632 1.80102
25.799 10.8609 13.3286 0.261853 0.296128 0.728356
28.0011 10.3513 15.1134 -0.856645 0.265077 0.549346
30.2739 8.83649 14.2002 1.24083 -0.0153296 -0.010095
28.0719 9.34616 12.4154 -0.253111 0.331847 -0.498547
29.8197 11.4976 13.1969 0.313838 0.586042 0.0215303
32.0218 10.9879 14.9817 -0.322244 0.282335 -0.00670117
6.46406 16.1565 15.46 1.59981 2.0787 1.14286
8.73691 14.6417 14.5468 -0.518316 0.465095 1.65564
11.0098 13.1269 13.6336 -1.27954 1.77125 -0.155054
12.7576 15.2784 14.4151 -1.7413 0.359194 0.480489
10.5555 15.788 12.6303 -0.691188 -0.590389 2.22804
13.2119 12.6173 15.4184 -0.647226 -0.248982 0.838701
14.9597 14.7687 16.1999 -0.0648118 -1.34596 1.37875
15.0305 13.7636 13.5019 0.853585 -0.431414 -0.913759
17.2326 13.2539 15.2867 1.37601 -1.024 -0.726002
18.9804 15.4053 16.0682 -0.355299 1.71761 -0.0395323
16.7783 15.915 14.2834 4.56314 -0.968841 0.514586
19.0512 14.4002 13.3702 1.60019 -1.69354 1.47314
21.2533 13.8905 15.155 -0.353989 -2.44392 -2.4604
23.0011 16.042 15.9365 -0.454825 -0.797223 -0.446287
23.5261 12.3757 14.2418 0.433397 -0.488863 -1.16206
21.3241 12.8854 12.457 -0.0326434 2.10294 1.26267
23.0719 15.0368 13.2385 1.10473 -1.89139 -1.28165
25.274 14.5272 15.0233 1.94016 1.14303 1.71949
27.5469 13.0124 14.1101 0.779838 -0.777988 -0.611661
25.3448 13.5221 12.3253 1.51377 0.715603 0.0563072
27.0926 15.6735 13.1068 0.740103 -2.174 1.53513
29.7489 12.5027 15.8949 -0.744241 -2.05465 -0.240222
29.2947 15.1638 14.8916 -0.887607 1.01356 1.81079
31.5676 13.649 13.9784 1.10161 -1.11547 -0.0535942
31.1133 16.3101 12.9751 -0.35449 -2.20935 1.08476
33.7696 13.1394 15.7632 1.46271 -1.12641 -2.08341
33.3154 15.8005 14.7599 -0.330814 -0.48805 1.89769
8.21191 18.3079 16.2415 1.73287 -0.953606 0.736193
6.00983 18.8176 14.4567 0.703911 -0.0579821 0.914435
8.28269 17.3028 13.5435 0.624867 -1.61849 0.564902
7.82847 19.9639 12.5402 1.96484 -0.490669 -1.1185
10.4848 16.7931 15.3283 0.562854 0.57914 -1.21482
12.2326 18.9446 16.1098 2.82179 -0.86136 1.38316
10.0305 19.4542 14.325 -0.931102 -1.13873 -0.759723
12.3034 17.9395 13.4118 -0.288162 0.628428 0.0814792
14.5055 17.4298 15.1966 0.208194 0.790499 -0.848644
16.2533 19.5812 15.9781 1.05862 1.62168 0.386785
14.0513 20.0909 14.1933 -2.15362 0.221358 -0.573142
14.5763 16.4247 12.4986 -0.286861 0.465217 -0.54341
16.3241 18.5761 13.2801 -0.125179 3.56033 -0.557759
18.5262 18.0664 15.0649 1.7386 0.395899 2.11513
20.2741 20.2179 15.8464 1.25604 0.497749 0.903103
18.597 17.0613 12.3669 -0.818649 -0.0797379 1.21633
20.3448 19.2127 13.1484 -1.20512 0.281013 0.390413
20.7991 16.5516 14.1517 1.96882 -0.118435 -0.448365
22.5469 18.7031 14.9332 -0.0561687 0.802245 1.22553
22.6177 17.6979 12.2352 -1.47198 0.508995 2.03472
27.0219 16.6786 15.8048 1.55214 -0.474144 -1.98183
24.8198 17.1883 14.02 -0.329951 -0.121433 -1.81434
26.5676 19.3397 14.8015 0.983734 0.830739 0.251776
24.3655 19.8494 13.0167 1.29459 -0.414612 1.37841
31.0426 17.3153 15.6731 -0.524329 0.631017 2.10423
28.8405 17.8249 13.8883 0.541899 0.00316 0.374491
30.5883 19.9764 14.6698 -0.391285 -2.19775 -0.780132
35.0633 17.9519 15.5414 -0.591493 -0.146196 0.736202
32.8612 18.4616 13.7566 0.486666 1.30879 -3.09277
5.48483 22.4838 16.1514 0.765105 1.05278 0.034414
7.75769 20.969 15.2382 0.789056 -0.792771 -0.988968
5.55561 21.4787 13.4534 -0.856609 0.199741 -1.79457
7.30346 23.6301 14.2349 0.0784638 -1.83792 -0.940903
9.50554 23.1205 16.0197 -1.14264 0.964343 1.9176
11.7784 21.6057 15.1065 0.885156 1.25207 1.32118
9.57632 22.1153 13.3217 -1.17049 -0.0914141 -0.345218
11.3242 24.2668 14.1032 -0.803522 0.582896 1.26963
11.8492 20.6006 12.4085 -0.361289 0.989458 -1.4673
13.5263 23.7571 15.888 -0.439686 -1.02376 -0.0575631
15.7991 22.2423 14.9748 -0.0111337 0.751469 -1.51187
13.597 22.752 13.19 -0.462342 -0.629827 1.9478
15.8699 21.2372 12.2768 -0.550234 0.13814 -1.66235
17.547 24.3938 15.7563 -1.03861 -1.30004 0.187504
18.072 20.7275 14.0616 0.267769 0.618796 -0.125055
19.8198 22.879 14.8431 0.932672 0.928215 -0.219324
17.6178 23.3886 13.0583 -0.588719 -2.11298 -0.776256
22.0927 21.3642 13.9299 -0.261649 -0.17156 -0.18285
23.8405 23.5156 14.7114 0.511374 -1.51221 -1.17975
21.6385 24.0253 12.9266 0.813652 -0.0221282 0.155469
24.2948 20.8545 15.7147 1.52855 -0.572076 -0.890811
26.1134 22.0008 13.7982 -0.819842 -0.265135 0.910066
27.8613 24.1522 14.5797 1.18811 -0.859186 -1.24352
28.3155 21.4911 15.583 -1.25295 2.64594 0.982947
28.3863 20.486 12.885 0.955412 -0.847041 2.879
30.1341 22.6375 13.6665 -0.410607 -1.31051 0.0643257
32.3362 22.1278 15.4513 1.89815 0.119425 0.210773
34.0841 24.2792 16.2328 0.119901 -2.55887 1.42002
34.6091 20.613 14.5381 -1.12222 1.10913 1.78157
32.407 21.1227 12.7533 0.618743 1.73378 -0.0537292
34.1548 23.2741 13.5348 0.398162 -0.717936 0.0621499
9.05132 25.7816 15.0164 -0.927686 0.337442 -0.018004
10.7992 27.933 15.7979 2.15289 1.05288 1.4609
9.1221 24.7765 12.3184 0.98881 -2.96414 0.584375
10.87 26.9279 13.0999 -0.766755 0.348355 2.02718
13.072 26.4182 14.8847 0.248106 0.0965043 0.606807
15.3449 24.9034 13.9715 -0.489526 0.0707788 1.73009
14.8907 27.5645 12.9682 -0.698856 1.25797 1.6297
17.0927 27.0549 14.753 1.08532 -0.820468 0.104484
19.3656 25.5401 13.8398 -0.269676 -1.3463 -0.69248
18.9114 28.2012 12.8365 2.26587 -2.34025 -1.36477
21.5677 25.0304 15.6246 1.31202 0.368642 -0.842653
21.1135 27.6915 14.6213 -0.616071 -2.4994 -1.58808
23.3863 26.1767 13.7081 -0.861194 0.0271129 0.0467766
25.5884 25.667 15.4929 1.05628 0.985068 -0.769698
27.3363 27.8185 16.2744 -0.524606 1.00332 0.912802
25.1342 28.3281 14.4896 -0.5067 1.63907 -0.654204
25.6592 24.6619 12.7949 -2.37535 -2.91983 0.362048
27.407 26.8134 13.5764 0.590614 -0.778413 0.207946
29.6091 26.3037 15.3612 0.794638 0.374974 -0.00336859
31.357 28.4551 16.1427 -0.329226 -1.11481 -0.372439
29.6799 25.2986 12.6632 1.60339 0.620602 -0.276665
31.4277 27.45 13.4447 0.753096 -1.07153 1.41446
31.882 24.7889 14.448 0.46217 -0.725705 -0.385018
33.6298 26.9403 15.2295 -0.200738 0.470608 -2.03657
33.7006 25.9352 12.5315 -3.21594 -1.1571 0.324895
12.6178 29.0793 13.8814 0.862194 -0.00183077 0.474835
14.8199 28.5697 15.6662 1.91787 -0.453252 -0.819812
14.3657 31.2308 14.6629 -1.20637 -0.467672 -1.2162
16.1843 32.3771 12.7464 -0.522062 -1.96937 -0.648514
18.8406 29.2063 15.5345 -0.835073 -2.16061 0.244083
16.6385 29.716 13.7497 -0.441485 -0.395466 0.535349
18.3864 31.8674 14.5311 -0.197364 0.917739 -0.684931
22.8613 29.8429 15.4028 0.245575 1.68976 -0.0749992
20.6592 30.3526 13.618 -1.2497 0.24946 1.28331
22.4071 32.504 14.3994 1.05905 0.794377 -1.40454
22.9321 28.8378 12.7048 1.97219 -1.41789 -1.44941
24.6092 31.9944 16.1842 -1.34342 0.988559 0.912421
26.882 30.4796 15.2711 -0.103856 0.245431 -1.01653
24.68 30.9892 13.4863 1.49884 -0.192905 -0.261415
26.9528 29.4745 12.5731 0.320124 0.66771 0.992028
29.1549 28.9648 14.3579 -0.993819 -0.937023 0.541175
16.1135 33.3822 15.4443 0.448691 -0.224294 1.57791
17.8614 35.5336 16.2258 0.0331553 0.935422 -1.54203
20.1342 34.0188 15.3126 -0.29214 0.124699 2.08352
17.9322 34.5285 13.5278 0.119234 0.0466471 0.455849
20.205 33.0137 12.6147 -1.89501 -2.31366 1.80967
14.1203 7.29504 17.425 -0.240042 0.516329 -1.27173
16.3932 5.78025 16.5118 -1.11507 -1.6908 -1.22997
16.3224 6.78537 19.2098 1.34862 -0.233696 -0.872626
18.141 7.93169 17.2933 -0.690821 0.574008 0.188103
18.5952 5.27058 18.2966 1.55161 -1.63253 0.308784
20.3431 7.42202 19.0781 0.361337 -1.62383 -0.83512
20.4139 6.41689 16.3801 0.84227 -0.730281 -1.79829
22.616 5.90722 18.1649 1.77049 -1.10824 -0.78758
20.7973 4.76092 20.0814 -0.760176 -1.66231 -0.973541
24.3638 8.05866 18.9464 1.05478 0.629737 -0.957502
26.6367 6.54387 18.0332 -0.361226 0.95711 -1.66812
24.818 5.39756 19.9497 -0.901981 0.0179594 1.19362
7.3725 10.8343 17.4666 -2.09943 -0.402022 -0.369985
7.30173 11.8394 20.1646 0.747071 -0.00960826 1.57803
9.64536 9.3195 16.5534 1.19369 1.58137 -1.86481
11.3932 11.4709 17.3349 -0.401781 0.299398 2.0678
9.57458 10.3246 19.2514 2.33873 -1.32975 0.99787
11.8474 8.80984 18.3382 -0.0105724 0.0166794 -0.854216
13.6661 9.95615 16.4217 -1.10825 0.5503 0.526897
15.4139 12.1076 17.2032 -1.11399 -0.576714 -1.20955
13.5953 10.9613 19.1197 -2.43759 1.79837 -1.23663
15.8682 9.44648 18.2065 -1.76748 1.04672 0.873011
14.0495 8.30017 20.123 1.0617 -0.460058 -0.288147
17.616 11.5979 18.988 0.1485 0.533151 0.1269
19.8889 10.0831 18.0748 -0.335908 -0.400397 0.918732
18.0702 8.93681 19.9913 -0.73264 -1.65606 0.538064
21.6367 12.2346 18.8563 -0.23467 -0.990338 0.564956
22.1617 8.56833 17.1616 0.924152 0.823269 1.00589
23.9096 10.7198 17.9431 -1.35004 1.78476 0.546803
22.091 9.57345 19.8596 -0.722261 0.616161 -0.672136
26.1824 9.20497 17.0299 1.85181 -1.91716 -0.0307908
27.9303 11.3564 17.8114 1.08198 -1.07796 -1.91566
26.1117 10.2101 19.7279 -0.364071 0.426031 0.182203
30.2032 9.84161 16.8982 -2.31223 -1.87998 -1.72257
28.3845 8.6953 18.8147 -1.584 -0.708847 1.88749
30.1324 10.8467 19.5962 -0.242865 -0.291176 -0.142114
31.951 11.993 17.6797 -0.491714 1.48999 2.64819
6.8475 14.5005 19.1613 0.0556172 -0.524148 0.481348
6.91828 13.4954 16.4633 -1.07836 -0.13927 0.599838
8.66614 15.6468 17.2448 -2.04045 1.40666 -0.229094
9.12036 12.9857 18.2481 -1.77167 0.372287 -0.247253
10.8682 15.1372 19.0296 -1.67417 -1.18963 1.20319
10.939 14.132 16.3316 1.40871 1.98328 -0.445435
12.6869 16.2835 17.1131 0.0172066 -1.67292 -0.26312
11.3224 12.4761 20.0329 -1.91163 0.633632 0.156369
13.1411 13.6224 18.1164 -0.224861 -0.831477 -0.242895
14.8889 15.7738 18.8979 0.0523533 0.894091 -0.845184
15.3432 13.1127 19.9012 -0.0369813 -0.764853 -1.45615
17.1618 14.259 17.9847 0.656626 0.204051 1.81597
19.4346 12.7442 17.0715 0.351089 -0.557768 -0.146564
19.3639 13.7493 19.7695 -0.249476 1.29812 -0.883756
21.1825 14.8957 17.853 0.32199 0.919067 1.34347
23.4554 13.3809 16.9398 0.735701 0.265005 -1.25669
23.3846 14.386 19.6378 -0.103837 1.34747 0.431251
25.2032 15.5323 17.7213 -0.254991 -0.617451 -1.3722
27.4761 14.0175 16.8081 0.999363 0.180769 1.01991
25.6574 12.8712 18.7246 -0.13253 0.00234517 -0.69422
27.4053 15.0226 19.5061 0.0843459 0.440766 1.13117
29.2239 16.1689 17.5896 3.63023 -0.618691 0.496371
31.4968 14.6541 16.6764 1.09898 1.07908 -0.0610528
29.6782 13.5078 18.5929 -2.38153 1.13579 -1.87872
31.426 15.6593 19.3744 -0.542164 -1.37771 1.89511
35.5175 15.2908 16.5447 -0.899878 0.137496 1.43939
33.6989 14.1445 18.4612 1.59091 -1.15731 -0.597109
35.4467 16.2959 19.2427 -1.07907 1.94054 -0.362403
31.8802 12.9982 20.3777 -0.891598 -0.128358 -0.667814
8.59536 16.652 19.9428 2.15251 -0.343298 0.533616
6.39328 17.1616 18.158 -0.947552 -0.370168 0.846809
8.14113 19.3131 18.9395 -0.274319 -1.57375 0.367598
5.93905 19.8227 17.1547 -0.677487 -2.27675 -0.289693
12.6161 17.2886 19.8111 1.20907 -0.416418 0.349096
10.414 17.7983 18.0263 0.903525 -0.167072 0.210499
12.1618 19.9497 18.8078 0.00487173 -1.26085 -0.711419
14.4347 18.4349 17.8946 2.26583 -1.2527 2.29898
16.6368 17.9252 19.6794 -0.678688 -0.054467 -1.77846
18.9096 16.4105 18.7662 0.520984 0.605124 1.60355
16.7076 16.9201 16.9814 -0.764697 -1.28505 -1.11277
18.4554 19.0716 17.7629 1.79011 -0.960651 0.739467
20.6575 18.5619 19.5477 -0.107157 -0.550354 -0.593611
22.9304 17.0471 18.6345 0.334617 -0.145009 0.92614
20.7283 17.5568 16.8497 -0.183248 -0.562747 0.401752
22.4761 19.7082 17.6312 -1.55637 0.124192 -0.942301
24.6782 19.1985 19.416 1.05325 -0.0950402 0.265727
26.9511 17.6837 18.5028 -0.312338 0.0302325 0.938872
24.749 18.1934 16.718 -0.335238 -2.53591 1.31069
26.4968 20.3448 17.4995 -0.112451 -0.464688 1.26799
28.6989 19.8352 19.2843 -1.11121 -0.366905 -1.38065
30.9718 18.3204 18.3711 0.440895 0.794362 0.526395
28.7697 18.83 16.5863 0.198189 0.439349 -0.624477
29.1532 17.1741 20.2876 -0.11572 -0.504911 -1.82971
33.2446 16.8056 17.4579 0.135336 -0.678356 1.47566
34.9925 18.957 18.2394 0.789179 0.79947 1.24785
32.7904 19.4667 16.4546 -0.133336 -1.2073 -2.0038
33.1739 17.8107 20.1559 -0.77331 1.661 1.19203
5.86828 20.8279 19.8527 0.560102 -0.723155 0.811111
5.41405 23.489 18.8493 -1.06638 0.676614 -0.916709
7.68691 21.9742 17.9362 1.47078 -0.32294 0.418648
9.88899 21.4645 19.7209 -0.00778492 -1.69502 -0.233946
9.43477 24.1256 18.7176 0.723292 -0.178795 0.997665
9.95977 20.4594 17.023 -0.94242 -0.650678 -0.300729
11.7076 22.6108 17.8045 -2.27484 -2.08812 1.2372
13.9097 22.1011 19.5892 0.639866 0.6213 -1.50175
15.6576 24.2526 20.3707 -0.915791 -1.3084 1.63938
16.1826 20.5863 18.6761 1.59424 -1.62588 0.988194
13.9805 21.096 16.8913 -1.26443 0.435209 -0.154675
15.7283 23.2475 17.6728 -2.63126 -0.559414 0.45336
17.9304 22.7378 19.4575 -0.212601 -0.692647 2.70469
20.2033 21.223 18.5444 -2.81477 0.675344 -1.616
18.0012 21.7327 16.7596 1.37521 -0.148715 -0.174178
19.7491 23.8841 17.5411 2.6355 -0.374417 0.502986
22.4054 20.7133 20.3291 -1.60973 0.117722 -0.957646
21.9511 23.3744 19.3258 1.11896 -0.409328 0.839633
22.0219 22.3693 16.6279 -1.71874 -0.482921 0.239565
26.4261 21.35 20.1974 0.306568 1.2932 0.797567
24.224 21.8596 18.4127 1.23853 2.46418 -0.561238
25.9718 24.0111 19.1941 -1.42764 -0.0391222 -3.11705
26.0426 23.0059 16.4962 2.0422 -1.49724 -1.63777
30.4468 21.9866 20.0657 0.718827 -0.581926 2.44848
28.2447 22.4963 18.281 -0.0215582 -0.839726 1.55542
30.5176 20.9815 17.3678 1.46762 0.181866 -1.12054
30.0633 23.6426 16.3645 0.874796 0.383825 -1.73039
32.7196 20.4718 19.1526 1.5578 1.07333 0.535522
34.4675 22.6232 19.934 -0.921548 -0.384579 2.08824
32.2654 23.1329 18.1493 -1.46223 0.323684 -1.1008
34.5383 21.6181 17.2361 -0.658814 2.34426 -0.425476
7.16191 25.6404 19.6308 0.151287 -0.941573 -0.291008
7.23269 24.6353 16.9329 -1.60125 0.407717 0.573924
8.98054 26.7867 17.7144 -0.584671 -1.20867 -0.808434
11.1826 26.277 19.4991 0.119511 -0.985376 0.728593
11.2534 25.2719 16.8012 0.403537 -0.0928615 1.3256
12.9305 28.4285 20.2806 -1.3279 -1.3316 -0.451311
13.4555 24.7622 18.5859 0.440286 0.0655984 0.123521
15.2033 26.9137 19.3674 -0.613164 -2.07885 -1.54568
13.0013 27.4233 17.5826 -0.717403 -0.249563 1.57672
15.2741 25.9086 16.6695 0.255307 -0.255269 1.56385
19.6783 24.8892 20.239 1.12988 0.408738 -0.980133
17.4762 25.3989 18.4542 0.100458 2.75237 -0.2812
19.2241 27.5503 19.2357 0.0924541 0.923404 0.814599
17.022 28.06 17.4509 1.48623 0.000952738 3.62174
19.2948 26.5452 16.5378 -0.32008 2.61758 -0.241959
23.699 25.5259 20.1073 0.661828 2.04376 -1.76631
21.4969 26.0355 18.3225 0.962439 0.281712 -2.01175
23.2448 28.187 19.104 1.19833 0.556644 2.43115
23.7698 24.5207 17.4094 -1.23402 0.688628 -1.20195
23.3155 27.1818 16.4061 -0.312672 -0.154005 -0.85124
27.7197 26.1625 19.9756 1.34211 0.111338 1.91397
25.5176 26.6722 18.1908 -0.916491 -1.37387 1.11575
27.7905 25.1574 17.2776 0.68881 0.0172093 1.92225
29.9926 24.6477 19.0624 0.52542 0.315093 -0.669663
29.5383 27.3088 18.0591 -0.0307864 -0.320425 -0.521012
31.7404 26.7991 19.8439 0.399097 0.880412 0.784732
34.0133 25.2844 18.9307 1.16222 0.912529 -0.221461
31.8112 25.794 17.1459 -0.305759 2.4903 1.06182
33.5591 27.9455 17.9274 0.852866 -1.16898 -0.733416
10.7284 28.9381 18.4958 0.538406 -0.48875 1.42022
12.4763 31.0896 19.2773 0.148979 2.14738 -0.814589
12.547 30.0844 16.5793 0.764042 -1.84185 0.293388
14.7491 29.5748 18.3641 2.41394 1.6855 1.32266
16.497 31.7262 19.1456 -3.31138 -1.07196 0.479613
14.2949 32.2359 17.3608 1.14624 0.467165 0.469729
16.5677 30.7211 16.4476 0.935012 0.440203 -0.965999
16.9512 29.0651 20.1489 -1.31557 1.06278 -1.13261
18.7698 30.2114 18.2324 1.67764 -0.68265 2.40365
20.9719 29.7018 20.0172 0.449708 0.474147 -2.45886
20.5177 32.3629 19.0139 0.209592 0.142989 -1.00478
21.0427 28.6966 17.3192 -1.01304 -1.92923 -0.250233
22.7905 30.8481 18.1007 0.0349483 -2.14588 -0.291285
20.5885 31.3577 16.3159 -0.176851 2.41399 -1.07624
24.9926 30.3384 19.8855 -0.96575 0.502673 0.55986
27.2655 28.8236 18.9723 -0.68149 0.0278439 0.44728
25.0634 29.3333 17.1875 0.974436 0.499047 -1.03366
26.8113 31.4847 17.969 0.249908 2.38798 -1.82505
29.0133 30.975 19.7538 0.10509 0.189439 0.857053
31.2862 29.4602 18.8406 0.0740962 -0.44266 -0.756768
29.0841 29.9699 17.0558 -0.685271 0.805649 0.766909
14.2241 33.241 20.0588 1.16956 0.688085 0.33149
16.0427 34.3873 18.1423 -0.4596 2.84146 0.792783
18.2448 33.8776 19.9271 1.58578 1.67742 -1.50914
17.7906 36.5388 18.9238 -1.74478 1.14663 1.56188
18.3156 32.8725 17.2291 0.282184 0.529021 -0.722492
20.0635 35.024 18.0106 0.175249 0.638184 -2.55143
22.2655 34.5143 19.7954 -1.72313 0.284495 -1.43118
22.3363 33.5092 17.0974 0.840998 0.311818 0.402716
24.5384 32.9995 18.8822 0.802718 -1.51464 -0.762915
16.2516 7.7905 21.9078 -0.10804 1.991 1.89418
18.5245 6.27571 20.9946 -2.01958 -1.71623 0.417027
18.4537 7.28083 23.6926 0.00249461 1.39584 1.2151
22.5452 6.91235 20.8629 -0.162769 -0.835779 -1.40832
20.7265 5.76604 22.7794 -0.138454 0.448009 -0.472615
22.4744 7.91748 23.5609 1.61635 -0.587488 -1.77555
22.9994 4.25125 21.8662 0.743897 -1.44582 1.09168
26.5659 7.54899 20.7312 1.62808 0.891725 -1.71022
24.7473 6.40268 22.6477 -1.0513 -0.573389 -0.231252
9.50381 11.3298 21.9494 -0.880024 -0.310491 0.775729
11.7767 9.81496 21.0362 0.259051 -0.455107 -1.15484
11.7059 10.8201 23.7342 0.127638 -0.159081 -1.73634
13.5245 11.9664 21.8177 1.33332 0.749759 0.176981
15.7974 10.4516 20.9045 0.153356 -1.14688 1.7457
13.9787 9.3053 22.821 -0.675967 -0.491643 0.196051
15.7266 11.4567 23.6025 0.436416 0.145953 0.973718
19.8181 11.0882 20.7728 -1.03664 1.07953 -0.735755
17.9995 9.94194 22.6893 -1.18072 0.702793 0.711674
19.7473 12.0934 23.4708 -0.357257 0.235966 -3.64397
20.2723 8.42714 21.7761 -0.973633 0.177314 -1.14329
20.2015 9.43227 24.4741 -0.0209842 -1.71145 -0.614362
23.8388 11.7249 20.6411 -0.547137 -2.08644 -0.780924
22.0202 10.5786 22.5576 -0.625235 1.67711 -1.85797
24.293 9.06379 21.6444 0.49202 1.91023 -1.70469
26.0409 11.2152 22.4259 0.616234 -2.00681 -0.346028
24.2223 10.0689 24.3424 -0.886393 -0.708183 0.158516
26.4951 8.55412 23.4292 1.78283 1.41152 -0.0206135
28.3137 9.70043 21.5127 -0.567153 2.662 -0.385881
30.0616 11.8519 22.2942 -0.37291 -0.719212 -0.209902
28.243 10.7056 24.2107 -2.26316 0.243823 0.368038
6.77672 15.5056 21.8593 0.37257 2.46084 -1.24511
9.04958 13.9909 20.9461 1.24071 -0.198948 0.097146
7.23095 12.8445 22.8626 0.678489 -1.87643 -2.1282
8.97881 14.996 23.6441 -0.278978 -0.496206 0.439042
10.7974 16.1423 21.7276 0.739365 0.664325 1.70026
11.2517 13.4812 22.7309 0.536623 1.01992 1.07522
13.0703 14.6275 20.8144 -0.384036 -0.144122 -0.495208
12.9995 15.6326 23.5124 -0.638966 1.36723 -0.170405
15.2724 14.1178 22.5992 -0.0752376 0.705637 -1.98426
17.091 15.2641 20.6827 -0.860754 1.19201 -0.807293
17.0202 16.2693 23.3806 -0.183461 0.407261 0.17079
17.5452 12.603 21.686 0.512996 0.561651 -1.52941
19.2931 14.7545 22.4675 -1.84906 0.642093 -0.659786
17.4745 13.6082 24.3839 0.286997 -0.331989 -1.83827
21.1117 15.9008 20.551 0.459376 0.303794 -0.756123
21.5659 13.2397 21.5543 -0.00492262 0.372393 -1.06045
23.3138 15.3911 22.3358 1.02146 -1.33685 0.432417
21.4952 14.2448 24.2522 -0.142156 -0.783882 1.00141
23.768 12.73 23.3391 1.36157 -0.0995684 -0.573371
25.5867 13.8763 21.4226 0.216457 -0.678722 -0.236571
27.3345 16.0278 22.2041 -0.233696 -0.600813 1.39053
27.8595 12.3615 20.5094 1.23657 0.177202 1.33108
25.5159 14.8814 24.1205 2.53634 0.445822 0.706893
27.7887 13.3667 23.2074 -2.36432 0.23539 -0.634476
29.6074 14.513 21.2909 -0.0055226 2.4108 1.20509
29.5366 15.5181 23.9888 -0.218921 2.80666 1.05438
33.6281 15.1496 21.1592 1.21632 1.69962 0.864393
31.8095 14.0033 23.0756 -0.933224 -1.06825 0.319231
33.5573 16.1547 23.8571 0.177423 0.564891 0.385882
6.3225 18.1668 20.856 -1.36944 -0.387445 0.508573
8.07036 20.3182 21.6374 0.870593 -0.261889 -0.105364
6.25172 19.1719 23.5539 1.06595 -0.901093 -0.667058
8.52458 17.6571 22.6407 -0.229002 0.617369 -1.78906
10.3432 18.8034 20.7243 0.936105 0.482188 -0.90663
10.2724 19.8085 23.4222 -0.561433 2.26871 0.746174
12.5453 18.2937 22.509 -0.739556 1.0441 -2.10023
10.7267 17.1474 24.4255 -0.337509 -2.29542 0.887746
14.3639 19.44 20.5926 -1.15051 0.360873 0.540908
14.8182 16.7789 21.5959 -1.06725 -1.00438 -0.863197
16.566 18.9304 22.3773 -0.291916 0.730888 1.85754
14.7474 17.7841 24.2938 0.590421 1.01939 0.256151
18.3846 20.0767 20.4609 1.6126 0.0888916 -0.835113
18.8389 17.4156 21.4642 -0.0936004 1.02685 0.896506
18.7681 18.4207 24.1621 -0.290673 0.892595 -0.353267
20.5867 19.567 22.2456 -1.1224 -2.13822 -0.357224
22.8596 18.0522 21.3325 -2.27493 2.11437 0.59487
21.0409 16.9059 23.2489 1.45049 0.120933 2.24146
22.7888 19.0573 24.0304 -1.03088 -0.628381 -1.78507
24.6074 20.2037 22.1139 -0.0233291 -2.00737 0.195556
25.1324 16.5374 20.4193 -0.15267 -2.33557 1.48285
26.8803 18.6889 21.2008 1.01808 -2.04079 -0.265148
25.0617 17.5425 23.1172 0.755022 -0.342017 0.039928
26.8095 19.694 23.8987 0.0376341 -1.3655 0.363945
30.901 19.3255 21.0691 -0.779741 1.11218 0.120315
29.0824 18.1792 22.9855 1.39057 0.525353 -1.3082
30.8302 20.3306 23.767 -1.9666 0.00260872 -0.706254
31.3552 16.6644 22.0724 -0.37091 -0.552549 0.197313
34.9217 19.9621 20.9373 -0.659526 -0.116856 -0.138892
33.1031 18.8158 22.8538 -0.225481 -0.300172 0.343054
35.3759 17.301 21.9407 -1.78496 0.0189971 0.253655
5.7975 21.833 22.5506 -1.65317 1.3011 0.437067
7.54535 23.9844 23.3321 0.473631 0.461902 -1.01427
7.61613 22.9793 20.6341 -1.07603 -0.612478 0.385707
7.99958 21.3233 24.3354 0.862223 0.367178 -0.304143
9.81821 22.4696 22.4189 0.800645 -0.0265826 0.621477
12.0911 20.9548 21.5057 -0.751864 2.08934 -2.38004