LAMMPS (15 Sep 2022)
OMP_NUM_THREADS environment is not set. Defaulting to 1 thread. (src/comm.cpp:98)
  using 1 OpenMP thread(s) per MPI task
Loaded 1 plugins from C:\Users\becat\AppData\Local\LAMMPS 64-bit 15Sep2022\plugins
# System definition
dimension       3
units           metal
atom_style      atomic

boundary        s s s

lattice         fcc 4.079
Lattice spacing in x,y,z = 4.079 4.079 4.079

region          box block 0 10 0 10 0 10
create_box      1 box
Created orthogonal box = (0 0 0) to (40.79 40.79 40.79)
  1 by 1 by 1 MPI processor grid

#Interaction: EAM model
pair_style      eam
pair_coeff		* * Au_u3.eam

#Variable to store path to molecule
variable        molname index molecules/Au459TO9-2.molecule

#assign molecule file to lammps molecule
molecule        np ${molname}
molecule        np molecules\Au459TO9-2.molecule
Read molecule template np:
  1 molecules
  0 fragments
  459 atoms with max type 1
  0 bonds with max type 0
  0 angles with max type 0
  0 dihedrals with max type 0
  0 impropers with max type 0

#create a single nanoparticle in middle of simulation box
create_atoms    0 single 5 5 5 mol np 123567
Created 459 atoms
  using lattice units in orthogonal box = (7.8037767 7.7362583 7.5923807) to (32.986223 33.053742 33.197619)
  create_atoms CPU = 0.001 seconds
velocity        all create 300. 123789 rot yes dist gaussian

thermo          1000
thermo_style    custom step temp pe ke etotal vol
fix             1 all nvt temp 300.0 300.0 10.0
dump            mydmp all custom 1000 dump/dump.thermalize x y z vx vy vz
run             100000
Neighbor list info ...
  update: every = 1 steps, delay = 10 steps, check = yes
  max neighbors/atom: 2000, page size: 100000
  master list distance cutoff = 7.55
  ghost atom cutoff = 7.55
  binsize = 3.775, bins = 7 7 7
  1 neighbor lists, perpetual/occasional/extra = 1 0 0
  (1) pair eam, perpetual
      attributes: half, newton on
      pair build: half/bin/atomonly/newton
      stencil: half/bin/3d
      bin: standard
Per MPI rank memory allocation (min/avg/max) = 4.564 | 4.564 | 4.564 Mbytes
   Step          Temp          PotEng         KinEng         TotEng         Volume    
         0   300           -1682.1924      17.760344     -1664.4321      16324.778    
      1000   306.26844     -1682.5498      18.131443     -1664.4183      16324.778    
      2000   264.88971     -1680.0555      15.681775     -1664.3737      16324.778    
      3000   291.17128     -1681.5359      17.237673     -1664.2982      16324.778    
      4000   270.09771     -1680.1815      15.990094     -1664.1914      16324.778    
      5000   257.70304     -1679.3113      15.256316     -1664.055       16324.778    
      6000   280.85831     -1680.5164      16.627134     -1663.8892      16324.778    
      7000   281.58439     -1680.3703      16.670118     -1663.7002      16324.778    
      8000   282.70843     -1680.2337      16.736663     -1663.4971      16324.778    
      9000   285.03118     -1680.1672      16.874173     -1663.2931      16324.778    
     10000   264.20246     -1678.7407      15.641089     -1663.0996      16324.778    
     11000   288.62609     -1680.0099      17.086995     -1662.9229      16324.778    
     12000   286.57028     -1679.7306      16.965289     -1662.7653      16324.778    
     13000   286.13824     -1679.5666      16.939712     -1662.6269      16324.778    
     14000   301.47516     -1680.3516      17.847675     -1662.5039      16324.778    
     15000   284.33198     -1679.2245      16.832779     -1662.3918      16324.778    
     16000   286.25261     -1679.2327      16.946483     -1662.2863      16324.778    
     17000   305.18947     -1680.2515      18.067567     -1662.1839      16324.778    
     18000   291.05755     -1679.3132      17.230941     -1662.0822      16324.778    
     19000   294.59034     -1679.4201      17.440086     -1661.98        16324.778    
     20000   284.57863     -1678.7238      16.847381     -1661.8765      16324.778    
     21000   276.62561     -1678.1475      16.376554     -1661.7709      16324.778    
     22000   298.96311     -1679.3619      17.698959     -1661.6629      16324.778    
     23000   295.12973     -1679.0248      17.472019     -1661.5528      16324.778    
     24000   293.22853     -1678.8007      17.359465     -1661.4412      16324.778    
     25000   297.28946     -1678.9291      17.599877     -1661.3292      16324.778    
     26000   299.79906     -1678.9657      17.748448     -1661.2172      16324.778    
     27000   290.86938     -1678.3256      17.219801     -1661.1058      16324.778    
     28000   315.76011     -1679.6879      18.693361     -1660.9946      16324.778    
     29000   306.93654     -1679.0566      18.170995     -1660.8856      16324.778    
     30000   315.32452     -1679.4465      18.667573     -1660.779       16324.778    
     31000   293.10128     -1678.028       17.351932     -1660.676       16324.778    
     32000   303.22693     -1678.5294      17.951382     -1660.5781      16324.778    
     33000   317.8392      -1679.3013      18.816445     -1660.4849      16324.778    
     34000   303.26311     -1678.3506      17.953524     -1660.3971      16324.778    
     35000   317.88561     -1679.1339      18.819193     -1660.3148      16324.778    
     36000   307.99462     -1678.4718      18.233635     -1660.2382      16324.778    
     37000   297.76567     -1677.7964      17.628069     -1660.1684      16324.778    
     38000   317.14083     -1678.8796      18.775101     -1660.1045      16324.778    
     39000   315.02719     -1678.6979      18.649971     -1660.048       16324.778    
     40000   307.17547     -1678.1841      18.18514      -1659.999       14739.922    
     41000   307.78258     -1678.1792      18.221082     -1659.9581      14667.43     
     42000   317.72909     -1678.7348      18.809926     -1659.9249      14667.43     
     43000   308.37472     -1678.1556      18.256137     -1659.8995      14667.43     
     44000   313.79469     -1678.4598      18.577005     -1659.8828      15167.932    
     45000   317.57601     -1678.6754      18.800864     -1659.8746      15167.932    
     46000   297.45014     -1677.4856      17.609389     -1659.8762      15167.932    
     47000   327.37602     -1679.2687      19.381036     -1659.8877      15167.932    
     48000   299.22112     -1677.6246      17.714233     -1659.9104      15167.932    
     49000   305.08048     -1678.0056      18.061114     -1659.9445      15167.932    
     50000   312.46951     -1678.4907      18.498553     -1659.9921      14744.626    
     51000   305.85655     -1678.1615      18.107059     -1660.0545      14744.626    
     52000   302.35987     -1678.0321      17.900051     -1660.132       14792.761    
     53000   298.72055     -1677.9119      17.684599     -1660.2273      14977.407    
     54000   295.19721     -1677.8163      17.476013     -1660.3403      14977.407    
     55000   291.21438     -1677.7142      17.240225     -1660.474       14977.407    
     56000   321.34409     -1679.65        19.023938     -1660.6261      14977.407    
     57000   299.30661     -1678.5132      17.719294     -1660.7939      14977.407    
     58000   280.34953     -1677.5713      16.597014     -1660.9743      14977.407    
     59000   307.15056     -1679.3447      18.183666     -1661.161       14977.407    
     60000   295.08071     -1678.8171      17.469116     -1661.348       14977.407    
     61000   297.44524     -1679.1356      17.609099     -1661.5265      14977.407    
     62000   280.68086     -1678.3098      16.616629     -1661.6931      14977.407    
     63000   291.36612     -1679.091       17.249208     -1661.8418      14977.407    
     64000   289.09605     -1679.0864      17.114818     -1661.9716      14977.407    
     65000   270.14266     -1678.0714      15.992755     -1662.0787      15126.428    
     66000   281.6874      -1678.8422      16.676217     -1662.166       14549.966    
     67000   289.59271     -1679.3763      17.14422      -1662.2321      14549.966    
     68000   295.4632      -1679.7721      17.49176      -1662.2803      14549.966    
     69000   257.54937     -1677.5584      15.247218     -1662.3112      14549.966    
     70000   299.12861     -1680.0358      17.708757     -1662.327       14549.966    
     71000   292.34011     -1679.6358      17.30687      -1662.329       14549.966    
     72000   279.43515     -1678.8602      16.542881     -1662.3173      14549.966    
     73000   288.37717     -1679.3664      17.072259     -1662.2941      14549.966    
     74000   309.88678     -1680.6048      18.345653     -1662.2591      14549.966    
     75000   276.69651     -1678.595       16.380751     -1662.2142      15080.066    
     76000   293.12262     -1679.5118      17.353195     -1662.1586      15080.066    
     77000   299.73291     -1679.8391      17.744532     -1662.0946      15111.366    
     78000   293.29964     -1679.387       17.363675     -1662.0233      15111.366    
     79000   307.94162     -1680.176       18.230497     -1661.9455      14819.774    
     80000   289.83575     -1679.0217      17.158608     -1661.8631      14819.774    
     81000   280.76457     -1678.3994      16.621585     -1661.7778      14819.774    
     82000   298.8664      -1679.3837      17.693233     -1661.6905      14819.774    
     83000   298.44582     -1679.2706      17.668334     -1661.6023      14819.774    
     84000   292.57914     -1678.8365      17.32102      -1661.5155      14819.774    
     85000   301.58739     -1679.2854      17.854319     -1661.4311      14819.774    
     86000   304.02661     -1679.3486      17.998724     -1661.3499      14819.774    
     87000   291.59322     -1678.5367      17.262653     -1661.274       14819.774    
     88000   286.20903     -1678.1466      16.943902     -1661.2027      14819.774    
     89000   301.60511     -1678.9927      17.855368     -1661.1373      14819.774    
     90000   315.76495     -1679.7713      18.693647     -1661.0776      14819.774    
     91000   306.70178     -1679.1817      18.157097     -1661.0246      14819.774    
     92000   294.59506     -1678.4174      17.440366     -1660.977       14819.774    
     93000   301.21704     -1678.7665      17.832394     -1660.9341      14819.774    
     94000   298.57047     -1678.572       17.675714     -1660.8963      14819.774    
     95000   308.56099     -1679.1305      18.267164     -1660.8634      14819.774    
     96000   301.34505     -1678.6743      17.839973     -1660.8343      14819.774    
     97000   303.75922     -1678.7917      17.982894     -1660.8088      14819.774    
     98000   305.12859     -1678.8511      18.063962     -1660.7872      14949.19     
     99000   313.79153     -1679.3444      18.576818     -1660.7676      14880.263    
    100000   299.4847      -1678.4804      17.729838     -1660.7505      14880.263    
Loop time of 44.8152 on 1 procs for 100000 steps with 459 atoms

Performance: 192.792 ns/day, 0.124 hours/ns, 2231.388 timesteps/s
99.7% CPU use with 1 MPI tasks x 1 OpenMP threads

MPI task timing breakdown:
Section |  min time  |  avg time  |  max time  |%varavg| %total
---------------------------------------------------------------
Pair    | 43.724     | 43.724     | 43.724     |   0.0 | 97.56
Neigh   | 0.006646   | 0.006646   | 0.006646   |   0.0 |  0.01
Comm    | 0.012064   | 0.012064   | 0.012064   |   0.0 |  0.03
Output  | 0.14999    | 0.14999    | 0.14999    |   0.0 |  0.33
Modify  | 0.77226    | 0.77226    | 0.77226    |   0.0 |  1.72
Other   |            | 0.1506     |            |       |  0.34

Nlocal:            459 ave         459 max         459 min
Histogram: 1 0 0 0 0 0 0 0 0 0
Nghost:              0 ave           0 max           0 min
Histogram: 1 0 0 0 0 0 0 0 0 0
Neighs:          15883 ave       15883 max       15883 min
Histogram: 1 0 0 0 0 0 0 0 0 0

Total # of neighbors = 15883
Ave neighs/atom = 34.603486
Neighbor list builds = 14
Dangerous builds = 0
Total wall time: 0:00:44
