100
 Atoms. Timestep: 50000
Au 20.8952 18.1482 25.63
Au 20.9357 19.1192 23.0886
Au 20.7421 20.0735 20.451
Au 20.0565 21.333 17.6455
Au 19.6132 22.6168 15.1463
Au 18.3229 18.6847 24.5379
Au 18.1836 19.6474 21.7679
Au 17.8982 21.0422 19.1785
Au 17.6532 22.2341 16.5704
Au 19.9144 20.5767 25.2926
Au 19.7994 21.7551 22.7794
Au 19.7722 22.8927 20.1806
Au 19.4068 24.0473 17.5228
Au 22.788 20.143 24.7688
Au 22.6198 21.1821 22.1075
Au 22.1732 22.3172 19.1308
Au 21.689 23.479 16.5471
Au 22.7172 17.2115 23.8958
Au 22.6848 18.2424 20.9402
Au 22.233 19.6648 18.133
Au 21.7278 21.0054 15.5101
Au 20.0206 16.6069 23.7616
Au 19.8998 17.321 20.9388
Au 19.5249 18.6365 18.3445
Au 19.1146 20.0337 15.4996
Au 15.7441 19.3358 23.347
Au 15.6407 20.3966 20.8246
Au 15.4269 21.5267 18.0408
Au 17.4233 21.2495 24.2097
Au 17.1247 22.5254 21.7556
Au 17.1719 23.5571 19.1669
Au 19.3837 23.3354 25.0356
Au 18.9864 24.4428 22.5456
Au 18.9372 25.6473 19.8025
Au 21.8113 22.7505 24.5499
Au 21.7221 23.9653 21.815
Au 21.447 25.0223 19.1516
Au 24.5822 22.0144 23.915
Au 24.2978 23.1165 20.9961
Au 23.9756 24.3204 18.4794
Au 24.5004 19.2145 22.8274
Au 24.2674 20.5503 19.7462
Au 23.9054 21.799 16.9086
Au 24.7635 16.51 22.141
Au 24.3536 17.8297 18.7895
Au 23.6905 19.2953 15.9546
Au 21.8744 15.6732 22.0152
Au 21.6709 16.9157 18.6173
Au 21.0919 18.36 16.0266
Au 18.9697 14.888 21.71
Au 18.7658 15.833 18.6716
Au 18.7049 17.1741 15.9279
Au 17.4711 17.1837 22.3287
Au 17.294 18.0263 19.7309
Au 17.1154 19.5915 17.1317
Au 13.3769 19.7345 22.1035
Au 13.1716 20.8945 19.5004
Au 14.9105 21.9079 23.0659
Au 14.8152 23.0052 20.2715
Au 16.7625 23.7897 24.2426
Au 16.5308 25.2366 21.3531
Au 18.6044 26.0737 24.9688
Au 18.3878 27.1826 22.4002
Au 21.0888 25.3121 24.1149
Au 20.711 26.5642 21.5142
Au 23.8232 24.5778 23.4082
Au 23.5307 25.7618 20.7059
Au 26.2274 23.8084 22.6662
Au 26.1001 24.894 20.2241
Au 26.0954 21.2317 21.8306
Au 25.9526 22.3753 18.7055
Au 25.9552 18.4606 20.9042
Au 25.8071 19.9647 17.319
Au 26.229 15.8171 20.3088
Au 25.9215 17.5855 16.2939
Au 23.6012 15.4489 19.8602
Au 23.3374 16.5854 16.4942
Au 20.8303 14.3242 19.7672
Au 20.6411 15.6256 16.4347
Au 17.9183 13.3729 19.4686
Au 17.7929 14.6494 16.4835
Au 16.462 15.3801 20.6285
Au 16.3702 16.8579 17.3071
Au 15.0814 17.652 21.289
Au 14.8047 18.8512 18.5305
Au 12.6973 22.2432 21.6574
Au 14.4618 24.3581 22.5475
Au 16.3184 26.2684 23.7169
Au 20.4438 27.7116 23.9185
Au 23.0401 27.0532 23.104
Au 25.5882 26.3836 22.1229
Au 27.6458 22.7633 20.3932
Au 27.4645 20.1037 19.4246
Au 27.1577 17.6282 18.4652
Au 25.4414 15.5058 17.7516
Au 22.7079 14.2849 17.4268
Au 19.889 13.4576 17.5931
Au 15.9556 14.2519 18.2814
Au 14.5474 16.244 19.1785
Au 12.8005 18.2524 20.2212
