1139
 Atoms. Timestep: 50000
Au 5.5944 27.1605 25.0481
Au 6.78847 29.5021 25.7354
Au 8.73547 31.431 26.519
Au 5.66443 23.5961 23.4227
Au 7.53281 25.9622 24.1925
Au 8.95349 27.9623 25.0285
Au 10.7517 29.882 25.5775
Au 12.5617 32.2043 26.2901
Au 5.97746 19.973 21.8241
Au 7.69859 21.8738 22.6077
Au 9.59655 24.0677 23.2702
Au 11.1853 26.3673 24.0533
Au 13.0093 28.4982 24.6091
Au 14.7548 30.793 25.565
Au 16.4862 33.0894 26.3041
Au 6.58916 16.2073 20.1679
Au 8.20559 18.5406 20.8726
Au 10.134 20.6031 21.7929
Au 11.8275 22.7465 22.2749
Au 13.4246 25.0711 23.152
Au 15.4702 27.0729 23.7189
Au 17.1006 29.2458 24.5486
Au 18.7929 31.5975 25.4497
Au 20.2444 33.6256 26.2569
Au 7.02945 12.8053 18.2816
Au 8.72714 14.7877 18.961
Au 10.7245 16.9379 19.9001
Au 12.422 19.2136 20.9018
Au 14.1842 21.2186 21.4483
Au 16.0099 23.5281 22.1401
Au 17.4857 25.6982 22.8142
Au 19.3749 27.6592 23.5284
Au 21.0346 29.7638 24.4844
Au 22.6266 32.0793 25.4727
Au 24.621 33.9858 25.9931
Au 7.63207 9.28472 16.644
Au 9.32881 11.2705 17.44
Au 11.111 13.3245 18.0889
Au 12.8649 15.3588 19.0422
Au 14.7061 17.5523 19.8342
Au 16.3744 20.0262 20.5049
Au 18.0314 21.8686 21.3045
Au 19.8963 24.103 22.0358
Au 21.6195 26.1468 22.862
Au 23.1581 28.3553 23.6856
Au 25.0856 30.4487 24.2653
Au 26.9289 32.5391 25.046
Au 28.6102 34.4913 25.86
Au 9.81394 7.94023 15.8133
Au 11.8076 9.83049 16.539
Au 13.356 11.8749 17.1836
Au 15.202 13.9638 17.95
Au 16.8436 15.9821 18.9256
Au 18.692 18.1625 19.7826
Au 20.3225 20.5776 20.5042
Au 22.2845 22.6789 21.1814
Au 23.94 24.7674 21.8867
Au 25.5595 26.9445 22.674
Au 27.4431 29.0482 23.3005
Au 29.1741 31.2518 24.1675
Au 30.7256 33.0313 25.1355
Au 12.2399 6.55832 15.0086
Au 14.0917 8.43323 15.5191
Au 15.7884 10.5163 16.2959
Au 17.4817 12.5943 17.0412
Au 19.1967 14.7439 17.8802
Au 20.9757 16.7028 18.6812
Au 22.6388 18.9479 19.4158
Au 24.5555 21.1082 20.3438
Au 26.1571 23.3572 21.0559
Au 27.7991 25.5054 21.9438
Au 29.684 27.3368 22.6592
Au 31.3381 29.5088 23.3731
Au 32.6561 31.5281 24.2223
Au 16.1239 6.8728 14.6462
Au 18.0511 8.78 15.3076
Au 20.036 10.9801 16.1343
Au 21.4707 13.2166 16.9334
Au 23.4206 15.4155 17.7833
Au 25.0648 17.5392 18.4619
Au 26.7988 19.3833 19.3907
Au 28.4264 21.6606 20.176
Au 30.137 23.6765 20.9148
Au 31.9034 25.9001 21.7923
Au 33.5394 28.1247 22.6754
Au 20.0253 7.18061 14.4384
Au 22.2027 9.27164 15.2106
Au 23.5919 11.6901 15.9986
Au 25.4546 13.8343 16.933
Au 27.1038 15.7458 17.727
Au 28.9685 17.7993 18.4514
Au 30.5707 19.9766 19.242
Au 32.6078 22.4374 20.0477
Au 34.1412 24.6021 21.0894
Au 24.2229 7.70848 14.3586
Au 25.8178 9.97203 15.038
Au 27.6415 12.3968 15.875
Au 29.507 14.4339 16.8424
Au 31.1485 16.3431 17.4241
Au 33.011 18.8355 18.3949
Au 34.7748 20.848 19.1962
Au 28.1306 8.7654 14.2924
Au 29.8165 10.7532 15.1486
Au 31.6658 12.8744 15.9775
Au 33.5476 14.9488 16.4524
Au 35.2207 17.2624 17.5499
Au 32.1924 9.83245 14.102
Au 33.9082 11.6438 15.0789
Au 35.5641 13.4732 15.7199
Au 5.37722 26.1467 22.5022
Au 6.86245 28.5436 23.056
Au 8.67354 30.5913 23.7864
Au 10.4747 32.5233 24.6993
Au 5.57808 22.7783 20.6754
Au 7.48547 24.7679 21.5355
Au 9.01671 27.0302 22.1463
Au 10.7624 28.9199 22.9664
Au 12.7254 31.0945 23.7535
Au 14.2239 33.5129 24.6216
Au 6.21325 18.9869 19.0842
Au 7.78972 21.1278 19.824
Au 9.68987 23.073 20.5297
Au 11.4204 25.4181 21.188
Au 13.0963 27.5003 22.1151
Au 14.8818 29.6732 22.738
Au 16.5617 31.9438 23.7692
Au 18.2513 34.1546 24.3152
Au 6.5555 15.2708 17.2651
Au 8.43968 17.4527 18.2576
Au 10.1677 19.5833 19.1763
Au 12.0371 21.6881 19.7931
Au 13.7416 23.8783 20.3939
Au 15.3171 26.0027 21.1732
Au 17.3525 28.2687 21.8663
Au 18.9326 30.4206 22.7355
Au 20.475 32.7207 23.5145
Au 22.3322 34.6182 24.233
Au 7.22743 11.7436 15.665
Au 8.90846 13.8988 16.2952
Au 10.7862 16.1482 17.331
Au 12.5256 18.1485 18.1751
Au 14.1223 20.3822 18.7639
Au 15.9234 22.5151 19.4886
Au 17.7187 24.6576 20.296
Au 19.3615 26.7949 20.8949
Au 21.2059 28.8444 21.8145
Au 22.7948 30.872 22.645
Au 24.6541 33.1002 23.1782
Au 26.582 34.9155 24.1267
Au 9.40037 10.4063 14.8363
Au 11.2753 12.4668 15.4584
Au 13.0345 14.5936 16.3235
Au 14.6839 16.6993 17.0677
Au 16.4593 18.6464 18.0654
Au 18.0815 21.0442 18.5991
Au 19.8929 23.0965 19.4034
Au 21.7853 25.1918 20.1327
Au 23.4537 27.5759 21.0305
Au 25.1781 29.6719 21.5106
Au 27.0783 31.769 22.4171
Au 28.8466 33.9308 23.1744
Au 11.8156 9.02184 13.8611
Au 13.4315 11.0378 14.5554
Au 15.2896 13.0198 15.3069
Au 16.9497 15.2112 16.2089
Au 18.6572 17.2626 17.1589
Au 20.4498 19.5943 17.9071
Au 22.3213 21.6699 18.4359
Au 24.2196 23.7567 19.2786
Au 25.8399 25.8876 19.9657
Au 27.449 27.9453 20.7428
Au 29.3112 30.277 21.5057
Au 30.9107 32.2857 22.3586
Au 14.0931 7.63904 12.9961
Au 15.8567 9.58839 13.783
Au 17.7787 11.5414 14.4812
Au 19.2906 13.8035 15.2733
Au 21.1892 15.9125 15.8826
Au 22.6989 17.9734 16.8186
Au 24.5787 20.0704 17.3696
Au 26.2231 22.1297 18.3983
Au 28.0052 24.3165 19.1242
Au 29.7192 26.3784 20.088
Au 31.5238 28.5782 20.7464
Au 33.1052 30.682 21.5197
Au 17.9544 7.92411 12.6279
Au 20.0621 9.86612 13.4712
Au 21.6404 12.0376 14.2892
Au 23.3128 14.3397 15.0765
Au 25.0743 16.521 15.8444
Au 26.8769 18.6177 16.4236
Au 28.5483 20.6821 17.4758
Au 30.2817 22.5911 18.2061
Au 32.1591 24.9949 19.1491
Au 33.822 27.0647 19.9674
Au 22.1642 8.40856 12.6059
Au 23.7929 10.5438 13.1668
Au 25.4841 12.8213 14.1687
Au 27.3136 14.9646 14.8856
Au 29.1464 17.0689 15.8172
Au 30.732 19.2357 16.6912
Au 32.617 21.4514 17.4576
Au 34.2705 23.5178 18.077
Au 26.1475 9.07196 12.2414
Au 27.581 11.2494 13.2049
Au 29.4701 13.4303 13.8822
Au 31.1519 15.3915 14.7271
Au 33.0687 17.6422 15.703
Au 34.7606 19.7569 16.4554
Au 30.1271 9.90648 12.5594
Au 31.6235 12.0679 13.0232
Au 33.3349 13.9538 13.953
Au 35.1972 16.217 14.8158
Au 5.31789 25.2734 19.8684
Au 6.76064 27.4663 20.4617
Au 8.53444 29.73 21.1497
Au 10.4951 31.4919 21.7508
Au 12.1458 33.4262 22.7045
Au 5.54874 21.5572 18.1022
Au 7.4585 23.6376 18.8322
Au 9.22523 25.6721 19.8078
Au 10.7975 28.0407 20.2057
Au 12.651 30.1729 20.8369
Au 14.4145 32.1908 21.7463
Au 16.0526 34.5036 22.7422
Au 6.10182 17.9658 16.6792
Au 7.93316 19.9635 17.1453
Au 9.6353 22.1657 17.867
Au 11.2786 24.2382 18.5778
Au 13.1385 26.4753 19.4982
Au 14.8912 28.7274 20.1653
Au 16.6904 30.8946 20.839
Au 18.3673 33.0537 21.7762
Au 19.7813 35.2105 22.5373
Au 7.10254 14.356 14.6844
Au 8.63234 16.6533 15.4701
Au 10.238 18.7424 16.3766
Au 11.9871 20.86 16.9516
Au 13.6772 22.9675 17.6383
Au 15.5237 25.1218 18.4855
Au 17.3012 27.2311 19.208
Au 19.0007 29.4176 19.9319
Au 20.6363 31.4272 20.7155
Au 22.2668 33.754 21.7566
Au 24.2355 35.6298 22.5875
Au 9.13372 12.9839 13.7121
Au 10.7613 14.9661 14.4628
Au 12.3417 17.1969 15.2779
Au 14.1175 19.2153 16.0244
Au 15.8451 21.2393 16.8467
Au 17.7418 23.5935 17.4886
Au 19.5927 25.7938 18.4023
Au 21.142 28.0422 19.1044
Au 23.0112 29.9961 19.7531
Au 24.9198 32.142 20.4702
Au 26.4204 34.4061 21.4834
Au 11.1124 11.413 12.7395
Au 13.1123 13.5314 13.5976
Au 14.7918 15.6357 14.4422
Au 16.4753 17.8674 15.283
Au 18.3571 20.0125 15.9639
Au 20.1128 22.1125 16.7076
Au 21.8404 24.1404 17.5757
Au 23.4745 26.5669 18.243
Au 25.3243 28.4489 18.9959
Au 27.1843 30.6539 19.59
Au 28.7984 32.7772 20.6125
Au 13.5489 10.0526 11.7948
Au 15.372 12.0645 12.5128
Au 17.1231 14.2206 13.33
Au 18.7388 16.3703 14.117
Au 20.5493 18.3192 15.1641
Au 22.4057 20.5384 15.7298
Au 24.1634 22.8266 16.6747
Au 25.8928 25.1354 17.3569
Au 27.591 27.0308 18.0731
Au 29.4056 29.1512 18.9289
Au 31.1596 31.144 19.5718
Au 16.0872 8.94316 11.1994
Au 17.845 10.8344 11.8626
Au 19.3951 12.8171 12.3814
Au 21.1383 14.8421 13.1429
Au 22.9243 16.9471 13.8493
Au 24.4364 19.1757 14.7148
Au 26.3776 21.3125 15.5843
Au 28.1566 23.4715 16.426
Au 29.8991 25.5313 17.4745
Au 31.7036 27.5063 18.1358
Au 33.2724 29.665 18.8885
Au 19.8414 9.06045 10.8672
Au 21.585 11.0028 11.5105
Au 23.4061 13.4037 12.3483
Au 25.1994 15.466 13.0697
Au 26.8956 17.5427 13.9601
Au 28.7203 19.701 14.5574
Au 30.3019 21.7891 15.5275
Au 32.0291 23.9151 16.3734
Au 33.9362 26.1535 17.3949
Au 23.6262 9.56375 10.613
Au 25.6437 11.7387 11.2724
Au 27.3516 13.7217 12.1488
Au 29.0489 16.1017 12.9261
Au 30.9795 18.1752 13.9169
Au 32.5664 20.1789 14.8549
Au 34.3165 22.4099 15.4675
Au 28.0111 10.1491 10.9874
Au 29.6614 12.3472 11.2779
Au 31.522 14.8634 12.1654
Au 33.3189 16.7453 12.9722
Au 34.8169 18.6304 13.8763
Au 5.27993 24.1906 17.1405
Au 7.0189 26.2674 17.9103
Au 8.71416 28.4092 18.7041
Au 10.4303 30.8983 19.1135
Au 12.2894 33.0093 19.9427
Au 14.0688 34.7599 20.6549
Au 5.6398 20.3817 15.4539
Au 7.36471 22.5934 16.2968
Au 8.96821 24.7978 16.6652
Au 10.863 26.9508 17.6811
Au 12.5877 29.2571 18.2215
Au 14.4168 31.5293 19.0807
Au 16.2109 33.641 19.8109
Au 17.9695 35.5976 20.6107
Au 6.54546 17.0044 13.9044
Au 7.90624 19.1006 14.5657
Au 9.67173 21.1562 15.1913
Au 11.5586 23.3547 15.9298
Au 13.1441 25.62 16.7144
Au 14.9055 27.7661 17.5175
Au 16.7642 29.8841 18.2886
Au 18.4264 31.8842 18.8835
Au 20.2223 34.1128 19.795
Au 21.7754 36.1236 20.5706
Au 8.49839 15.6478 12.813
Au 10.2029 17.7077 13.495
Au 11.9203 19.8453 14.2027
Au 13.7054 21.9561 14.9819
Au 15.5072 23.9618 15.7025
Au 17.2245 26.2572 16.4268
Au 19.0974 28.3922 17.168
Au 20.6222 30.4548 17.9362
Au 22.5964 32.561 18.8537
Au 24.2228 34.673 19.9389
Au 10.884 14.0634 11.8081
Au 12.4868 16.2118 12.5999
Au 14.1948 18.3288 13.2749
Au 16.1079 20.3939 14.1197
Au 17.662 22.3971 14.9031
Au 19.5224 24.7137 15.6102
Au 21.3043 26.8868 16.212
Au 23.1361 28.9631 17.0856
Au 24.8595 31.1735 17.9363
Au 26.6272 33.4959 18.8816
Au 13.265 12.7597 10.9427
Au 14.9447 14.7856 11.6346
Au 16.4843 16.8901 12.3442
Au 18.4601 19.0471 13.3472
Au 20.0972 21.0981 14.0804
Au 21.9439 23.1873 14.9208
Au 23.5282 25.323 15.6757
Au 25.3683 27.5582 16.4137
Au 27.2499 29.6727 17.0315
Au 29.0065 31.8799 17.908
Au 15.2674 11.0956 9.92559
Au 17.1283 13.2624 10.5229
Au 18.8547 15.3119 11.3835
Au 20.5233 17.6028 12.3344
Au 22.3161 19.5523 13.1028
Au 24.1646 21.8137 13.7736
Au 26.0282 23.9976 14.6685
Au 27.6815 26.113 15.2752
Au 29.5191 28.2581 16.3311
Au 31.298 30.1441 17.0009
Au 17.601 9.91732 9.03097
Au 19.5662 11.5837 9.69775
Au 21.0398 13.9899 10.4949
Au 23.0201 15.9972 11.1522
Au 24.9065 18.2408 12.1903
Au 26.4278 20.2946 13.0758
Au 28.3446 22.3216 13.6828
Au 29.8626 24.6146 14.4258
Au 31.4669 26.5809 15.2923
Au 33.1321 28.4736 16.0021
Au 21.8681 10.3549 8.70837
Au 23.379 12.2815 9.7567
Au 25.3304 14.4318 10.3005
Au 27.0559 16.5687 11.0621
Au 28.7893 18.5837 11.9527
Au 30.5679 20.6761 12.8007
Au 32.1396 22.9287 13.84
Au 33.7773 25.206 14.6616
Au 25.3113 10.6333 8.89221
Au 27.429 12.6727 9.51183
Au 29.2232 14.845 10.3932
Au 30.7674 17.2016 10.9497
Au 32.697 19.3917 11.8366
Au 34.1724 21.2404 13.0294
Au 5.29045 22.9653 14.6084
Au 6.82916 25.3565 15.1819
Au 8.54063 27.4313 16.0014
Au 10.4325 29.5202 16.5132
Au 12.3852 31.7221 17.1977
Au 14.1947 34.0914 17.9958
Au 15.9126 36.1774 18.8062
Au 5.80122 19.5024 12.7622
Au 7.44438 21.6313 13.5712
Au 9.0843 23.782 14.2168
Au 10.8803 26.2287 14.9111
Au 12.74 28.3557 15.688
Au 14.483 30.4558 16.4382
Au 16.2036 32.4751 17.1198
Au 17.9309 34.5833 17.8803
Au 19.9125 36.4943 18.7413
Au 8.00076 18.0713 11.657
Au 9.66806 20.2064 12.4585
Au 11.4392 22.377 13.1893
Au 13.3205 24.6183 14.0699
Au 15.1944 26.6728 14.7391
Au 16.8894 29.034 15.7455
Au 18.6275 31.1537 16.056
Au 20.2612 33.1419 17.058
Au 22.022 35.088 17.9447
Au 10.3698 16.4323 10.7864
Au 12.1188 18.8472 11.4732
Au 13.7787 20.8828 12.5104
Au 15.4332 22.9365 12.9297
Au 17.2466 25.0476 13.8588
Au 19.0457 27.3816 14.5561
Au 20.972 29.6308 15.216
Au 22.6051 31.7036 16.3269
Au 24.3323 33.6961 17.0194
Au 12.5257 15.2017 9.92735
Au 14.3082 17.2641 10.6138
Au 16.0003 19.4198 11.4623
Au 17.7047 21.7656 12.2422
Au 19.496 23.8032 12.9735
Au 21.4912 25.81 13.7289
Au 23.157 27.9083 14.5294
Au 24.8952 30.0528 15.1804
Au 26.7824 32.1813 16.0491
Au 14.607 13.7856 8.91195
Au 16.5017 15.8044 9.64569
Au 18.5509 17.8454 10.5121
Au 20.0566 20.2357 11.217
Au 21.9122 22.3676 12.1616
Au 23.8361 24.4587 12.9229
Au 25.4964 26.6314 13.5326
Au 27.1408 28.7602 14.3519
Au 28.8966 30.8672 15.2899
Au 17.0019 12.352 8.04839
Au 18.9612 14.3198 8.59001
Au 21.0141 16.6456 9.71032
Au 22.4724 18.7658 10.4746
Au 24.0415 20.8809 11.1658
Au 26.1933 22.9061 11.9044
Au 27.7514 24.9875 12.682
Au 29.3853 27.377 13.3955
Au 31.1744 29.2948 14.2532
Au 19.5618 10.8146 7.15026
Au 21.2601 13.0905 7.87055
Au 23.0065 14.942 8.4594
Au 24.8305 17.1432 9.36866
Au 26.4508 19.1381 10.2594
Au 28.4138 21.1224 10.8436
Au 30.0888 23.3734 11.9727
Au 31.6483 25.6901 12.6044
Au 33.2299 27.6677 13.4586
Au 23.3291 11.5872 7.05646
Au 25.2097 13.4416 7.84379
Au 27.1382 15.3921 8.48596
Au 28.778 17.8356 9.16467
Au 30.588 19.7867 9.91318
Au 32.3875 21.8712 11.1233
Au 33.9144 23.866 12.118
Au 5.3066 22.0248 12.289
Au 6.80793 24.1848 12.5593
Au 8.63021 26.3471 13.4603
Au 10.3899 28.6275 13.8554
Au 12.2374 30.8243 14.5339
Au 14.0792 33.0216 15.2841
Au 15.691 35.222 16.1306
Au 17.6818 36.9761 16.8914
Au 7.50387 20.6444 10.8408
Au 9.2583 22.9235 11.4081
Au 10.9463 24.971 12.5608
Au 12.8843 27.1242 13.0194
Au 14.6588 29.4302 13.8368
Au 16.2563 31.5488 14.3336
Au 17.8635 33.7385 15.1973
Au 19.9946 35.825 15.9175
Au 9.93061 19.1248 9.82087
Au 11.4214 21.4581 10.452
Au 13.1453 23.4668 11.3602
Au 15.1964 25.6344 12.1719
Au 16.872 27.8237 12.8373
Au 18.6952 29.7972 13.6454
Au 20.6276 32.231 14.3217
Au 22.1625 34.309 15.1886
Au 12.1303 17.7103 8.96708
Au 14.0133 19.8362 9.45702
Au 15.566 21.9111 10.4074
Au 17.412 24.2599 11.0086
Au 19.2195 26.4036 12.0086
Au 21.04 28.3958 12.7194
Au 22.7356 30.5941 13.302
Au 24.3107 32.5934 14.4057
Au 14.2742 16.2481 7.9373
Au 16.3466 18.3261 8.67476
Au 17.8401 20.5305 9.62674
Au 19.4843 22.6486 10.2847
Au 21.4511 24.908 11.1183
Au 23.3739 26.8398 11.6242
Au 24.9813 29.2973 12.32
Au 26.5458 31.3439 13.4491
Au 16.667 14.7646 6.96643
Au 18.5979 16.9427 7.84936
Au 20.2835 19.381 8.55885
Au 21.8561 21.3919 9.4161
Au 23.7331 23.5387 10.1411
Au 25.6229 25.5174 10.9909
Au 27.2279 27.7931 11.6617
Au 28.9957 29.9081 12.5131
Au 18.9003 13.4204 6.06536
Au 20.972 15.4834 6.77083
Au 22.5652 17.8082 7.43899
Au 24.1552 19.8068 8.52396
Au 26.0072 21.8739 9.24603
Au 27.9669 23.8768 10.1582
Au 29.658 26.0955 10.689
Au 31.4313 28.2352 11.4542
Au 21.3828 12.079 5.27698
Au 23.2867 14.0132 5.83412
Au 24.9302 16.0875 6.72204
Au 26.64 18.3605 7.48459
Au 28.0985 20.3291 8.27983
Au 30.1064 22.5955 9.18648
Au 31.8603 24.3973 10.1153
Au 33.3675 26.4524 10.9662
Au 7.02435 23.4418 10.0486
Au 8.6374 25.3889 10.7389
Au 10.4589 27.5534 11.4378
Au 12.4178 29.6733 12.266
Au 14.0494 31.9788 12.5333
Au 15.9215 34.2824 13.2031
Au 17.6434 36.2121 14.2905
Au 9.10159 21.6287 8.92433
Au 11.0705 24.0312 9.57017
Au 12.8197 26.1949 10.4245
Au 14.7417 28.3099 11.0534
Au 16.4859 30.4885 11.6884
Au 18.3311 32.5323 12.6766
Au 19.8987 34.7248 13.3709
Au 11.6218 20.2738 8.08226
Au 13.1805 22.7015 8.57433
Au 14.961 24.7654 9.44679
Au 16.8639 26.9226 9.8925
Au 18.6103 28.8423 10.9796
Au 20.4541 30.9675 11.6757
Au 22.1246 33.2165 12.27
Au 13.8089 18.8224 7.03532
Au 15.7341 20.9416 7.6166
Au 17.292 23.2212 8.52232
Au 19.0401 25.3518 9.31707
Au 21.0425 27.5168 9.92069
Au 22.5952 29.639 10.8321
Au 24.3821 31.9152 11.571
Au 16.1979 17.5625 6.00722
Au 17.9496 19.5903 6.72484
Au 19.7734 21.8622 7.34698
Au 21.4661 23.9482 8.16867
Au 23.3052 25.9112 8.96396
Au 24.931 28.1118 9.8231
Au 26.8863 30.3577 10.8609
Au 18.5617 15.9946 5.29366
Au 20.3781 18.3278 5.8826
Au 21.9921 20.4942 6.57089
Au 23.7211 22.5244 7.53259
Au 25.6171 24.7026 8.24917
Au 27.4416 26.6332 9.02335
Au 29.1426 28.644 9.94251
Au 20.904 14.4998 4.29804
Au 22.6975 16.5225 4.98112
Au 24.2609 18.7841 5.62436
Au 26.079 20.8358 6.50934
Au 27.7308 23.0924 7.44548
Au 29.6431 25.0799 8.09202
Au 31.2939 27.0657 9.02848
Au 8.87443 24.4854 8.21558
Au 10.819 26.5719 8.75709
Au 12.2375 28.619 9.6746
Au 14.1356 30.6245 10.1574
Au 16.2482 32.9213 10.9558
Au 17.8276 35.0208 11.6343
Au 10.9782 22.8083 7.11159
Au 12.8828 25.2985 7.71115
Au 14.4532 27.2415 8.59286
Au 16.4903 29.6083 9.02112
Au 18.3275 31.6509 9.84486
Au 20.1657 33.3903 10.591
Au 13.5299 21.3523 6.26772
Au 15.104 23.6618 6.96816
Au 17.0387 25.7303 7.34676
Au 18.7044 27.9929 8.16689
Au 20.2539 29.9206 9.13927
Au 22.1661 31.769 9.66236
Au 15.8397 19.7728 5.04282
Au 17.206 22.1857 5.84313
Au 19.2719 24.258 6.60582
Au 21.2642 26.4672 7.27793
Au 22.9465 28.4284 8.20734
Au 24.7478 30.6378 9.14745
Au 18.2993 18.6907 4.20923
Au 19.8177 20.7922 4.76096
Au 21.6479 22.9472 5.65772
Au 23.4774 25.1096 6.40796
Au 25.2222 27.1393 7.1749
Au 26.9566 29.1142 8.3253
Au 20.366 17.0751 3.4167
Au 22.15 19.0864 4.08679
Au 23.9233 21.6497 4.97061
Au 25.5226 23.4864 5.64819
Au 27.4579 25.6507 6.45773
Au 29.2551 27.6046 7.41142
Au 5.64368 24.6573 25.9844
Au 7.47159 26.8803 26.9516
Au 8.93125 29.1624 27.8654
Au 10.8139 31.0927 28.229
Au 5.96943 21.0472 24.4746
Au 7.63875 23.3485 25.1975
Au 9.56321 25.1518 26.2656
Au 11.3825 27.3834 26.8767
Au 12.9564 29.6011 27.5249
Au 14.6163 31.5475 28.3211
Au 6.59625 17.1869 22.6359
Au 7.93728 19.2892 23.6332
Au 10.2027 21.5504 24.4318
Au 11.8304 23.7191 25.2086
Au 13.5435 25.9515 25.8029
Au 15.1381 28.1354 26.5079
Au 16.981 30.4974 27.1908
Au 18.6313 32.7152 28.1576
Au 7.0605 13.9323 21.0557
Au 8.75005 15.8051 21.7564
Au 10.3771 17.9713 22.6199
Au 12.3602 20.3263 23.5028
Au 13.9466 22.5154 24.0079
Au 15.8083 24.4933 24.9383
Au 17.6295 26.4989 25.6594
Au 19.1127 28.7471 26.4878
Au 20.9026 30.9372 27.2343
Au 22.6618 32.8071 27.8872
Au 7.61133 9.98088 19.4939
Au 9.21409 12.2198 20.0955
Au 11.1328 14.2173 21.054
Au 13.0372 16.2998 21.6466
Au 14.5776 18.6445 22.5553
Au 16.1259 20.7012 23.1982
Au 18.1462 23.122 23.9966
Au 19.8523 25.081 24.7722
Au 21.5897 27.2026 25.7212
Au 23.3476 29.4111 26.2815
Au 25.1018 31.6078 26.8824
Au 26.8159 33.6177 27.7639
Au 9.68687 8.69087 18.3749
Au 11.4965 10.6261 19.3142
Au 13.1503 12.7984 19.9809
Au 15.075 14.6775 20.7138
Au 16.8796 17.0825 21.4764
Au 18.6418 19.2676 22.4178
Au 20.3967 21.5044 23.1486
Au 22.1864 23.4786 23.8817
Au 23.9245 25.6377 24.7144
Au 25.5882 27.8175 25.3503
Au 27.3692 29.9669 26.1525
Au 28.9861 32.053 26.9829
Au 12.2511 7.25473 17.3654
Au 13.8227 9.2888 18.2895
Au 15.6164 11.3178 18.9229
Au 17.3967 13.2441 19.9905
Au 19.0796 15.4706 20.5829
Au 21.0355 17.8291 21.3151
Au 22.693 20.053 22.244
Au 24.523 22.0674 23.0491
Au 26.1624 24.257 23.9067
Au 27.7397 26.3473 24.6991
Au 29.7371 28.3569 25.5105
Au 31.2058 30.4741 26.2286
Au 14.4456 5.80589 16.6452
Au 16.1479 7.83373 17.3163
Au 17.9518 9.90942 17.9392
Au 19.7767 11.9468 18.8332
Au 21.4439 14.2535 19.5819
Au 23.2599 16.2689 20.5306
Au 24.9042 18.378 21.1388
Au 26.6207 20.3136 22.1638
Au 28.2933 22.7772 22.7982
Au 29.9467 24.8229 23.7001
Au 31.8609 26.9063 24.4579
Au 33.3836 28.9283 25.3997
Au 18.59 6.29271 16.5882
Au 20.2537 8.51821 17.2511
Au 21.923 10.4692 17.9314
Au 23.4921 12.6061 18.8458
Au 25.4237 14.5005 19.7205
Au 27.1247 16.5757 20.3705
Au 28.8019 18.8978 21.093
Au 30.7497 21.1275 21.8263
Au 32.4785 23.2605 22.8252
Au 33.9813 25.4337 23.5814
Au 22.6005 6.87381 16.3946
Au 24.1647 8.81657 17.1364
Au 25.6711 11.117 17.5607
Au 27.5295 13.0354 18.6342
Au 29.3207 15.1494 19.3766
Au 31.0255 17.3533 20.2798
Au 32.7858 19.8637 20.8449
Au 34.5056 21.8827 22.0068
Au 26.4388 7.53554 16.2099
Au 28.1083 9.78023 16.963
Au 30.0121 11.7295 17.8323
Au 31.9268 13.8001 18.5241
Au 33.2841 16.0235 19.2221
Au 34.904 18.0655 20.2208
Au 30.2049 8.2881 16.1847
Au 32.1919 10.2284 16.9621
Au 34.1796 12.0018 17.677
Au 35.2689 14.3949 18.1801
Au 6.27768 22.0796 27.2486
Au 7.59406 24.2945 28.0263
Au 9.47619 26.3337 28.8425
Au 11.0934 28.4689 29.346
Au 12.7887 30.3123 30.1981
Au 6.42245 18.1156 25.4089
Au 8.20312 20.5361 25.882
Au 10.0139 22.7279 27.0858
Au 11.7635 25.0147 27.9351
Au 13.4681 27.1161 28.6322
Au 15.2429 29.095 29.282
Au 16.7242 31.1118 30.1436
Au 6.87406 14.636 23.8041
Au 8.65519 16.6809 24.5175
Au 10.4705 18.9832 25.0883
Au 12.2166 21.159 26.2257
Au 13.8627 23.361 27.0471
Au 15.8042 25.3073 27.715
Au 17.3585 27.5217 28.4274
Au 19.0943 29.9144 29.1799
Au 21.0846 31.6644 29.9856
Au 7.55572 11.0131 22.012
Au 8.96893 13.2708 22.8624
Au 10.9758 15.4201 23.4866
Au 12.884 17.4601 24.2518
Au 14.5191 19.7237 25.3048
Au 16.2968 21.9845 25.7041
Au 18.0347 23.8285 26.7121
Au 19.6528 25.9758 27.5206
Au 21.4371 28.3456 28.2421
Au 23.2509 30.5142 28.874
Au 25.0611 32.3099 29.4814
Au 9.72561 9.53937 21.0781
Au 11.3729 11.5914 21.8477
Au 13.3188 13.7586 22.7051
Au 14.9785 15.8079 23.4684
Au 16.7272 17.8586 24.1986
Au 18.5689 20.103 24.8432
Au 20.2452 22.3096 25.8515
Au 22.0937 24.5506 26.4505
Au 23.8162 26.93 27.2754
Au 25.4575 28.9626 27.9802
Au 27.1544 30.8692 28.7385
Au 12.0238 8.08194 20.2258
Au 13.7214 10.179 20.8862
Au 15.5687 12.0949 21.7617
Au 17.3004 14.4748 22.6342
Au 19.0494 16.5366 23.1819
Au 20.9532 18.7689 23.9853
Au 22.5279 20.844 24.911
Au 24.4033 23.1406 25.6599
Au 26.0104 25.3164 26.6287
Au 27.6977 27.4269 27.5172
Au 29.557 29.4947 28.0277
Au 14.4169 6.64904 19.3251
Au 16.1234 8.72212 19.9486
Au 17.958 10.7765 20.4842
Au 19.6087 12.9575 21.7416
Au 21.1279 15.1722 22.427
Au 23.1599 17.2117 23.2106
Au 24.8011 19.3594 23.9137
Au 26.6678 21.5017 24.7446
Au 28.2667 23.7557 25.6546
Au 30.0332 25.7209 26.5161
Au 31.8252 27.7428 27.2783
Au 16.5582 5.4028 18.2108
Au 18.4164 7.31458 19.0393
Au 20.3777 9.30944 19.8308
Au 21.7973 11.3821 20.7396
Au 23.5775 13.462 21.4868
Au 25.2797 15.6017 22.362
Au 27.1896 17.6618 22.8806
Au 28.798 20.0388 23.6653
Au 30.4199 22.1206 24.5055
Au 32.0395 24.1558 25.4683
Au 33.7942 26.214 26.2528
Au 20.6901 5.69899 18.1362
Au 22.4272 7.61603 19.1011
Au 24.0639 9.93026 19.8744
Au 25.7199 11.9884 20.574
Au 27.7475 13.75 21.2849
Au 29.3425 16.094 22.1131
Au 30.9697 18.5066 22.8828
Au 32.6473 20.6909 23.7827
Au 34.4587 22.8102 24.7088
Au 24.7057 6.18711 18.0808
Au 26.4651 8.39918 18.8867
Au 28.1048 10.6914 19.7762
Au 30.2029 12.4717 20.5393
Au 31.7457 14.493 21.2971
Au 33.1467 16.8232 22.0828
Au 34.7464 19.3251 22.8988
Au 28.5189 7.12152 17.9681
Au 30.3013 9.23448 18.7623
Au 32.1744 11.0545 19.5675
Au 33.9143 13.0833 20.3645
Au 35.0478 15.4051 20.9226
Au 6.67698 19.5704 27.8855
Au 8.26653 21.6048 28.9279
Au 9.83418 23.8088 29.7191
Au 11.6958 25.9694 30.6036
Au 13.2938 27.726 31.6883
Au 15.0015 29.8212 31.8813
Au 6.94254 15.6708 26.2848
Au 8.6715 17.7382 27.3195
Au 10.1824 19.9181 28.0562
Au 12.0385 22.2944 28.9768
Au 13.9437 24.4232 29.7053
Au 15.7183 26.4329 30.439
Au 17.5064 28.6744 31.1643
Au 19.212 30.7376 31.8864
Au 7.53487 12.3232 24.7823
Au 9.22186 14.2331 25.6004
Au 11.054 16.357 26.1436
Au 12.5571 18.5854 27.088
Au 14.481 20.7396 27.8058
Au 16.09 22.8379 28.6002
Au 18.0248 24.8368 29.4208
Au 19.6827 27.225 30.1835
Au 21.5468 29.2351 31.0793
Au 23.0639 31.3694 31.5238
Au 9.44377 10.6033 23.9634
Au 11.3889 12.5071 24.6586
Au 13.0707 14.6183 25.5501
Au 14.7796 16.9617 26.1154
Au 16.686 19.0545 26.7689
Au 18.3183 21.1668 27.7949
Au 20.2647 23.4272 28.4227
Au 21.8769 25.7903 29.2612
Au 23.8207 27.8428 30.063
Au 25.2684 29.8409 31.0262
Au 11.8348 9.0841 22.7921
Au 13.6904 11.0788 23.5542
Au 15.4823 13.1471 24.5042
Au 17.1695 15.2433 25.1292
Au 19.0113 17.6989 26.018
Au 20.592 19.8801 26.8589
Au 22.3972 21.9674 27.3921
Au 24.1167 23.9486 28.3577
Au 26.0044 26.1942 29.2259
Au 27.6481 28.4236 29.9386
Au 14.2354 7.65844 22.0375
Au 16.0417 9.35145 22.7718
Au 17.7408 11.6488 23.5539
Au 19.5716 13.8952 24.4467
Au 21.2342 16.1151 25.1143
Au 22.9515 18.2552 25.9554
Au 24.8258 20.4798 26.7226
Au 26.4231 22.5564 27.4271
Au 28.2687 24.6527 28.5194
Au 29.9187 26.697 29.1623
Au 16.5784 6.06786 21.0286
Au 18.3799 8.08242 21.8408
Au 19.9747 10.1362 22.7414
Au 21.7373 12.3612 23.4245
Au 23.5275 14.5334 24.2037
Au 25.3585 16.553 24.8752
Au 27.0332 18.8438 25.4912
Au 28.6584 20.9866 26.4875
Au 30.259 23.0759 27.596
Au 32.1315 25.2475 28.2766
Au 18.7841 4.82032 20.213
Au 20.4709 6.60689 20.8632
Au 22.4347 8.78008 21.9823
Au 23.9615 10.8926 22.4811
Au 25.9107 12.9621 23.1698
Au 27.4375 15.0136 23.8685
Au 29.2838 17.1343 24.8521
Au 30.8101 19.3721 25.6854
Au 32.4793 21.5308 26.4691
Au 34.3183 23.5973 27.1474
Au 22.7011 4.88005 20.092
Au 24.4281 7.16746 20.7625
Au 26.3068 9.31996 21.6817
Au 28.2297 11.5801 22.5327
Au 30.1708 13.4199 23.2657
Au 31.6622 15.7608 23.9772
Au 33.2653 17.9385 24.6286
Au 34.8184 20.0843 25.6571
Au 26.6308 5.91755 20.0879
Au 28.5528 7.95287 20.6675
Au 30.2679 9.90573 21.5095
Au 32.185 11.8444 22.6013
Au 33.6515 14.1789 23.1942
Au 35.2294 16.4516 23.7047
Au 7.17454 16.4506 29.0088
Au 8.54178 18.9684 29.9274
Au 10.4468 21.1207 30.8076
Au 12.2287 23.1454 31.6237
Au 13.8446 25.2203 32.3094
Au 15.6889 27.541 33.0064
Au 17.4733 29.3731 33.9655
Au 7.62263 12.9773 27.3275
Au 9.21776 15.1655 28.2276
Au 10.9506 17.5386 29.2147
Au 12.5582 19.5319 29.7927
Au 14.3308 21.6845 30.6496
Au 16.0364 23.7741 31.2848
Au 17.952 25.9196 32.1477
Au 19.6579 28.0982 32.9307
Au 21.2843 30.1848 33.521
Au 9.45829 11.3783 26.5268
Au 11.374 13.3623 27.358
Au 12.9755 15.7854 28.095
Au 14.7552 17.998 28.7396
Au 16.5216 20.2359 29.6623
Au 18.5059 22.1883 30.2898
Au 20.2186 24.3864 31.1199
Au 21.87 26.4956 32.0076
Au 23.6918 28.6009 32.7323
Au 11.9973 9.83657 25.4549
Au 13.7265 11.9114 26.3549
Au 15.3655 14.2854 27.1706
Au 17.1314 16.6295 27.9933
Au 18.8298 18.7119 28.773
Au 20.6713 20.6197 29.6111
Au 22.4145 22.8162 30.2181
Au 23.9522 24.9751 31.0325
Au 25.9078 27.0751 31.8431
Au 14.2379 8.54317 24.6124
Au 15.9136 10.4322 25.4295
Au 17.5997 12.7263 26.2537
Au 19.2985 14.9595 27.0299
Au 21.2123 16.9564 27.7849
Au 22.9247 19.2674 28.4705
Au 24.658 21.301 29.4776
Au 26.2954 23.5508 30.3445
Au 28.0714 25.909 31.0502
Au 16.4886 6.85062 23.8125
Au 18.0569 8.95952 24.7247
Au 19.8994 11.3153 25.4677
Au 21.7004 13.4626 26.1439
Au 23.5245 15.6826 26.77
Au 25.1607 17.8648 27.56
Au 26.8857 19.9179 28.4418
Au 28.5166 22.0174 29.3918
Au 30.4339 24.1245 30.2089
Au 18.7299 5.56258 22.8379
Au 20.4023 7.61013 23.7002
Au 22.1814 9.84973 24.5336
Au 24.03 11.8328 25.1482
Au 25.7882 14.1555 26.0222
Au 27.5963 16.0451 26.5241
Au 29.1521 18.2594 27.5214
Au 30.6566 20.3659 28.363
Au 32.5566 22.5106 29.0274
Au 20.816 4.06701 22.0264
Au 22.7227 6.12492 22.575
Au 24.4666 8.1241 23.7828
Au 26.3406 10.363 24.4241
Au 28.1564 12.4568 25.2605
Au 29.9344 14.4747 25.8646
Au 31.5466 16.6313 26.727
Au 33.0351 18.9387 27.3463
Au 34.8273 20.9473 28.1918
Au 24.7749 4.53615 21.7829
Au 26.7263 6.67722 22.7712
Au 28.4665 8.88213 23.3961
Au 30.2477 10.87 24.3067
Au 32.3613 12.9088 25.1429
Au 33.6394 15.2847 25.833
Au 35.1796 17.507 26.3651
Au 7.76376 13.8962 29.8
Au 9.16753 16.3202 30.8231
Au 10.8565 18.2963 31.8395
Au 12.5814 20.4079 32.3767
Au 14.4906 22.5284 33.3513
Au 16.1571 24.7934 33.9718
Au 17.6118 26.9568 34.9591
Au 19.5433 29.1345 35.3833
Au 9.73247 12.3711 29.1045
Au 11.3636 14.5738 30.1343
Au 12.9841 16.7943 30.8697
Au 14.7633 18.8149 31.5083
Au 16.4902 21.0161 32.3738
Au 18.2547 23.3557 33.0133
Au 20.1687 25.374 33.8536
Au 21.8632 27.8013 34.6255
Au 12.1321 10.8852 28.2802
Au 13.6191 13.0125 29.0229
Au 15.4372 15.3228 29.7141
Au 17.0833 17.4847 30.7499
Au 18.914 19.4707 31.3526
Au 20.6247 21.5995 32.2205
Au 22.3443 24.043 33.2711
Au 23.973 26.0384 33.7702
Au 14.3243 9.32532 27.4149
Au 15.9219 11.6616 28.0644
Au 17.4551 13.8695 28.8541
Au 19.3379 15.9019 29.7183
Au 20.9215 17.8954 30.4487
Au 22.7764 19.8565 31.2038
Au 24.4912 22.2872 32.0414
Au 26.1938 24.6028 32.8417
Au 16.46 7.80031 26.5955
Au 18.1566 10.1029 27.2894
Au 19.9806 12.2479 28.016
Au 21.7653 14.4751 28.8285
Au 23.3292 16.752 29.3919
Au 25.1062 18.6195 30.3239
Au 26.8199 20.6117 31.289
Au 28.5459 23.1668 32.0508
Au 18.5814 6.49847 25.7078
Au 20.3365 8.67015 26.4184
Au 22.2005 10.8502 27.0668
Au 24.0752 12.8748 27.9457
Au 25.5439 15.0909 28.6864
Au 27.3807 17.1377 29.2753
Au 29.0438 19.3232 30.2588
Au 30.7458 21.5235 31.108
Au 20.7387 4.85081 24.7844
Au 22.5805 6.94866 25.3791
Au 24.4198 9.25678 26.2399
Au 26.4094 11.1479 27.2081
Au 27.8933 13.5095 27.7156
Au 29.6737 15.615 28.4843
Au 31.3575 17.7158 29.347
Au 32.8402 19.8401 29.9831
Au 22.9601 3.76114 23.752
Au 24.7612 5.41928 24.3078
Au 26.5941 7.76142 25.2905
Au 28.5582 9.8381 26.1415
Au 30.15 12.0793 26.8518
Au 31.8179 13.9981 27.8395
Au 33.7286 16.2086 28.3957
Au 35.0927 18.3867 29.1224
Au 9.74672 13.3369 31.5724
Au 11.0804 15.5505 32.7563
Au 12.847 17.6264 33.3858
Au 14.7659 19.8521 34.202
Au 16.6441 21.9705 34.8958
Au 18.2177 24.5225 35.6631
Au 20.1222 26.4992 36.4389
Au 11.768 11.845 30.9202
Au 13.6558 14.2243 31.8478
Au 15.2233 16.2496 32.5178
Au 17.1835 18.3914 33.3804
Au 18.9092 20.3826 34.0605
Au 20.4384 22.667 34.7532
Au 22.3609 25.0742 35.9095
Au 14.1542 10.5256 30.0469
Au 15.9046 12.813 30.9248
Au 17.6442 14.8166 31.7233
Au 19.4272 16.8151 32.5266
Au 21.2752 18.86 33.2187
Au 22.858 21.1401 33.8923
Au 24.5748 23.3797 34.5574
Au 16.4011 9.21537 29.393
Au 18.151 11.3163 30.0113
Au 19.8901 13.2468 30.8018
Au 21.7799 15.3034 31.5691
Au 23.2045 17.4792 32.3756
Au 25.0274 19.5196 32.9516
Au 26.6023 21.7187 33.7369
Au 18.8122 7.55016 28.4186
Au 20.4143 9.65674 29.1092
Au 22.2155 11.6837 29.7985
Au 23.9766 13.8361 30.6192
Au 25.5441 16.0523 31.3262
Au 27.26 17.9519 32.1347
Au 28.9666 20.2897 32.7577
Au 20.8257 5.95617 27.4497
Au 22.6099 8.20613 27.9572
Au 24.2275 10.2278 28.7067
Au 26.1608 12.4158 29.8125
Au 27.7422 14.464 30.5292
Au 29.5294 16.5724 31.1401
Au 31.0475 18.7021 32.027
Au 23.081 4.56462 26.3001
Au 24.8819 6.64345 27.1923
Au 26.6722 8.60062 28.0559
Au 28.5129 10.7689 28.8423
Au 29.9197 13.1017 29.5791
Au 31.7556 15.0082 30.426
Au 33.204 17.1786 30.9823
Au 11.8036 13.001 33.3937
Au 13.5102 15.1552 34.3581
Au 15.1707 17.1351 35.117
Au 17.2186 19.4543 35.8606
Au 18.6043 21.8648 36.6402
Au 20.3629 23.8414 37.0966
Au 14.1058 11.7499 32.7221
Au 15.8359 13.946 33.6093
Au 17.5049 15.7173 34.207
Au 19.4687 17.7965 35.1451
Au 20.8103 20.2678 35.9042
Au 22.5686 22.3791 36.3198
Au 16.3331 10.371 32.0395
Au 18.1594 12.4665 32.848
Au 20.0114 14.4108 33.3751
Au 21.6322 16.5082 34.3364
Au 23.3335 18.4611 34.8881
Au 24.7097 20.5945 35.5057
Au 18.7476 8.92433 30.9096
Au 20.2086 10.8509 31.8452
Au 22.0446 12.7418 32.4812