111
 Atoms. Timestep: 50000
Au 21.2383 17.7833 26.7558
Au 20.7879 18.6989 24.3534
Au 20.291 19.632 21.5944
Au 20.0384 20.8511 19.0594
Au 20.0072 22.1879 16.566
Au 19.8572 23.4895 14.0703
Au 18.5757 18.0497 25.8415
Au 18.209 19.0661 23.3315
Au 17.8684 20.1987 20.5429
Au 17.6487 21.5846 17.9862
Au 17.5017 22.6285 15.4358
Au 20.3337 20.1756 26.5803
Au 19.8584 21.3827 24.2158
Au 19.7509 22.378 21.3865
Au 19.5182 23.7199 18.9051
Au 19.4477 24.8685 16.4179
Au 22.958 19.6145 25.9385
Au 22.631 20.4498 23.2003
Au 22.3216 21.6701 20.8204
Au 22.2536 22.8187 18.2046
Au 21.9874 23.9197 15.5577
Au 23.0596 16.9838 24.8091
Au 22.6922 17.7819 22.1863
Au 22.2447 18.9311 19.5836
Au 22.038 20.358 16.9685
Au 21.7864 21.6617 14.4059
Au 20.4392 16.0314 24.7435
Au 20.0073 16.7791 22.1539
Au 19.4339 17.8529 19.3842
Au 19.1868 19.4927 16.7385
Au 19.0474 20.8109 14.2808
Au 16.0537 18.6709 24.8471
Au 15.6607 19.7629 22.1714
Au 15.4141 20.8162 19.462
Au 15.1922 21.9197 16.8685
Au 17.6516 20.6534 25.6695
Au 17.2796 21.8652 22.9406
Au 17.0893 22.9373 20.2935
Au 17.0032 24.2802 17.683
Au 19.1406 22.8366 26.3701
Au 19.0316 23.9908 23.8162
Au 18.7984 25.1458 21.2008
Au 18.7161 26.1801 18.7254
Au 22.0083 22.1273 25.6666
Au 21.8168 23.2126 23.1264
Au 21.6978 24.4498 20.4917
Au 21.5322 25.562 17.9554
Au 24.6296 21.5185 25.1167
Au 24.4096 22.4328 22.5228
Au 24.3663 23.7908 19.7816
Au 24.028 24.6603 17.3343
Au 24.8235 18.8716 23.9598
Au 24.6905 19.7516 21.2373
Au 24.2772 20.9677 18.8833
Au 23.974 22.0517 16.2069
Au 24.7298 16.277 22.8248
Au 24.6946 17.1931 20.034
Au 24.0218 18.4873 17.5093
Au 23.8262 19.6314 14.8451
Au 22.1432 15.2349 22.8231
Au 21.6636 16.2782 19.8224
Au 21.3425 17.8005 17.0756
Au 21.1845 18.8893 14.6847
Au 19.2175 14.367 22.9753
Au 18.3251 15.2301 20.6057
Au 18.8858 16.6344 16.7348
Au 18.4189 18.2178 14.499
Au 17.6567 16.4771 23.6607
Au 17.3222 17.711 21.1414
Au 17.0376 18.6045 18.4453
Au 16.7603 19.937 15.6493
Au 15.1338 21.0758 24.7325
Au 14.6795 22.2512 21.7847
Au 14.789 23.5935 18.9774
Au 16.9237 23.3208 25.2607
Au 16.6105 24.6595 22.8031
Au 16.4219 25.6704 19.9879
Au 21.0847 24.7207 25.343
Au 20.8673 25.8784 22.865
Au 20.8021 27.0602 20.2692
Au 23.791 24.0461 24.6351
Au 23.8313 25.2231 22.2956
Au 23.495 26.2384 19.5598
Au 26.5328 20.6689 22.8736
Au 26.4301 21.9607 20.5545
Au 26.1539 22.733 17.8118
Au 26.5122 17.9686 22.0408
Au 26.2277 18.9953 18.9357
Au 25.8634 20.2687 16.6036
Au 23.6846 14.9133 20.4596
Au 23.5868 16.0104 17.8717
Au 23.0819 16.9858 15.0935
Au 20.692 13.8708 20.8853
Au 19.4827 14.6467 18.4181
Au 20.4242 16.3878 14.3517
Au 16.6386 14.6073 22.4018
Au 16.9444 15.6838 18.4166
Au 16.2303 17.414 16.1356
Au 15.2939 17.0066 22.6767
Au 14.503 18.3469 20.2316
Au 14.5646 19.362 17.4299
Au 14.4762 23.4649 23.9962
Au 14.436 24.7154 21.3716
Au 22.8678 26.5791 24.342
Au 22.738 27.6924 21.7046
Au 27.8425 19.7973 20.8989
Au 27.8912 20.954 18.4927
Au 21.9972 13.9195 18.4935
Au 21.1622 15.2195 16.5337
Au 15.1923 15.748 20.459
Au 14.4304 16.9087 18.1669
