1103
 Atoms. Timestep: 50000
Au 21.6582 13.4133 36.0105
Au 21.5071 14.4803 33.6864
Au 21.3447 15.7378 30.8532
Au 21.2505 16.7343 28.2615
Au 21.0705 17.8885 25.7322
Au 20.5716 19.1136 23.1863
Au 20.4375 20.4068 20.3618
Au 20.1071 21.5395 17.7109
Au 19.9339 22.9015 15.025
Au 19.5064 23.8747 12.2761
Au 19.4586 25.0976 9.66629
Au 19.1313 26.3601 7.1447
Au 18.9343 27.3028 4.71978
Au 19.1424 13.9871 35.1089
Au 19.0903 14.9858 32.3865
Au 18.8584 16.2047 29.7641
Au 18.5202 17.4887 27.15
Au 18.2868 18.6697 24.5968
Au 17.9055 19.7906 21.8625
Au 17.857 20.8894 19.2792
Au 17.3964 22.1483 16.622
Au 17.3575 23.2332 13.8605
Au 16.972 24.6175 11.2913
Au 16.9986 25.702 8.53939
Au 16.5782 27.0305 5.95919
Au 20.846 16.0255 35.9003
Au 20.795 17.2422 33.2454
Au 20.6752 18.4109 30.5528
Au 20.457 19.5689 28.1562
Au 20.0445 20.6421 25.4896
Au 19.8504 21.6949 22.8756
Au 19.6741 23.135 20.0382
Au 19.2558 24.3892 17.2784
Au 19.2173 25.4884 14.6984
Au 18.9512 26.7482 12.0747
Au 18.5104 27.8638 9.54535
Au 18.1206 29.1332 6.97517
Au 23.5329 15.2675 35.2273
Au 23.6374 16.4703 32.8201
Au 23.1271 17.668 30.0924
Au 23.0359 18.7362 27.3986
Au 22.7808 19.9048 24.7085
Au 22.4352 21.0828 22.1126
Au 22.4001 22.436 19.4012
Au 21.992 23.4614 16.6653
Au 21.8353 24.5645 13.754
Au 21.5801 25.886 11.3706
Au 21.1707 27.1818 8.90984
Au 20.9194 28.222 6.3722
Au 23.6043 12.8178 34.1583
Au 23.3374 13.7692 31.6618
Au 23.253 14.9054 28.8941
Au 23.0208 16.0195 26.1771
Au 23.0628 17.3768 23.5712
Au 22.4812 18.4412 20.9844
Au 22.3188 19.7328 18.2549
Au 22.0397 20.9304 15.4955
Au 21.6783 22.0696 12.9477
Au 21.5688 23.1216 10.2829
Au 21.0966 24.4095 7.59571
Au 20.8877 25.3386 4.98832
Au 20.8724 11.861 33.793
Au 20.7685 12.9646 31.4761
Au 20.6632 14.078 28.7169
Au 20.2451 15.2311 26.2031
Au 20.1386 16.4058 23.4329
Au 19.8105 17.616 20.6871
Au 19.3092 18.8698 18.0846
Au 19.2231 20.21 15.4355
Au 18.8917 21.1116 12.7186
Au 18.5427 22.4542 10.1819
Au 18.2742 23.4486 7.3199
Au 18.0849 24.7891 4.89321
Au 16.8149 14.2961 33.9913
Au 16.4439 15.4628 31.5492
Au 16.1728 16.7095 28.8951
Au 15.8668 18.2178 26.2127
Au 15.8679 19.314 23.562
Au 15.4334 20.3703 20.8591
Au 15.0159 21.6053 18.2034
Au 14.8788 22.7219 15.3349
Au 14.738 24.0167 12.9359
Au 14.3919 25.3616 10.3634
Au 14.2986 26.2886 8.01027
Au 18.4276 16.5539 34.7163
Au 18.1831 17.7517 32.3349
Au 18.0677 19.0097 29.6059
Au 17.7724 20.1737 26.9625
Au 17.4823 21.3953 24.3168
Au 17.2019 22.3968 21.5832
Au 17.163 23.6578 18.9681
Au 16.7068 24.838 16.216
Au 16.4675 26.1392 13.7242
Au 16.261 27.2353 11.189
Au 16.0007 28.3797 8.69897
Au 19.9526 18.5687 35.7193
Au 19.8398 19.8783 33.0844
Au 19.7281 21.1166 30.7215
Au 19.4959 22.2328 28.0198
Au 19.1816 23.4784 25.1631
Au 18.955 24.5289 22.5387
Au 18.8798 25.7922 19.6699
Au 18.4256 26.8794 17.0402
Au 18.1169 28.2304 14.5097
Au 17.8147 29.3341 11.8989
Au 17.6292 30.5947 9.55873
Au 22.6453 17.8965 35.0453
Au 22.6286 19.1643 32.6158
Au 22.5882 20.5909 29.9333
Au 22.323 21.4748 27.1823
Au 21.8687 22.605 24.6034
Au 21.6289 23.7307 21.8939
Au 21.5402 25.1089 19.0306
Au 21.3753 26.1639 16.445
Au 20.9794 27.4202 13.8115
Au 20.72 28.8359 11.1914
Au 20.2931 29.9884 8.64813
Au 25.3517 17.256 34.4668
Au 25.446 18.4353 31.7461
Au 25.1358 19.5675 29.2656
Au 24.8776 20.5944 26.2477
Au 24.6998 21.8765 23.7078
Au 24.5559 23.1527 20.9859
Au 24.2356 24.0555 18.3455
Au 23.8498 25.3284 15.6875
Au 23.6212 26.5206 13.0949
Au 23.3248 27.811 10.6193
Au 22.9065 29.0069 8.12722
Au 25.6112 14.5595 33.4123
Au 25.3555 15.7777 30.8284
Au 25.149 16.8994 28.0839
Au 25.004 17.9483 25.4626
Au 24.9093 19.2735 22.6067
Au 24.4222 20.5229 19.9465
Au 24.1773 21.4254 17.2437
Au 23.9782 22.671 14.6281
Au 23.6388 23.7259 11.8121
Au 23.2965 25.1656 9.30175
Au 22.8498 26.3782 6.71867
Au 25.4784 12.0105 32.1577
Au 25.358 13.2677 29.591
Au 25.0976 14.1724 26.8926
Au 24.7486 15.4288 24.2912
Au 24.61 16.592 21.5595
Au 24.3071 17.8893 18.8874
Au 23.9536 18.8661 16.1813
Au 23.6889 20.0789 13.3539
Au 23.5098 21.2128 10.6224
Au 23.2756 22.5483 8.18287
Au 22.8763 23.552 5.47623
Au 22.8973 11.099 31.9766
Au 22.6711 12.2113 29.3808
Au 22.3468 13.3784 26.6204
Au 22.0215 14.551 24.0353
Au 21.8032 15.7555 21.3172
Au 21.7644 17.0728 18.7008
Au 21.1692 18.1957 15.9876
Au 20.8766 19.1658 13.4639
Au 20.7876 20.4775 10.6988
Au 20.4675 21.8832 7.93451
Au 20.1757 22.8386 5.13086
Au 20.3028 10.1332 31.7657
Au 19.8896 11.4064 29.4901
Au 19.6815 12.5714 26.6977
Au 19.3139 13.7963 23.9241
Au 19.0558 14.7342 21.2417
Au 19.0181 15.978 18.5481
Au 18.4638 17.2851 15.8823
Au 18.1883 18.3419 13.4736
Au 17.9234 19.6119 10.5305
Au 17.6848 20.8174 7.96537
Au 17.3643 21.9057 5.35124
Au 18.324 12.1312 32.7584
Au 18.1469 13.6184 30.2676
Au 17.8177 14.6031 27.6661
Au 17.66 15.9311 25.1422
Au 17.5339 17.0567 22.4364
Au 17.0485 18.2561 19.7995
Au 16.9077 19.5128 16.9749
Au 16.6165 20.6089 14.347
Au 16.3037 21.8639 11.5971
Au 16.05 23.219 9.04883
Au 15.8637 24.1757 6.36132
Au 14.1479 15.1349 32.8133
Au 13.9457 16.1491 30.5154
Au 13.5292 17.32 27.6457
Au 13.4181 18.6717 25.0747
Au 13.1852 19.6879 22.4389
Au 12.6443 20.9502 19.8277
Au 12.6052 22.0837 17.0825
Au 12.3794 23.3603 14.3072
Au 12.0682 24.6709 11.7547
Au 11.8495 25.7606 9.26239
Au 15.8153 16.9329 33.7605
Au 15.728 18.3263 31.2185
Au 15.2477 19.6056 28.5697
Au 15.1116 20.8834 25.8602
Au 14.7508 21.9077 23.1173
Au 14.6128 23.1016 20.4026
Au 14.2525 24.25 17.8889
Au 14.0416 25.2554 15.2159
Au 13.9276 26.6473 12.6645
Au 13.5409 27.9136 9.96912
Au 17.5784 19.4001 34.6783
Au 17.3255 20.5392 32.0699
Au 17.1952 21.5095 29.4775
Au 16.9075 22.8386 26.7866
Au 16.6561 23.9536 23.749
Au 16.59 25.1523 21.1337
Au 16.1164 26.3051 18.845
Au 15.5965 27.5158 15.9854
Au 15.3755 28.8753 13.4199
Au 15.1849 29.8917 10.952
Au 19.5262 21.5829 35.2549
Au 19.2781 22.7195 32.9269
Au 18.9573 23.8152 30.1759
Au 18.7348 24.9854 27.6061
Au 18.5837 26.0853 24.7406
Au 18.2536 27.2014 22.1507
Au 18.0325 28.355 19.5236
Au 17.7314 29.6462 16.8497
Au 17.2752 31.0603 14.2813
Au 17.017 31.9882 11.8424
Au 21.9696 20.5218 34.7853
Au 21.8358 21.7554 32.4827
Au 21.6195 23.1314 29.6447
Au 21.4124 24.1591 26.9936
Au 21.141 25.2659 24.345
Au 20.906 26.5499 21.5987
Au 20.7798 27.7049 18.8994
Au 20.2811 28.9901 16.0075
Au 19.9293 30.1914 13.6493
Au 19.7929 31.2887 10.8894
Au 24.7727 19.8472 34.4297
Au 24.5323 21.035 31.758
Au 24.2588 22.3265 28.8835
Au 24.2602 23.3255 26.2955
Au 23.9108 24.486 23.5209
Au 23.5935 25.5807 20.9351
Au 23.505 26.8596 18.1179
Au 23.31 28.1451 15.4269
Au 22.6793 29.4528 12.8144
Au 22.5524 30.5193 10.1865
Au 27.3668 19.2755 33.4451
Au 27.2647 20.2284 30.9197
Au 26.9955 21.4272 28.0645
Au 26.9902 22.5255 25.3895
Au 26.5896 23.7911 22.9353
Au 26.3753 24.9922 20.3247
Au 26.143 26.0174 17.622
Au 25.9545 27.1775 14.9606
Au 25.4197 28.4565 12.4071
Au 25.2289 29.5952 9.8118
Au 27.5083 16.6675 32.3579
Au 27.2553 17.6486 29.6609
Au 27.0819 18.7577 26.901
Au 27.0472 19.9702 24.3208
Au 26.6607 21.0681 21.5405
Au 26.2442 22.3105 18.8289
Au 26.059 23.5245 16.2761
Au 25.8391 24.7606 13.7373
Au 25.4711 25.9257 11.1074
Au 25.0501 27.1177 8.47722
Au 27.3866 13.9849 31.404
Au 27.1528 15.0572 28.6646
Au 26.9825 16.1389 26.0772
Au 26.8582 17.3397 23.1964
Au 26.4082 18.5293 20.4843
Au 26.1325 19.5747 17.8328
Au 25.9834 20.8207 15.2622
Au 25.6448 22.1112 12.5276
Au 25.3879 23.2528 9.67803
Au 25.184 24.41 7.38988
Au 27.3817 11.3685 29.8115
Au 27.1946 12.5018 27.316
Au 26.9258 13.6029 24.6204
Au 26.7683 14.9074 21.9894
Au 26.3652 15.9035 19.1789
Au 26.212 17.1928 16.6381
Au 25.9101 18.3097 14.1835
Au 25.7359 19.5837 11.3301
Au 25.239 20.6034 8.5211
Au 25.0298 21.9764 6.03643
Au 24.8171 10.4216 29.8397
Au 24.4895 11.6258 27.2156
Au 24.14 12.5444 24.5157
Au 23.9754 13.8726 21.875
Au 23.7429 15.0096 19.2176
Au 23.2612 16.3066 16.5084
Au 22.9673 17.4504 13.9317
Au 22.8107 18.5066 11.2433
Au 22.3868 19.7854 8.54628
Au 22.1094 21.1084 5.97065
Au 21.9177 9.52839 29.6609
Au 21.6916 10.6047 27.144
Au 21.4183 11.8637 24.4671
Au 21.3228 13.0413 21.8082
Au 21.036 14.1576 19.1346
Au 20.5437 15.3846 16.4632
Au 20.1464 16.5439 13.9238
Au 20.0557 17.6217 11.1791
Au 19.6867 19.0151 8.51973
Au 19.281 20.1882 5.79218
Au 19.38 8.5655 29.7376
Au 18.9331 9.81162 27.2265
Au 18.6942 10.9443 24.3884
Au 18.566 12.1123 21.9162
Au 18.1388 13.419 19.1384
Au 17.8245 14.4472 16.3438
Au 17.2771 15.6787 13.7897
Au 17.0881 17.0713 11.1879
Au 16.9142 18.1975 8.46928
Au 16.7855 19.2683 6.09284
Au 17.6276 10.628 30.6812
Au 17.2947 11.851 28.2245
Au 16.9721 13.0589 25.4586
Au 16.692 14.2775 22.9027
Au 16.5517 15.6341 20.201
Au 16.2481 16.6874 17.4401
Au 15.7266 17.8595 14.5622
Au 15.6766 19.2311 11.9324
Au 15.2887 20.3534 9.28531
Au 15.3491 21.6251 6.90128
Au 15.7593 12.7123 31.7058
Au 15.4209 13.8848 29.0228
Au 15.1966 15.3995 26.6337
Au 15.0196 16.6044 24.0846
Au 14.9474 17.6237 21.5643
Au 14.5201 18.7456 18.7489
Au 14.0463 19.9186 16.0394
Au 14.0192 21.2021 13.3819
Au 13.7489 22.5297 10.8404
Au 13.5234 23.7025 8.37002
Au 11.5748 15.4214 31.845
Au 11.3186 16.7242 29.4008
Au 10.9727 18.0616 26.737
Au 10.7058 19.0308 24.0331
Au 10.4273 20.3298 21.5164
Au 10.2156 21.6151 18.7996
Au 10.0939 22.7009 16.0951
Au 9.60744 24.1031 13.3395
Au 9.51599 25.0715 10.8261
Au 13.2738 17.7639 32.8757
Au 13.0482 18.764 30.2859
Au 12.7014 20.0831 27.473
Au 12.6548 21.3432 24.603
Au 12.266 22.6916 21.977
Au 12.1635 23.7025 19.4265
Au 11.872 24.897 16.7248
Au 11.3235 26.2515 14.026
Au 11.2581 27.2453 11.3756
Au 15.0365 19.8332 33.455
Au 14.7542 20.956 31.0261
Au 14.5257 22.3168 28.2928
Au 14.5305 23.6083 25.4583
Au 14.1987 24.7147 22.6693
Au 13.6756 25.8368 20.2192
Au 13.4337 27.1683 17.6948
Au 13.0164 28.1169 15.0185
Au 12.977 29.197 12.4295
Au 16.8976 22.0232 34.1663
Au 16.6143 23.1512 31.5869
Au 16.3544 24.442 29.0011
Au 16.2766 25.5499 26.3452
Au 15.9285 26.6591 23.7804
Au 15.4494 27.8865 21.2574
Au 15.5153 28.9885 18.4282
Au 14.8871 30.1976 15.8539
Au 14.7216 31.5224 13.2842
Au 18.6511 24.4125 34.9022
Au 18.4318 25.4434 32.3824
Au 17.9914 26.5841 29.6288
Au 17.7991 27.813 27.1465
Au 17.7012 28.8718 24.5041
Au 17.4498 29.9241 21.9609
Au 17.2008 31.3672 19.1778
Au 16.6376 32.4174 16.5134
Au 16.3603 33.604 13.9521
Au 21.2415 23.451 34.7492
Au 21.1318 24.7214 31.9735
Au 20.913 25.8432 29.1201
Au 20.5006 26.9418 26.5702
Au 20.4578 28.0137 23.7623
Au 20.2192 29.2543 21.1098
Au 19.8158 30.4869 18.3831
Au 19.5216 31.6916 15.9406
Au 19.4095 32.8481 13.3493
Au 23.8679 22.5999 34.0481
Au 23.6899 23.7159 31.3782
Au 23.6179 24.9424 28.5648
Au 23.285 25.949 25.9674
Au 23.151 27.1802 23.3306
Au 22.8119 28.3908 20.7624
Au 22.5527 29.4787 17.8583
Au 22.2191 30.9311 15.1869
Au 22.0574 32.0138 12.709
Au 26.8252 21.8375 33.1674
Au 26.4911 22.7841 30.5623
Au 26.2383 24.112 27.9041
Au 26.0485 25.4385 25.0371
Au 25.577 26.6662 22.422
Au 25.6048 27.7215 19.868
Au 25.4134 28.9069 17.1766
Au 24.9252 30.0283 14.5958
Au 24.633 31.3519 12.2657
Au 29.5565 21.1184 32.4432
Au 29.2063 22.273 29.9153
Au 29.095 23.445 27.1187
Au 28.6723 24.6583 24.547
Au 28.4761 25.8875 21.9324
Au 28.3018 26.9986 19.4556
Au 28.0666 28.0912 16.7466
Au 27.8191 29.438 14.0636
Au 27.2088 30.2935 11.6349
Au 29.3975 18.5437 31.2547
Au 29.2399 19.5507 28.5973
Au 29.0236 20.7648 26.116
Au 28.7757 21.88 23.1273
Au 28.4653 23.0249 20.7537
Au 28.3008 24.1182 18.0647
Au 27.9692 25.4115 15.5613
Au 27.7686 26.788 12.7857
Au 27.1046 27.8828 10.1848
Au 29.4558 15.7339 30.3507
Au 29.3166 16.8737 27.7224
Au 28.9989 18.0147 24.9264
Au 28.741 19.2274 22.0685
Au 28.4093 20.4954 19.4867
Au 28.0487 21.5826 16.8035
Au 27.9577 22.9118 14.1848
Au 27.5229 24.1918 11.482
Au 27.2629 25.3561 8.91996
Au 29.4377 13.0991 29.424
Au 29.2051 14.2654 26.799
Au 28.878 15.4472 23.7042
Au 28.5111 16.7846 20.9391
Au 28.2179 17.9106 18.3491
Au 28.0449 18.9452 15.7412
Au 27.8387 20.3232 12.9368
Au 27.4964 21.4075 9.99285
Au 27.2147 22.5863 7.55459
Au 29.4418 10.8378 27.7854
Au 29.0168 11.8169 25.1618
Au 28.6197 12.8692 22.2321
Au 28.4363 14.0999 19.8457
Au 28.3271 15.3258 17.2947
Au 28.003 16.229 14.5669
Au 27.7815 17.7114 12.1106
Au 27.4279 18.7426 9.19781
Au 27.2733 20.0646 6.71915
Au 26.5431 9.61541 27.7513
Au 26.3038 10.8651 25.2229
Au 25.9348 11.8526 22.1952
Au 25.7767 13.1297 19.8067
Au 25.6676 14.3925 17.1451
Au 25.1576 15.7155 14.4547
Au 24.9585 16.9031 12.0591
Au 24.5307 17.9621 9.15205
Au 24.2388 19.2918 6.39566
Au 23.8593 8.71084 27.7811
Au 23.6213 9.94611 25.1744
Au 23.3046 10.8061 22.3976
Au 22.8372 12.2068 19.748
Au 22.6912 13.6628 17.1256
Au 22.3734 14.8375 14.4805
Au 22.1075 15.8869 11.9382
Au 21.7038 16.9277 9.10612
Au 21.3212 18.4654 6.52733
Au 21.0418 7.87976 27.6128
Au 20.8193 8.93935 24.8538
Au 20.5769 10.1536 22.4446
Au 20.2544 11.4145 19.9003
Au 20.0762 12.5278 16.908
Au 19.6529 13.8863 14.286
Au 19.3034 15.0815 11.8323
Au 18.8559 16.2077 9.18492
Au 18.6089 17.3334 6.52823
Au 18.4464 7.12582 27.3835
Au 18.1764 8.19808 24.9876
Au 17.7326 9.39093 22.4123
Au 17.3425 10.7251 19.6668
Au 17.1421 11.805 16.9662
Au 16.7741 12.8821 14.2793
Au 16.5453 13.9803 11.561
Au 16.29 15.3012 9.05877
Au 16.1437 16.4873 6.39026
Au 16.729 8.92417 28.6428
Au 16.5012 10.1887 25.8501
Au 16.0629 11.4348 23.1626
Au 15.8389 12.9018 20.7316
Au 15.7202 13.8498 18.1173
Au 15.2944 15.1525 15.5863
Au 14.7712 16.2383 12.5679
Au 14.4734 17.5357 9.85168
Au 14.2059 18.8785 7.34695
Au 14.9195 11.159 29.6964
Au 14.6879 12.4313 26.8202
Au 14.3304 13.8112 24.4627
Au 14.2031 14.9431 21.8611
Au 13.9973 15.9813 19.025
Au 13.6819 17.2274 16.4422
Au 13.0863 18.5004 13.6596
Au 13.0524 19.6026 11.0236
Au 12.7126 21.0427 8.45573
Au 13.3049 13.2618 30.7803
Au 12.9927 14.7299 28.2526
Au 12.6013 15.7864 25.6642
Au 12.5028 16.8785 22.9965
Au 12.3343 18.0075 20.339
Au 11.8276 19.2771 17.796
Au 11.5325 20.4377 14.7104
Au 11.407 21.7964 12.128
Au 11.1816 22.9931 9.81765
Au 9.14235 15.9608 30.6497
Au 8.7993 17.2428 28.0068
Au 8.55639 18.6038 25.5435
Au 8.17681 19.6503 22.8734
Au 7.9064 20.8973 20.3298
Au 7.74679 22.0155 17.8358
Au 7.60538 23.1269 15.0709
Au 7.12168 24.4405 12.4852
Au 10.6221 18.0383 31.7464
Au 10.6738 19.4506 29.0016
Au 10.3667 20.9023 26.4181
Au 10.2232 21.9458 23.8471
Au 9.79846 23.2374 21.1756
Au 9.56113 24.2968 18.4883
Au 9.14001 25.4617 15.709
Au 8.85551 26.6852 13.2932
Au 12.3427 20.253 32.6049
Au 12.4697 21.66 30.0333
Au 11.9698 22.8475 27.0994
Au 11.8246 24.1072 24.4983
Au 11.3438 25.3746 21.7881
Au 11.197 26.4296 18.9381
Au 10.8212 27.5667 16.5335
Au 10.4112 28.8393 13.9516
Au 14.3811 22.53 33.1476
Au 14.0206 23.8518 30.5688
Au 13.8773 24.8246 27.8066
Au 13.491 26.2143 25.3161
Au 13.206 27.268 22.7539
Au 13.0174 28.5996 19.9091
Au 12.632 29.7105 17.3824
Au 12.4752 30.8441 14.7944
Au 16.189 24.8089 34.0494
Au 15.7765 25.9805 31.4661
Au 15.3719 27.1085 28.5133
Au 15.213 28.2606 26.1336
Au 15.2235 29.4003 23.486
Au 14.9647 30.5674 20.8571
Au 14.4296 31.5447 18.1804
Au 14.1222 32.9453 15.7045
Au 17.7709 26.9968 34.5605
Au 17.5028 28.1831 32.0539
Au 17.3016 29.5358 29.8125
Au 17.1463 30.5623 27.1291
Au 16.834 31.5159 24.3061
Au 16.5154 32.6499 21.7027
Au 16.1363 34.0361 18.978
Au 16.0023 35.0354 16.3423
Au 20.7389 26.1256 34.2037
Au 20.2679 27.3181 31.3236
Au 20.0847 28.5406 28.9213
Au 19.8503 29.5699 26.329
Au 19.5502 30.7504 23.7027
Au 19.2405 31.9091 20.8983
Au 18.8072 33.155 18.1744
Au 18.6117 34.2738 15.5609
Au 23.1026 25.328 33.5041
Au 23.0628 26.5048 30.9612
Au 22.7325 27.6241 28.0448
Au 22.4087 28.7944 25.4111
Au 22.2435 30.0979 22.9599
Au 22.033 31.0875 20.3664
Au 21.7744 32.3496 17.7491
Au 21.4632 33.6738 15.1756
Au 25.7304 24.4466 32.7968
Au 25.7923 25.8129 30.1906
Au 25.4135 26.7634 27.3938
Au 25.3623 28.2399 24.846
Au 24.9672 29.3769 22.459
Au 24.5463 30.3684 19.5203
Au 24.353 31.5631 16.9239
Au 24.1335 32.881 14.5524
Au 28.5978 23.8005 32.2122
Au 28.3884 25.0679 29.8711
Au 28.0583 26.0738 26.9606
Au 27.9725 27.3362 24.3345
Au 27.5432 28.4499 21.6645
Au 27.3342 29.5888 19.1787
Au 26.9347 30.9978 16.218
Au 26.8628 32.1239 13.7482
Au 31.2017 23.0631 31.4841
Au 31.0819 24.1949 28.8268
Au 30.7973 25.5371 26.3039
Au 30.6331 26.7018 23.7027
Au 30.4824 27.8851 21.1516
Au 30.2657 28.8399 18.4767
Au 29.7829 30.1916 15.8116
Au 29.3424 31.5256 13.2323
Au 31.3499 20.559 30.5301
Au 31.0551 21.4754 27.8411
Au 30.7098 22.675 25.0908
Au 30.4371 23.9855 22.5185
Au 30.415 24.955 19.9303
Au 29.981 26.1358 17.3522
Au 29.7566 27.4336 14.4342
Au 29.5493 28.7091 11.7116
Au 31.3295 17.7087 29.4256
Au 31.0589 18.7439 26.6321
Au 30.7672 19.8781 23.908
Au 30.5485 21.2486 21.1191
Au 30.4032 22.3934 18.6454
Au 29.9539 23.5066 15.8205
Au 29.713 24.826 13.1577
Au 29.4175 26.0314 10.683
Au 31.4021 15.1786 28.1262
Au 31.0698 16.3191 25.3599
Au 30.7667 17.5033 22.616
Au 30.5864 18.6381 20.0269
Au 30.1883 19.8859 17.3437
Au 29.9106 20.8547 14.6841
Au 29.634 22.2768 11.9138
Au 29.1246 23.3407 9.35069
Au 31.2297 12.6509 26.8128
Au 30.8681 13.6742 24.2994
Au 30.7192 14.8843 21.5466
Au 30.3494 16.0715 18.9436
Au 30.1819 17.2341 16.1993
Au 29.9651 18.1794 13.8274
Au 29.4973 19.4913 10.7857
Au 29.4686 20.8681 8.08611
Au 31.1151 9.97721 25.4709
Au 30.8963 10.9376 23.1153
Au 30.5243 12.1916 20.1564
Au 30.3537 13.3629 17.6256
Au 30.2427 14.3108 15.1022
Au 29.76 15.3874 12.5308
Au 29.5222 16.9234 9.83344
Au 29.1219 18.1473 7.28458
Au 28.5153 9.23528 25.6901
Au 28.2416 10.1118 23.0791
Au 27.7583 11.1961 20.2628
Au 27.6179 12.5063 17.7108
Au 27.2586 13.5153 14.9598
Au 26.9025 14.87 12.4285
Au 26.5643 16.1136 9.87097
Au 26.3852 17.3205 7.16531
Au 25.6721 8.17241 25.727
Au 25.5242 9.17668 23.0206
Au 25.0631 10.4623 20.136
Au 24.7256 11.7299 17.562
Au 24.5595 12.7891 14.9584
Au 24.2729 14.0998 12.4549
Au 23.8063 15.3875 9.74291
Au 23.4814 16.4408 7.15589
Au 22.762 7.06278 25.5921
Au 22.7508 8.12631 22.9477
Au 22.079 9.39461 20.1875
Au 22.0089 10.8408 17.5294
Au 21.8562 11.8981 14.8552
Au 21.4436 13.0914 12.3584
Au 20.9619 14.3931 9.64014
Au 20.5806 15.5654 7.07104
Au 20.0633 6.16276 25.3889
Au 19.7024 7.41341 22.8
Au 19.4347 8.64649 20.1676
Au 19.1967 9.93182 17.7206
Au 19.0574 11.2347 14.7699
Au 18.6658 12.4193 12.2535
Au 18.3307 13.4055 9.43522
Au 18.1866 14.5435 6.85406
Au 17.36 5.5987 25.3127
Au 16.8925 6.71202 22.6278
Au 16.6619 7.6573 20.0671
Au 16.4425 8.9962 17.6354
Au 16.1539 10.1432 14.8385
Au 15.6837 11.0371 12.2853
Au 15.51 12.5038 9.38886
Au 15.5448 13.9712 6.98945
Au 15.8269 7.56205 26.4346
Au 15.3948 8.72458 23.9313
Au 15.1417 9.96882 21.2325
Au 14.7674 11.2109 18.6197
Au 14.5713 12.1917 16.0028
Au 14.342 13.6246 13.3569
Au 13.8865 14.7642 10.2104
Au 13.7779 15.9457 7.73023
Au 14.185 9.84931 27.4165
Au 13.7246 11.0096 24.8516
Au 13.5198 12.1208 22.2096
Au 13.1475 13.1137 19.6143
Au 12.9805 14.4412 16.9748
Au 12.9219 15.8419 14.3598
Au 12.326 16.9723 11.5191
Au 11.9943 18.1219 8.92374
Au 12.423 11.9647 28.5316
Au 11.9562 13.0262 25.8953
Au 11.7385 14.173 23.2707
Au 11.6356 15.2593 20.652
Au 11.4226 16.6158 18.0909
Au 11.1102 17.6291 15.5851
Au 10.6736 18.9036 12.4322
Au 10.3956 20.2451 10.0117
Au 10.7295 13.7049 29.7632
Au 10.1963 15.0889 27.2209
Au 10.1814 16.3008 24.4014
Au 10.0346 17.5017 21.8385
Au 9.74848 18.896 19.2895
Au 9.49639 20.0451 16.7104
Au 9.02351 21.0166 13.7763
Au 8.79857 22.3752 11.3301
Au 6.65427 16.571 29.6048
Au 6.24664 17.7784 27.1559
Au 5.96792 18.9074 24.5281
Au 5.64488 19.8235 21.8737
Au 5.42853 21.1437 19.4204
Au 5.21375 22.4085 16.9447
Au 5.06724 23.5617 14.1966
Au 8.29372 18.5866 30.3927
Au 7.98602 19.9985 27.9361
Au 7.79198 21.2802 25.3259
Au 7.57309 22.374 22.6536
Au 7.18256 23.6144 20.0027
Au 6.83424 24.7544 17.4578
Au 6.52054 26.0158 14.7759
Au 9.95865 20.9454 31.2565
Au 9.84174 22.1432 28.8325
Au 9.27192 23.5186 26.2797
Au 9.26449 24.6542 23.5546
Au 8.8008 25.8579 20.8363
Au 8.51348 26.9447 18.2712
Au 8.09342 28.0859 15.5886
Au 11.7342 23.0773 32.3254
Au 11.428 24.2873 29.4815
Au 11.2308 25.6429 26.8177
Au 10.8823 26.8956 23.9781
Au 10.5247 27.9624 21.4884
Au 10.3988 29.0753 19.0076
Au 9.85838 30.1556 16.4369
Au 13.4924 25.1785 33.0873
Au 13.1981 26.404 30.2752
Au 12.8485 27.7306 27.6721
Au 12.699 28.9747 25.1045
Au 12.6532 29.8136 22.504
Au 12.1628 31.1395 19.8685
Au 11.771 32.3578 17.2255
Au 15.2933 27.3945 33.7198
Au 15.0791 28.5569 30.9542
Au 14.8758 29.8706 28.4568
Au 14.5114 30.989 25.9042
Au 14.2069 31.9943 23.235
Au 14.0086 33.3283 20.5356
Au 13.6592 34.527 17.8341
Au 17.1858 29.5753 34.2179
Au 16.9397 31.0616 31.9213
Au 16.682 32.1844 29.4787
Au 16.3311 33.175 26.5816
Au 15.9816 34.3039 24.0078
Au 15.6222 35.5234 21.4662
Au 15.3793 36.5177 18.7452
Au 19.7152 28.9158 33.7562
Au 19.6947 30.0766 31.2327
Au 19.2798 31.3494 28.6789
Au 19.1215 32.2181 25.9547
Au 18.7607 33.5794 23.3706
Au 18.5412 34.5355 20.5484
Au 18.1021 35.786 18.0562
Au 22.3347 28.129 33.0329
Au 22.4366 29.1365 30.3388
Au 22.011 30.448 27.8441
Au 21.8614 31.6969 25.2218
Au 21.5733 32.8492 22.7124
Au 21.3034 33.767 20.0452
Au 20.757 34.9578 17.6054
Au 25.2228 27.2526 32.5027
Au 24.9767 28.4725 29.683
Au 24.6342 29.8993 27.1902
Au 24.5104 31.0914 24.5653
Au 24.3245 32.1986 21.9997
Au 23.8775 33.0937 19.4901
Au 23.5061 34.4326 16.9216
Au 27.7169 26.4603 32.1881
Au 27.6772 27.8032 29.3705
Au 27.3442 28.9057 26.6355
Au 27.146 30.0705 23.9846
Au 26.913 31.2171 21.4441
Au 26.5458 32.3159 18.8122
Au 26.1543 33.6809 16.4857
Au 30.5992 25.6592 31.2632
Au 30.3063 26.8958 28.774
Au 29.9982 28.2249 26.0188
Au 29.8822 29.3446 23.4072
Au 29.4503 30.491 20.7995
Au 29.1948 31.6299 18.163
Au 28.8816 32.7951 15.444
Au 33.1251 25.0878 30.3409
Au 33.0451 26.395 27.972
Au 32.6236 27.3091 25.3382
Au 32.6251 28.7762 22.7359
Au 32.3299 29.8903 20.1306
Au 31.933 30.8462 17.4114
Au 31.4708 31.9748 14.9099
Au 33.2102 22.3092 29.4614
Au 32.7039 23.438 26.7309
Au 32.5874 24.6876 24.1489
Au 32.4921 25.7854 21.6611
Au 32.1876 26.9744 18.905
Au 31.616 28.0789 16.2754
Au 31.4011 29.5463 13.5808
Au 33.3004 19.7183 28.371
Au 32.7129 20.8435 25.6555
Au 32.6165 22.0278 22.849
Au 32.5988 23.1406 20.3647
Au 32.2425 24.3298 17.7645
Au 31.7362 25.5435 14.8136
Au 31.3551 26.8368 12.2827
Au 33.1789 16.9845 27.0705
Au 32.8697 18.3144 24.4444
Au 32.8661 19.4207 21.6182
Au 32.6214 20.661 19.2294
Au 32.0661 21.668 16.4258
Au 31.6777 22.9421 13.8698
Au 31.4316 24.1867 11.1265
Au 33.0107 14.5084 26.0194
Au 32.8988 15.6227 23.4186
Au 32.7229 16.6416 20.4847
Au 32.3841 18.0018 17.9261
Au 32.2429 19.1394 15.3498
Au 31.5899 20.1225 12.5837
Au 31.4234 21.3408 10.0567
Au 33.0363 11.9338 24.7741
Au 32.5047 13.0043 22.0419
Au 32.405 14.194 19.3714
Au 32.2236 15.4328 16.933
Au 32.0362 16.2749 14.2863
Au 31.4903 17.5786 11.5965
Au 31.3642 18.7751 8.8011
Au 32.7957 9.20397 23.1827
Au 32.5861 10.3031 20.7465
Au 32.4862 11.3807 18.1652
Au 32.3796 12.6252 15.6935
Au 31.8723 13.5229 12.9553
Au 31.4957 14.7658 10.4015
Au 31.1405 16.2358 7.86037
Au 30.0872 8.07263 23.4536
Au 29.7835 9.44461 20.904
Au 29.5212 10.602 18.2458
Au 29.2135 11.7249 15.5428
Au 28.8869 12.6901 12.8624
Au 28.7279 14.2605 10.3356
Au 28.3324 15.464 7.82377
Au 27.4848 7.27927 23.5737
Au 27.1217 8.52265 20.8174
Au 26.8678 9.72964 17.9422
Au 26.6401 10.7421 15.476
Au 26.222 11.8471 12.8169
Au 25.9156 13.3547 10.1132
Au 25.4816 14.6629 7.73367
Au 24.7571 6.6732 23.5961
Au 24.3407 7.77788 20.707
Au 23.9849 8.96681 18.1019
Au 23.972 10.053 15.3666
Au 23.5967 11.2221 12.8366
Au 23.1557 12.6951 10.1178
Au 22.9404 13.6486 7.68014
Au 21.6864 5.39846 23.0131
Au 21.7883 6.73778 20.5034
Au 21.2501 8.01036 18.0768
Au 21.0306 9.2832 15.222
Au 20.863 10.2874 12.6601
Au 20.5609 11.5892 10.0462
Au 20.2005 12.6744 7.41937
Au 19.0891 4.73993 23.2277
Au 18.8957 6.09099 20.548
Au 18.397 7.16728 17.969
Au 18.1612 8.44471 15.5056
Au 18.1766 9.55219 12.9742
Au 17.6921 10.5887 10.3845
Au 17.2119 11.7263 7.42313
Au 16.2966 4.1606 22.906
Au 16.1313 4.9162 20.363
Au 15.5356 6.22888 17.8487
Au 15.2329 7.53275 15.3237
Au 14.9834 8.54035 12.8243
Au 14.9582 9.76112 10.0757
Au 14.5325 10.764 7.67291
Au 14.6575 5.99118 24.2727
Au 14.4587 7.20794 21.5428
Au 14.073 8.24749 18.9857
Au 13.8186 9.51188 16.7068
Au 13.4803 10.8157 13.9889
Au 13.3853 12.0746 11.2947
Au 12.9855 13.2524 8.23026
Au 13.1349 8.24071 25.3334
Au 12.7707 9.3195 22.8055
Au 12.4879 10.3849 20.183
Au 12.0616 11.6905 17.3387
Au 11.8563 13.0109 14.8967
Au 11.9041 14.2842 12.2651
Au 11.3789 15.2616 9.23074
Au 11.3835 10.2491 26.2444
Au 11.2123 11.5122 23.6686
Au 10.7826 12.3876 21.109
Au 10.6147 13.8259 18.4937
Au 10.3205 14.9809 15.9449
Au 10.2302 16.2266 13.3283
Au 9.74672 17.2106 10.5864
Au 9.84664 12.351 27.3215
Au 9.47891 13.6052 24.7657
Au 9.17462 14.7029 21.9893
Au 9.03358 15.889 19.5139
Au 8.73921 17.1875 16.9081
Au 8.58841 18.2426 14.2501
Au 8.12455 19.4804 11.8022
Au 8.07595 14.4909 28.6872
Au 7.86201 15.7417 25.7919
Au 7.49004 16.9133 23.2693
Au 7.48483 17.9398 20.5799
Au 7.01027 19.2006 18.2151
Au 6.95565 20.2872 15.5323
Au 6.47291 21.5661 12.9361
Au 5.83294 19.2192 29.278
Au 5.45787 20.597 26.8057
Au 5.25521 21.826 24.0106
Au 5.02172 22.8969 21.5487
Au 4.79416 23.9281 19.0561
Au 4.54312 25.1337 16.3085
Au 7.50999 21.6433 30.0473
Au 7.15415 22.6713 27.6368
Au 6.98731 23.7908 24.8413
Au 6.54566 24.954 22.2852
Au 6.24379 26.1847 19.7111
Au 5.97033 27.1863 17.0122
Au 8.98011 23.5753 30.9717
Au 8.94469 24.9761 28.518
Au 8.75764 26.2539 25.7736
Au 8.40313 27.2725 23.048
Au 7.89333 28.4464 20.4825
Au 7.72777 29.4236 17.9315
Au 11.0447 25.6393 31.778
Au 10.78 27.0347 29.198
Au 10.4036 28.2733 26.4743
Au 10.1834 29.6268 23.9148
Au 9.90707 30.5294 21.4299
Au 9.71274 31.6945 18.567
Au 12.8963 27.831 32.5765
Au 12.6186 29.1165 30.0755
Au 12.1618 30.4353 27.5656
Au 11.904 31.5797 24.8786
Au 11.8494 32.7486 22.0002
Au 11.4974 33.7736 19.4116
Au 14.798 29.8948 33.2251
Au 14.3944 31.1952 30.7279
Au 14.0612 32.408 28.2359
Au 13.7827 33.6559 25.3604
Au 13.4243 34.694 22.9428
Au 13.2274 35.8513 20.4125
Au 19.2573 31.6563 33.3774
Au 19.0469 32.7009 30.9464
Au 18.6297 33.853 28.1939
Au 18.2113 34.6929 25.6422
Au 17.869 36.2189 22.8175
Au 17.4831 36.9457 20.3687
Au 21.7626 30.763 32.6825
Au 21.705 31.9042 30.245
Au 21.1474 33.074 27.6961
Au 20.9024 34.3149 24.903
Au 20.447 35.4598 22.3762
Au 20.4224 36.3099 19.8606
Au 24.2578 29.8414 32.0156
Au 24.3549 31.1089 29.5309
Au 23.8305 32.3123 27.0603
Au 23.6197 33.5114 24.4273
Au 23.5199 34.7511 21.9057
Au 23.1074 35.7589 19.2473
Au 27.0447 29.0412 31.5983
Au 26.8468 30.3298 28.7359
Au 26.593 31.6947 26.1752
Au 26.6242 32.9982 23.7787
Au 26.1343 33.883 21.1779
Au 25.7863 34.8601 18.7301
Au 29.5503 28.1918 31.12
Au 29.4566 29.7498 28.464
Au 29.2861 30.775 25.7787
Au 28.9831 32.0317 23.1969
Au 28.7697 33.1348 20.5215
Au 28.8523 34.1385 18.1441
Au 32.2107 27.6472 30.2734
Au 32.0905 28.9281 27.6661
Au 32.0201 30.0695 24.987
Au 31.2367 31.2785 22.4501
Au 31.221 32.4474 19.6741
Au 30.889 33.3532 17.024
Au 34.657 24.25 28.3224
Au 34.5203 25.3448 25.8354
Au 34.387 26.5167 23.2607
Au 34.0693 27.6885 20.7142
Au 33.7898 28.9855 17.9791
Au 33.2622 30.1366 15.4352
Au 34.7568 21.8969 27.254
Au 34.4918 22.6665 24.6716
Au 34.5434 23.946 22.1004
Au 34.2132 25.1588 19.6307
Au 33.7592 26.2059 16.8229
Au 33.2638 27.7463 14.1919
Au 34.7249 19.0437 26.3229
Au 34.6278 20.1013 23.5624
Au 34.8752 21.4736 20.8368
Au 34.2964 22.3926 18.0583
Au 33.9361 23.7878 15.5719
Au 33.497 24.6036 12.8289
Au 34.9023 16.5866 24.8979
Au 34.6365 17.4759 22.2425
Au 34.3914 18.7482 19.6308
Au 34.117 19.9271 17.0254
Au 33.7611 21.2175 14.2279
Au 33.1935 22.1952 11.8212
Au 34.6215 13.8331 23.7615
Au 34.5935 14.7152 21.1764
Au 34.44 16.224 18.645
Au 34.3326 17.1455 15.9207
Au 33.5645 18.2161 13.158
Au 33.239 19.4141 10.6298
Au 34.3704 11.1511 22.5245
Au 34.321 12.2742 20.0097
Au 34.2825 13.5004 17.5288
Au 33.9787 14.6483 14.8451
Au 33.3462 15.5969 12.1691
Au 32.9542 16.9197 9.42052
Au 31.7444 7.72976 21.3041
Au 31.1817 8.49448 18.7187
Au 31.2547 10.1389 16.1306
Au 30.894 11.144 13.6105
Au 30.5758 12.2122 10.9958
Au 30.3277 13.427 8.44883
Au 29.0724 6.81455 21.4557
Au 28.7195 7.86109 18.5718
Au 28.7337 9.10417 15.8642
Au 28.1815 10.0678 13.2673
Au 27.981 11.5741 10.5989
Au 27.6153 12.8711 8.22454
Au 26.3479 6.03962 21.437
Au 26.1243 6.9699 18.8663
Au 25.8981 7.90328 16.2042
Au 25.5883 9.21004 13.3179
Au 25.2212 10.5164 10.5691
Au 24.8187 11.7911 8.12418
Au 23.6389 5.11832 21.2543
Au 23.4616 6.1623 18.5172
Au 23.3251 7.44492 15.9605
Au 22.8079 8.41102 13.2539
Au 22.4282 9.79612 10.5031
Au 22.2332 10.9008 8.1036
Au 21.0234 4.17943 20.8265
Au 20.4677 5.34873 18.475
Au 20.3831 6.61645 15.928
Au 20.1182 7.63835 13.179
Au 19.8229 8.96298 10.562
Au 19.5192 10.154 7.97673
Au 18.4076 3.60774 20.9592
Au 18.0451 4.49129 18.3354
Au 17.4637 5.89736 15.8538
Au 17.2191 7.13937 13.5702
Au 16.9985 8.11704 10.9594
Au 16.8028 9.36871 8.1221
Au 13.7959 4.66672 21.7391
Au 13.2276 5.8025 19.3738
Au 13.1401 6.85128 16.8101
Au 12.675 8.21706 14.5186
Au 12.5611 9.40636 11.7919
Au 12.552 10.4805 9.35792
Au 12.3098 6.71228 23.1692
Au 11.8928 7.80021 20.6627
Au 11.5474 9.0322 17.8958
Au 10.9891 10.2179 15.1118
Au 11.0987 11.5191 12.6991
Au 11.1691 12.7028 10.1284
Au 10.6231 8.66113 24.2299
Au 10.0074 9.77423 21.828
Au 9.74022 11.1207 18.9963
Au 9.49685 12.152 16.3679
Au 9.38323 13.5541 13.7506
Au 9.32166 14.548 11.3468
Au 9.17205 11.0161 25.0864
Au 8.41737 11.9887 22.5972
Au 8.12873 13.2475 20.0129
Au 8.14516 14.452 17.2638
Au 7.89981 15.5805 14.5559
Au 7.60655 16.7502 12.2898
Au 7.23725 13.1331 25.9962
Au 6.80401 14.4816 23.3227
Au 6.54631 15.4791 20.7811
Au 6.41435 16.4214 18.229
Au 6.3029 17.6949 15.7613
Au 5.91431 18.7789 13.3014
Au 5.77047 15.0362 27.3342
Au 5.25752 16.2364 24.8717
Au 5.02984 17.3188 22.1588
Au 4.98249 18.2678 19.5009
Au 4.65257 19.7587 17.0285
Au 4.65464 20.8453 14.6481
