1289
 Atoms. Timestep: 50000
Au 3.50046 25.0748 24.5021
Au 5.1104 27.3447 25.2217
Au 6.99078 29.4404 25.8552
Au 8.58614 31.35 26.5464
Au 10.5464 33.3312 27.3013
Au 3.98789 21.4605 22.5579
Au 5.57547 23.7253 23.2818
Au 7.25883 25.7787 24.1654
Au 8.88766 27.8089 25.0926
Au 10.6989 29.9811 25.6878
Au 12.4413 31.9854 26.3782
Au 14.1046 34.1912 27.3366
Au 4.24874 18.0078 21.1333
Au 6.15802 19.999 21.6954
Au 7.86454 22.0491 22.5321
Au 9.4776 24.1685 23.2753
Au 11.1926 26.297 24.0871
Au 13.0308 28.4726 24.896
Au 14.7461 30.694 25.4885
Au 16.3438 32.9247 26.236
Au 18.1545 34.9541 27.1511
Au 4.68402 14.1271 19.1257
Au 6.35678 16.3264 20.1035
Au 8.11445 18.5801 20.7654
Au 10.0204 20.5183 21.5976
Au 11.6923 22.7186 22.3435
Au 13.5531 24.8445 23.149
Au 15.3127 27.0252 23.9971
Au 17.0782 29.2006 24.6968
Au 18.8933 31.3915 25.1525
Au 20.4448 33.6016 26.2682
Au 22.3719 35.6139 26.9171
Au 5.36291 10.6304 18.0189
Au 7.08113 12.6381 18.3411
Au 8.62351 14.7605 18.9784
Au 10.4561 16.9986 19.7773
Au 12.4416 19.1345 20.5771
Au 14.0719 21.3589 21.3222
Au 15.7098 23.2945 22.4292
Au 17.7001 25.6099 23.2109
Au 19.4503 27.8061 23.6954
Au 21.1562 29.9122 24.4318
Au 22.5803 32.1225 25.1795
Au 24.4224 34.1589 25.8955
Au 26.1922 35.8776 26.7484
Au 7.8715 9.23823 16.889
Au 9.37648 11.3288 17.2855
Au 11.0036 13.3001 18.2359
Au 12.7311 15.5342 19.1918
Au 14.6383 17.5533 19.6941
Au 16.37 19.6584 20.57
Au 18.1462 22.0759 21.3761
Au 19.8834 24.0437 22.0627
Au 21.6144 26.2203 22.8196
Au 23.3078 28.4013 23.5048
Au 25.1283 30.6722 24.3219
Au 26.7194 32.7791 25.3551
Au 28.3698 34.7536 25.9915
Au 9.98952 7.73584 15.5442
Au 11.4325 9.52273 16.5925
Au 13.2697 11.8114 17.3392
Au 15.1502 13.8266 18.0972
Au 17.0391 16.084 18.9174
Au 18.7117 18.2379 19.5128
Au 20.3905 20.5403 20.519
Au 22.4241 22.6672 21.1517
Au 23.9483 24.8658 22.0729
Au 25.8284 26.9938 22.7217
Au 27.4723 29.1066 23.3754
Au 28.9399 31.3072 24.5214
Au 30.6261 33.1546 25.1672
Au 12.0995 6.38188 15.0564
Au 13.9027 8.27719 15.6704
Au 15.6082 10.5851 16.3791
Au 17.4383 12.5983 17.0522
Au 19.1524 14.566 18.049
Au 21.0049 16.5605 18.6634
Au 22.6584 18.9548 19.39
Au 24.4343 20.9135 20.2667
Au 26.2438 23.3331 21.1206
Au 27.7097 25.3492 21.7872
Au 29.5629 27.3605 22.6603
Au 31.0654 29.6723 23.3569
Au 32.667 31.6271 24.3053
Au 14.4517 5.04655 14.0072
Au 16.1461 6.8786 14.8998
Au 17.8994 8.95392 15.3889
Au 19.6653 11.0983 16.2232
Au 21.5516 13.0986 16.9964
Au 23.413 15.0022 17.7718
Au 25.1212 17.4359 18.5107
Au 26.8456 19.4197 19.5977
Au 28.3504 21.6255 20.2569
Au 30.1 23.8879 20.9784
Au 31.9117 26.0957 21.8312
Au 33.4671 28.3171 22.4653
Au 35.0439 30.2972 23.3851
Au 18.3422 5.40684 13.8215
Au 20.1969 7.3116 14.479
Au 22.0768 9.3772 15.3691
Au 23.8448 11.4789 16.2013
Au 25.7003 13.6595 16.6581
Au 27.2695 15.7597 17.7223
Au 28.9888 17.8859 18.5168
Au 30.6304 20.065 19.294
Au 32.381 22.3221 20.0889
Au 34.211 24.3635 20.8183
Au 35.9039 26.7127 21.5168
Au 22.433 5.63181 13.7741
Au 24.3694 7.71938 14.461
Au 26.0123 9.94763 15.1315
Au 27.9198 12.116 15.6963
Au 29.5997 14.1085 16.875
Au 31.1371 16.3179 17.5555
Au 32.7767 18.6264 18.1416
Au 34.6226 20.7286 18.949
Au 36.273 23.0479 19.6289
Au 26.5572 6.36238 13.3899
Au 28.2756 8.34642 14.1846
Au 30.0824 10.5778 14.9991
Au 31.6456 12.7377 15.8264
Au 33.3848 14.8753 16.5707
Au 34.9714 17.0228 17.4079
Au 36.6784 19.3436 18.2665
Au 30.2329 6.92359 13.2077
Au 31.9442 8.91023 14.1827
Au 33.6966 11.088 14.785
Au 35.5419 13.3379 15.7902
Au 37.1196 15.4773 16.5094
Au 3.37746 24.1661 21.7462
Au 4.90062 26.3901 22.6158
Au 6.92207 28.4044 23.2449
Au 8.68907 30.3868 23.9864
Au 10.2486 32.6484 24.7097
Au 12.1394 34.7122 25.3512
Au 3.908 20.5091 19.9697
Au 5.62108 22.7177 20.8086
Au 7.37528 24.9488 21.4883
Au 9.03595 26.9724 22.1817
Au 11.0069 28.9092 23.0403
Au 12.3646 31.1148 23.7753
Au 14.2234 33.3869 24.5466
Au 16.0433 35.3122 25.2306
Au 4.24104 16.9374 18.4586
Au 6.15868 18.9319 18.9046
Au 7.92859 21.2859 19.8087
Au 9.50665 23.2244 20.5052
Au 11.1652 25.2354 21.3433
Au 13.2345 27.4115 22.1385
Au 14.7819 29.7611 22.8691
Au 16.5059 31.9082 23.6211
Au 18.2789 34.1081 24.5022
Au 20.0407 36.2034 25.0114
Au 4.79104 13.2082 16.7129
Au 6.50075 15.3048 17.4314
Au 8.2696 17.4629 18.0124
Au 10.2257 19.7062 18.7942
Au 11.8859 21.7074 19.6661
Au 13.5782 23.8828 20.4297
Au 15.4768 25.9049 21.3225
Au 17.149 28.3109 22.0208
Au 18.8579 30.3131 22.6611
Au 20.4302 32.496 23.3498
Au 21.9987 34.7816 24.1906
Au 23.9478 36.4717 24.8233
Au 6.96631 11.7094 15.828
Au 9.0028 13.7903 16.2797
Au 10.8058 15.9286 16.9762
Au 12.2955 18.0073 17.6521
Au 14.21 20.0755 18.6062
Au 15.8684 22.3897 19.604
Au 17.5971 24.6651 20.4272
Au 19.2921 26.7066 21.0571
Au 21.2816 28.7969 21.6987
Au 22.8143 30.9762 22.5006
Au 24.5267 33.2248 23.3915
Au 26.3129 35.2637 24.0014
Au 9.50598 10.2716 14.6951
Au 11.2829 12.5122 15.3492
Au 13.0044 14.4119 16.3624
Au 14.571 16.6993 17.0069
Au 16.5059 18.6068 17.7275
Au 18.1868 20.7942 18.7103
Au 20.0081 23.0437 19.4305
Au 21.6985 25.2944 19.8967
Au 23.4924 27.5416 20.8126
Au 25.3344 29.6918 21.657
Au 27.0553 31.938 22.4348
Au 28.7815 33.8504 23.2366
Au 11.9216 8.84607 13.907
Au 13.586 11.0469 14.7917
Au 15.2831 13.2336 15.3156
Au 16.8619 15.4077 16.0549
Au 18.8643 17.1665 16.8488
Au 20.4449 19.2255 17.75
Au 22.2434 21.5661 18.5184
Au 24.0879 23.7421 19.1955
Au 25.7554 25.9197 19.9379
Au 27.5766 27.9504 20.7707
Au 29.2262 30.3559 21.5419
Au 30.9012 32.4296 22.46
Au 14.0663 7.43199 12.9253
Au 15.5015 9.35854 13.7637
Au 17.4379 11.5212 14.31
Au 19.1284 13.8212 15.3104
Au 21.1342 15.545 15.918
Au 22.9243 17.789 16.8334
Au 24.5541 20.0687 17.6696
Au 26.3034 22.1215 18.5356
Au 28.0461 24.5757 19.0688
Au 29.8398 26.4094 19.9534
Au 31.4214 28.7602 20.8229
Au 33.036 30.8513 21.4504
Au 16.2007 6.09796 12.1891
Au 18.0276 7.93079 12.72
Au 19.9175 9.91795 13.5811
Au 21.431 11.9443 14.2702
Au 23.2994 14.1352 14.925
Au 25.0716 16.3877 15.9509
Au 26.8656 18.4797 16.6489
Au 28.4634 20.6163 17.6016
Au 30.0732 22.8005 18.2409
Au 31.9851 24.7679 19.0643
Au 33.6313 27.2322 19.7058
Au 35.115 29.2381 20.6287
Au 20.1885 6.33107 11.674
Au 22.0326 8.39869 12.7873
Au 23.849 10.4288 13.4863
Au 25.6326 12.582 14.1363
Au 27.482 14.8529 14.8821
Au 28.9739 16.9532 16.0486
Au 30.4883 19.1948 16.4431
Au 32.3445 21.2302 17.3772
Au 34.1871 23.4455 17.9087
Au 35.8915 25.5422 18.8674
Au 24.1849 6.92388 11.5707
Au 26.1243 9.01791 12.5123
Au 27.8803 10.9578 13.1982
Au 29.5823 13.22 13.7848
Au 31.1186 15.2832 14.6526
Au 32.8163 17.4526 15.6197
Au 34.8431 19.4895 16.2641
Au 36.5151 21.789 17.1663
Au 28.1864 7.53247 11.6304
Au 29.9586 9.5423 12.1122
Au 31.707 11.4976 12.9808
Au 33.446 13.7801 13.9543
Au 35.1616 15.8503 14.7387
Au 36.9314 17.9697 15.612
Au 3.68135 23.1306 18.9068
Au 5.12088 25.4434 19.864
Au 6.91402 27.5009 20.5911
Au 8.63706 29.7532 21.3298
Au 10.3447 31.6136 21.9446
Au 12.1898 33.9043 22.8603
Au 13.8997 35.8659 23.5306
Au 3.96081 19.5676 17.2682
Au 5.6565 21.5494 17.9658
Au 7.03427 23.8277 18.7147
Au 9.12598 25.8973 19.5752
Au 11.0129 28.0291 20.3664
Au 12.5475 30.0682 21.1684
Au 14.2297 32.2964 21.9695
Au 16.0755 34.5739 22.6299
Au 17.7184 36.4984 23.3179
Au 4.69694 15.9542 15.7982
Au 6.28417 18.0698 16.198
Au 8.00135 20.2148 17.043
Au 9.6443 22.4876 17.77
Au 11.4597 24.4194 18.6779
Au 13.3631 26.4912 19.4826
Au 14.8726 28.7764 20.0952
Au 16.4577 30.8078 20.8963
Au 18.3368 32.8134 21.6459
Au 20.008 35.1882 22.3228
Au 21.804 37.2037 23.043
Au 6.49351 14.1779 14.8275
Au 8.39174 16.4262 15.2407
Au 10.1342 18.5568 16.0473
Au 11.9286 20.7737 16.8295
Au 13.7742 22.7539 17.9153
Au 15.6548 25.048 18.5004
Au 17.252 27.2865 19.2686
Au 19.0369 29.3709 19.9776
Au 20.7176 31.537 20.5988
Au 22.3759 33.6346 21.5586
Au 24.1386 35.7075 22.1165
Au 8.72827 12.9829 13.7441
Au 10.6562 15.0589 14.2777
Au 12.3299 17.2757 14.9485
Au 14.1914 19.2583 16.0177
Au 15.999 21.2798 16.8161
Au 17.8373 23.4034 17.5409
Au 19.4169 25.5615 18.4499
Au 21.2604 27.8548 18.9869
Au 23.1131 30.064 19.8219
Au 24.7355 32.0804 20.6479
Au 26.5718 34.4474 21.3519
Au 11.3339 11.4417 13.0895
Au 13.0872 13.5441 13.525
Au 14.692 15.8079 14.2935
Au 16.4937 18.0061 15.0669
Au 18.3678 19.7764 15.8443
Au 20.193 21.9465 16.537
Au 21.7237 24.2009 17.3853
Au 23.7007 26.4401 18.2204
Au 25.2822 28.5891 18.975
Au 27.12 30.7501 19.7732
Au 28.7797 33.1477 20.6136
Au 13.4382 10.0718 11.968
Au 15.2006 12.0256 12.6097
Au 16.9085 14.2362 13.3235
Au 18.7987 16.2161 14.0194
Au 20.5137 18.333 14.9479
Au 22.3332 20.4868 15.9287
Au 24.0571 22.705 16.774
Au 25.9658 24.9101 17.1998
Au 27.5706 27.2047 18.2537
Au 29.4155 29.308 18.8199
Au 30.8396 31.4885 19.6892
Au 15.7686 8.64984 11.0661
Au 17.5864 10.5337 11.8884
Au 19.1508 12.6896 12.6654
Au 21.0967 14.744 13.1655
Au 22.9283 16.8936 14.1251
Au 24.565 18.9697 14.8226
Au 26.2122 21.2433 15.6999
Au 28.078 23.4622 16.369
Au 29.7987 25.5578 17.1353
Au 31.5044 27.6973 18.0073
Au 33.0423 29.9166 18.6233
Au 18.1752 7.23485 10.0808
Au 19.9234 9.1451 10.9705
Au 21.7101 11.2041 11.4673
Au 23.3138 13.1043 12.4864
Au 25.25 15.2926 13.3186
Au 27.0883 17.4372 13.8576
Au 28.6352 19.6623 14.7751
Au 30.2865 21.9502 15.6006
Au 31.9372 23.9489 16.41
Au 33.8284 26.2147 17.2499
Au 35.4094 28.2792 18.0275
Au 21.9296 7.58409 10.069
Au 23.7347 9.60827 10.8653
Au 25.644 11.5611 11.4838
Au 27.3587 13.6161 12.054
Au 29.0761 15.9443 12.9878
Au 30.8332 18.0739 13.785
Au 32.5563 20.0929 14.8263
Au 34.3622 22.2291 15.3553
Au 36.0427 24.4239 16.2849
Au 26.0675 8.09574 10.0787
Au 27.9952 10.4619 10.4158
Au 29.7718 12.468 11.1129
Au 31.3869 14.3735 12.091
Au 33.2233 16.4783 12.9535
Au 34.9416 18.3616 13.7356
Au 36.3745 20.6645 14.6001
Au 3.63411 22.1374 16.2925
Au 5.21297 24.4341 16.8439
Au 6.8727 26.4017 18.1366
Au 8.73215 28.3784 18.801
Au 10.4346 30.6095 19.3579
Au 11.9952 32.7631 20.1399
Au 13.8996 34.6847 20.8563
Au 15.5967 36.9045 21.5468
Au 4.1817 18.5458 14.5408
Au 5.76967 20.725 15.2732
Au 7.34665 22.9126 16.1121
Au 9.11283 25.1871 16.9108
Au 10.9194 26.8923 17.6746
Au 12.783 29.2831 18.435
Au 14.2308 31.3547 19.1364
Au 16.0348 33.4008 19.772
Au 17.8839 35.5828 20.643
Au 19.4647 37.7561 21.2543
Au 6.33234 16.9142 13.6738
Au 8.02272 19.1126 14.2509
Au 9.68387 21.2687 15.129
Au 11.5441 23.3943 15.962
Au 13.3221 25.3214 16.8041
Au 15.0739 27.6321 17.3873
Au 16.7083 29.8638 18.3423
Au 18.3207 31.9434 18.9748
Au 20.2464 34.117 19.7742
Au 21.9664 36.2746 20.4336
Au 8.51761 15.6083 12.565
Au 10.2306 17.615 13.1748
Au 11.9953 19.7837 14.0251
Au 13.8111 21.787 14.963
Au 15.5198 23.9943 15.6807
Au 17.2549 26.0777 16.4626
Au 19.0328 28.1469 17.396
Au 20.8625 30.5656 17.9227
Au 22.6145 32.6957 18.8334
Au 24.2361 34.7178 19.7
Au 10.6363 13.9003 11.6462
Au 12.479 16.0513 12.3245
Au 14.2185 18.3161 13.056
Au 16.1232 20.534 14.0231
Au 17.8637 22.4122 14.8761
Au 19.5045 24.6012 15.6453
Au 21.388 26.6835 16.4157
Au 23.0543 29.1092 17.1122
Au 24.8326 31.108 18.0204
Au 26.472 33.3412 18.6824
Au 13.0536 12.5646 10.8472
Au 14.6071 14.694 11.3882
Au 16.4196 16.6741 12.3175
Au 18.4319 18.8487 13.1068
Au 20.2454 21.0368 13.9243
Au 21.8819 23.2566 14.7537
Au 23.5401 25.3903 15.5274
Au 25.5281 27.4815 16.2721
Au 27.1529 29.7646 16.8706
Au 28.8009 31.9047 17.8907
Au 15.5267 11.1185 9.86811
Au 17.1433 13.0381 10.5877
Au 18.8176 15.2635 11.4362
Au 20.6674 17.5524 12.1847
Au 22.3504 19.4133 12.9232
Au 23.8188 21.637 13.84
Au 25.9028 23.813 14.6032
Au 27.8057 26.1812 15.342
Au 29.4393 28.3148 16.0716
Au 31.0734 30.527 16.9684
Au 17.6818 9.66945 9.08865
Au 19.4993 11.711 9.75879
Au 21.2295 13.8664 10.4967
Au 22.9107 15.9435 11.3089
Au 24.7716 17.9671 12.0792
Au 26.4387 20.1938 13.0356
Au 28.1093 22.3283 13.8021
Au 29.8675 24.4609 14.4979
Au 31.8062 26.7848 15.4461
Au 33.4489 28.8352 16.1437
Au 19.9653 8.06847 8.3515
Au 21.7708 10.2628 8.95441
Au 23.6406 12.3629 9.63108
Au 25.2304 14.2721 10.4312
Au 27.0647 16.4264 11.211
Au 28.8122 18.4772 11.9075
Au 30.3676 20.7456 12.8729
Au 32.2142 22.7866 13.7702
Au 33.9115 25.0196 14.7208
Au 35.4136 27.1262 15.1907
Au 23.8536 8.68185 8.35703
Au 25.7561 10.5779 8.79768
Au 27.2727 12.8938 9.31448
Au 29.1986 14.9703 10.3475
Au 31.2698 17.0277 10.9736
Au 32.7922 19.0198 12.0518
Au 34.2123 21.2584 12.7841
Au 35.8996 23.4006 13.613
Au 3.73801 20.9877 13.5215
Au 5.35381 23.2701 14.2493
Au 6.91846 25.9065 15.1266
Au 8.61446 27.7596 16.2162
Au 10.5583 29.6218 16.7008
Au 12.1942 31.8548 17.3466
Au 13.8177 33.9516 18.1339
Au 15.626 36.0384 18.8933
Au 17.2403 37.9259 19.4058
Au 5.77312 19.6375 12.5233
Au 7.64495 21.753 13.338
Au 9.25701 23.9341 14.4775
Au 10.9559 26.0488 15.0111
Au 12.7437 28.0703 15.9346
Au 14.5212 30.3229 16.4469
Au 16.1715 32.5481 17.2665
Au 17.9135 34.654 17.9018
Au 19.8719 36.7869 18.711
Au 8.00975 18.1803 11.5965
Au 9.8242 20.0779 12.2492
Au 11.487 22.4795 13.1419
Au 13.3078 24.6411 14.113
Au 15.1965 26.71 14.8049
Au 16.7931 28.8701 15.551
Au 18.7996 30.7818 16.2838
Au 20.467 33.2025 17.117
Au 22.2226 35.2892 17.8843
Au 10.2179 16.4602 10.5138
Au 12.1247 18.7863 11.4824
Au 13.9073 20.993 12.3094
Au 15.6683 23.0862 13.0492
Au 17.3608 25.1324 13.8488
Au 19.1335 27.4501 14.6733
Au 21.0355 29.555 15.306
Au 22.6886 31.7833 16.141
Au 24.305 33.7443 16.8838
Au 12.4872 15.0671 9.69667
Au 14.2709 17.2388 10.2678
Au 16.082 19.4092 11.3019
Au 17.9904 21.5305 12.1507
Au 19.6006 23.7056 12.9052
Au 21.1938 25.9461 13.7929
Au 23.1729 27.9161 14.5332
Au 24.9791 30.2283 15.295
Au 26.6992 32.2376 15.9769
Au 14.8237 13.7662 8.69617
Au 16.6327 15.5531 9.63057
Au 18.4099 17.8876 10.4769
Au 20.1695 20.0488 11.251
Au 21.9856 22.1725 11.9846
Au 23.7502 24.3558 12.7972
Au 25.506 26.3045 13.6284
Au 27.3649 28.8067 14.4039
Au 29.1689 30.8407 14.9612
Au 17.2601 12.2463 8.01275
Au 18.9584 14.2628 8.5872
Au 20.6662 16.3418 9.50022
Au 22.5772 18.4985 10.2838
Au 24.2537 20.5135 11.2107
Au 25.82 22.7269 11.9133
Au 27.7953 25.0357 12.8592
Au 29.6626 27.2157 13.3509
Au 31.401 29.3089 14.4162
Au 19.5356 10.7608 7.25316
Au 21.386 12.7703 7.76342
Au 23.0945 15.0836 8.63884
Au 24.9072 17.0151 9.4329
Au 26.5737 19.0534 10.2009
Au 28.3979 21.2455 11.0484
Au 30.1537 23.5284 11.9862
Au 31.9943 25.5282 12.698
Au 33.3569 27.9929 13.4529
Au 21.9335 9.62505 6.42299
Au 23.7651 11.125 7.2407
Au 25.3642 13.458 7.55155
Au 27.1142 15.5595 8.68973
Au 28.9238 17.7305 9.28819
Au 30.5627 19.6997 10.236
Au 32.1756 21.8013 11.1568
Au 33.7449 23.9146 11.7348
Au 35.0754 26.0339 12.741
Au 5.49807 22.1807 11.8251
Au 7.17422 24.3612 12.6894
Au 8.83956 26.5272 13.2839
Au 10.5177 28.6148 13.9355
Au 12.3356 30.7191 14.7102
Au 13.9951 32.9269 15.6099
Au 15.711 34.9389 16.2337
Au 17.6308 36.879 16.9477
Au 7.67877 20.712 10.6345
Au 9.34096 22.9037 11.6106
Au 11.0898 25.0275 12.3612
Au 12.8926 27.2545 13.1222
Au 14.6584 29.3523 13.6412
Au 16.1632 31.5674 14.4918
Au 18.2642 33.5276 15.2428
Au 19.9141 35.6477 16.1336
Au 9.88007 19.1606 9.68595
Au 11.4973 21.3613 10.5582
Au 13.384 23.4727 11.4258
Au 15.1255 25.8368 12.1506
Au 17.0051 27.8523 12.787
Au 18.5149 29.9537 13.6885
Au 20.4531 32.0453 14.3145
Au 22.2956 34.3863 15.2517
Au 12.0313 17.828 8.7591
Au 13.8068 20.0342 9.68902
Au 15.6683 22.063 10.354
Au 17.3985 24.1252 11.1896
Au 19.122 26.4557 12.0329
Au 21.0724 28.5709 12.6773
Au 22.8552 30.7562 13.3376
Au 24.496 32.8541 14.203
Au 14.269 16.2895 7.76644
Au 16.204 18.3922 8.57058
Au 17.9812 20.5554 9.47083
Au 19.6695 22.7377 10.2526
Au 21.3519 24.9454 11.1751
Au 23.3911 27.017 11.9517
Au 25.1825 29.0333 12.5958
Au 26.8849 31.2126 13.2951
Au 16.6799 14.6535 7.01284
Au 18.4858 16.9256 7.91156
Au 20.2898 19.0302 8.56641
Au 22.0047 20.9637 9.31225
Au 23.7759 23.3157 10.155
Au 25.6235 25.3377 11.0496
Au 27.3536 27.6963 11.7415
Au 29.2064 29.7657 12.5034
Au 19.0106 13.1192 6.03429
Au 20.8358 15.317 6.76952
Au 22.6381 17.6003 7.47736
Au 24.346 19.5365 8.25097
Au 26.0065 21.8384 9.21202
Au 28.0698 23.8877 10.0366
Au 29.6416 26.0836 10.8072
Au 31.3656 28.2482 11.4365
Au 21.5077 11.9422 5.33787
Au 23.2673 13.8582 6.02984
Au 24.8825 16.1312 6.78745
Au 26.6718 18.2676 7.55372
Au 28.3961 20.3242 8.36341
Au 30.171 22.2998 9.19087
Au 31.5999 24.4783 9.88541
Au 33.283 26.6203 10.6701
Au 7.42424 23.4993 10.0399
Au 9.16989 25.6569 10.431
Au 10.8987 27.7532 11.3685
Au 12.4125 30.0155 12.1976
Au 14.1662 31.893 12.8281
Au 15.9348 33.9479 13.6799
Au 17.8941 35.9681 14.2119
Au 9.5158 21.9116 8.89171
Au 11.2591 24.0133 9.58847
Au 13.1154 26.1938 10.3695
Au 14.7184 28.7437 11.0346
Au 16.4897 30.611 11.6902
Au 18.2985 32.6637 12.4603
Au 20.1006 34.6848 13.5212
Au 11.7442 20.4203 7.90412
Au 13.5228 22.4096 8.63181
Au 15.1936 24.6878 9.54116
Au 16.8438 26.809 10.1657
Au 18.8211 28.8163 10.9114
Au 20.5512 31.2679 11.6485
Au 22.4348 33.371 12.4797
Au 13.9207 19.0143 7.00409
Au 15.7598 21.1283 7.63174
Au 17.6295 23.4251 8.53807
Au 19.3852 25.516 9.26158
Au 21.1293 27.4288 10.0997
Au 22.7962 29.6508 10.7893
Au 24.7065 31.7048 11.433
Au 16.1997 17.3113 6.11342
Au 18.0084 19.4509 6.9206
Au 19.6852 21.7955 7.75605
Au 21.5929 23.7679 8.54984
Au 23.3731 25.886 9.39786
Au 25.1081 28.2098 9.87647
Au 26.9261 30.1833 10.6742
Au 18.6151 15.9728 5.08211
Au 20.4329 18.0998 5.9569
Au 22.1104 20.1593 6.63765
Au 23.9939 22.3489 7.4201
Au 25.9105 24.345 8.36159
Au 27.3141 26.5143 9.17998
Au 29.062 28.6588 9.92739
Au 20.9833 14.4241 4.38506
Au 22.6745 16.4367 4.97015
Au 24.3379 18.6908 5.58004
Au 26.2554 20.7348 6.59546
Au 27.9975 22.8026 7.47087
Au 29.7599 24.8245 8.10123
Au 31.2265 27.0705 8.88801
Au 9.18002 24.3905 7.95778
Au 11.0154 26.6664 8.72273
Au 12.5997 28.7765 9.28578
Au 14.2217 31.1401 10.0159
Au 15.9388 33.124 10.9922
Au 17.6703 35.0958 11.74
Au 11.3244 23.0461 6.92777
Au 13.2292 25.1821 7.67785
Au 14.885 27.3841 8.45736
Au 16.6466 29.5293 9.1003
Au 18.3974 31.6725 9.83135
Au 20.3584 33.7811 10.8496
Au 13.6248 21.8096 6.02129
Au 15.5824 23.8228 6.67805
Au 17.2056 25.8546 7.58061
Au 18.9376 28.0324 8.33094
Au 20.5286 30.1196 9.04357
Au 22.5134 32.1084 9.81529
Au 15.6691 19.9426 5.26713
Au 17.5951 22.1802 5.84802
Au 19.2575 24.4534 6.35646
Au 21.2888 26.3131 7.38042
Au 22.9554 28.4989 8.26462
Au 24.7226 30.9046 8.90793
Au 18.3019 18.699 4.2391
Au 19.8983 20.7947 5.06854
Au 21.7792 22.9135 6.09529
Au 23.6432 24.8356 6.59175
Au 25.2764 27.1634 7.47242
Au 26.9671 29.2119 8.15084
Au 20.3543 17.2534 3.44322
Au 22.1482 19.2091 3.93415
Au 24.031 21.2711 4.73931
Au 25.8288 23.1893 5.55056
Au 27.5655 25.2848 6.35491
Au 28.9659 27.6167 7.28674
Au 10.8112 25.6874 6.22494
Au 12.7708 27.7672 6.64291
Au 14.5479 29.943 7.48871
Au 16.1679 32.1103 8.37233
Au 17.9924 34.0838 9.21195
Au 13.2192 24.5209 5.113
Au 15.0508 26.531 5.76406
Au 16.7148 28.4535 6.60303
Au 18.4938 30.6137 7.25567
Au 20.2352 32.6913 8.16647
Au 15.4952 22.6146 4.22666
Au 17.141 24.9389 4.87723
Au 19.0823 27.0333 5.66969
Au 20.7999 28.8741 6.47226
Au 22.2435 30.9581 7.27934
Au 17.7017 21.4487 3.53137
Au 19.343 23.4759 3.972
Au 21.3161 25.6164 4.87572
Au 23.0535 27.6722 5.66863
Au 24.8459 29.6055 6.51741
Au 20.0821 19.8253 2.66975
Au 21.71 22.1215 3.54216
Au 23.2551 24.0926 4.01712
Au 25.3465 26.0251 5.07364
Au 27.001 28.109 5.71284
Au 3.85171 22.4502 25.318
Au 5.39258 24.6803 26.1491
Au 7.19798 26.8272 27.0998
Au 9.02755 28.8995 27.7708
Au 10.6089 30.7447 28.4977
Au 12.4139 32.9504 29.2577
Au 4.42993 18.7753 23.7134
Au 6.06885 21.0608 24.4663
Au 7.76552 23.0234 25.1656
Au 9.28947 25.2239 26.0026
Au 11.173 27.4093 26.8535
Au 12.9499 29.4372 27.6976
Au 14.7101 31.6672 28.2448
Au 16.1937 33.823 29.1365
Au 4.84948 15.4582 22.1283
Au 6.55333 17.2835 22.8898
Au 8.34052 19.523 23.5273
Au 10.0034 21.5521 24.3924
Au 11.7048 23.7147 24.9743
Au 13.5097 25.9873 25.9201
Au 15.2118 28.1099 26.6862
Au 16.9981 30.3772 27.2406
Au 18.516 32.5793 28.069
Au 20.2857 34.1927 29.0747
Au 5.42791 11.7814 20.4126
Au 6.97078 13.8221 21.1098
Au 8.7065 15.8006 21.6711
Au 10.5179 17.8141 22.4526
Au 12.1652 20.1033 23.4031
Au 14.0386 22.0883 24.1425
Au 15.7239 24.579 25.0051
Au 17.654 26.6212 25.7153
Au 19.2535 28.7679 26.4389
Au 20.715 30.944 27.0722
Au 22.6274 32.8215 28.0324
Au 24.0082 35.0364 28.7574
Au 7.51375 9.9526 19.5712
Au 9.08641 12.0623 20.2319
Au 10.856 14.2806 20.8991
Au 12.6532 16.4327 21.7168
Au 14.5918 18.3536 22.5814
Au 16.2492 20.7023 23.1772
Au 17.9032 23.0649 24.0304
Au 19.9031 25.0978 24.7405
Au 21.5874 27.2833 25.6032
Au 23.3613 29.5547 26.4435
Au 24.953 31.6063 27.2541
Au 26.4232 33.5421 28.1915
Au 9.71328 8.56159 18.5199
Au 11.5026 10.6727 19.2612
Au 13.2217 12.8877 19.9372
Au 15.1011 15.0668 20.7684
Au 17.02 17.1565 21.5577
Au 18.7185 19.2339 22.2549
Au 20.2981 21.5956 23.2498
Au 22.1379 23.5792 23.8961
Au 23.7292 25.7723 24.6291
Au 25.5016 27.9315 25.4387
Au 27.3232 30.0628 26.2159
Au 28.7479 32.2988 27.2436
Au 11.9552 6.94353 17.6002
Au 13.8484 9.2302 18.3172
Au 15.7051 11.4087 19.0931
Au 17.3479 13.5663 19.9504
Au 19.2209 15.4998 20.6903
Au 20.9093 17.7006 21.3781
Au 22.5236 20.0136 22.1246
Au 24.476 22.0478 23.0841
Au 26.0404 24.3213 23.8116
Au 27.8627 26.395 24.571
Au 29.5279 28.4005 25.4937
Au 30.8523 30.6249 26.2341
Au 14.2147 5.58745 16.6486
Au 16.0491 7.99791 17.3416
Au 17.8139 9.83466 18.0768
Au 19.5608 12.0026 19.0134
Au 21.4882 13.9977 19.8248
Au 23.2079 16.2614 20.3989
Au 24.9868 18.4041 21.3706
Au 26.6821 20.5562 22.1741
Au 28.4265 22.744 23.009
Au 30.1563 24.8664 23.736
Au 31.8318 27.1117 24.4541
Au 33.2274 29.2153 25.2897
Au 16.6004 4.36452 15.6278
Au 18.4478 6.34955 16.3834
Au 20.1381 8.4341 17.0237
Au 21.7613 10.4894 18.1441
Au 23.8969 12.5163 18.7527
Au 25.3822 14.642 19.4881
Au 27.1569 16.806 20.5338
Au 29.0876 18.9476 21.4791
Au 30.7067 21.2386 21.8456
Au 32.406 23.3728 22.8031
Au 34.1932 25.6103 23.43
Au 35.5238 27.8756 24.292
Au 20.4924 4.66043 15.3799
Au 22.2234 6.71385 16.1089
Au 24.0481 8.93866 17.1193
Au 26.2003 10.9 17.7837
Au 27.7535 12.9864 18.6693
Au 29.3837 15.195 19.5365
Au 31.1672 17.3684 20.2295
Au 32.9277 19.7929 20.8309
Au 34.6388 21.8448 21.7583
Au 36.2242 24.0267 22.558
Au 24.6279 5.11135 15.1543
Au 26.5165 7.38073 16.0464
Au 28.2376 9.34392 16.9017
Au 30.1298 11.4185 17.7943
Au 31.9312 13.5701 18.7219
Au 33.4703 15.7172 19.4081
Au 34.9707 18.0734 20.242
Au 36.5993 20.4753 20.8812
Au 28.5334 5.79614 14.981
Au 30.3516 7.76314 16.0482
Au 32.1121 9.9502 16.823
Au 33.8244 12.1754 17.3961
Au 35.372 14.2221 18.2901
Au 37.0037 16.6435 18.9972
Au 4.42927 19.7325 26.2891
Au 5.96918 21.9284 27.2564
Au 7.62103 24.0356 27.8775
Au 9.42244 26.1127 28.6051
Au 11.0218 28.2878 29.5792
Au 12.8982 30.398 30.2587
Au 14.6519 32.4855 30.8418
Au 4.75665 16.2854 24.7338
Au 6.5348 18.3188 25.557
Au 8.11951 20.368 26.3967
Au 9.862 22.4925 27.1784
Au 11.7383 24.6815 27.8712
Au 13.4417 26.7551 28.8477
Au 15.2433 28.9964 29.5145
Au 16.8801 31.1785 29.9852
Au 18.5903 33.1263 30.742
Au 5.47991 12.9119 23.0274
Au 7.07256 14.8769 23.8837
Au 8.81196 16.9257 24.6597
Au 10.2911 19.024 25.4255
Au 12.1541 21.1155 25.9703
Au 13.8253 23.2758 26.8788
Au 15.7341 25.3432 27.7891
Au 17.4089 27.6657 28.4698
Au 19.2459 29.6565 29.1112
Au 20.8804 31.718 29.8566
Au 22.5514 33.8885 30.6104
Au 7.47817 11.1127 22.0481
Au 8.91079 13.213 22.8572
Au 10.8046 15.1924 23.582
Au 12.6516 17.3607 24.3543
Au 14.4543 19.5491 25.1123
Au 16.1359 21.8849 25.8885
Au 17.8865 24.002 26.8252
Au 19.7723 26.2872 27.4778
Au 21.5575 28.378 28.1704
Au 23.1984 30.4009 29.0976
Au 24.7549 32.5307 29.9803
Au 9.68922 9.66341 21.4574
Au 11.3392 11.6302 22.0579
Au 13.2697 13.8826 22.6545
Au 15.009 15.9505 23.373
Au 16.8643 18.0978 24.307
Au 18.4783 20.1286 24.8437
Au 20.122 22.6263 25.9716
Au 22.0363 24.6507 26.5948
Au 23.9265 26.7843 27.2098
Au 25.4984 28.8971 28.1568
Au 27.1244 30.9723 29.0073
Au 11.9385 8.19228 20.1693
Au 13.5957 10.2214 20.9024
Au 15.3644 12.389 21.6526
Au 17.3772 14.4958 22.6794
Au 19.1579 16.5382 23.5382
Au 20.8537 18.8833 24.1068
Au 22.5663 21.083 24.9426
Au 24.2704 23.1163 25.7999
Au 26.1468 25.2227 26.4885
Au 27.6975 27.535 27.3986
Au 29.402 29.5187 28.204
Au 14.256 6.83225 19.311
Au 15.9843 8.67698 20.2035
Au 17.7814 10.6929 20.9155
Au 19.5077 12.7112 21.6565
Au 21.3597 15.1011 22.478
Au 23.001 17.2685 23.1169
Au 24.5673 19.3482 23.8639
Au 26.7262 21.7236 24.8391
Au 28.3964 23.7117 25.6746
Au 29.9993 25.9156 26.5208
Au 31.6355 28.1098 27.177
Au 16.554 5.20289 18.3257
Au 18.3227 7.33504 19.0786
Au 19.986 9.35491 20.1615
Au 21.9565 11.4468 20.6929
Au 23.4688 13.385 21.5057
Au 25.2144 15.5591 22.3701
Au 27.0839 18.0279 23.1864
Au 29.063 20.0957 23.8107
Au 30.6333 22.3817 24.7114
Au 32.3975 24.4678 25.4452
Au 33.9805 26.4488 26.1154
Au 18.594 3.80412 17.2491
Au 20.5515 5.68978 18.2069
Au 22.2861 7.88276 19.0636
Au 24.1654 9.89171 19.9073
Au 25.9373 12.0596 20.6743
Au 27.5268 14.208 21.4287
Au 29.2923 16.3726 22.1579
Au 31.2723 18.5127 22.7695
Au 32.939 20.6742 23.6815
Au 34.4585 22.8091 24.5136
Au 35.9702 24.8983 25.2678
Au 22.6832 4.27834 17.007
Au 24.5604 6.3626 17.83
Au 26.343 8.395 18.8876
Au 28.2355 10.2934 19.7183
Au 29.9862 12.573 20.3726
Au 31.7327 14.7219 21.4445
Au 33.498 16.749 22.017
Au 34.953 19.0605 22.8176
Au 36.5999 21.2832 23.5606
Au 26.4856 4.79023 16.9283
Au 28.4245 6.62022 17.7034
Au 30.3383 8.92006 18.9049
Au 32.0644 10.7824 19.5795
Au 33.8833 13.3985 20.4819
Au 35.9165 15.4176 21.2065
Au 37.0496 17.6181 21.8008
Au 4.90605 17.1842 27.415
Au 6.43274 19.3596 28.3293
Au 8.10824 21.3644 29.0772
Au 9.84075 23.5697 29.7477
Au 11.4619 25.6173 30.3993
Au 13.3254 27.8154 31.2808
Au 14.9532 30.0182 32.1215
Au 16.835 31.7999 32.5351
Au 5.37559 13.7645 25.8313
Au 7.00882 15.6825 26.7911
Au 8.54689 17.7393 27.5419
Au 10.393 20.0196 28.0746
Au 12.0557 22.1784 28.919
Au 13.8404 24.151 29.8237
Au 15.6326 26.2674 30.4078
Au 17.5451 28.4836 31.3126
Au 19.1381 30.6087 31.8366
Au 20.5846 32.7008 32.4227
Au 7.3545 12.1856 24.8587
Au 9.14341 14.0491 25.8087
Au 10.9257 16.387 26.3998
Au 12.5891 18.4237 27.0663
Au 14.3312 20.7046 27.7504
Au 16.2308 22.7292 28.5723
Au 17.9985 24.9557 29.3768
Au 19.872 26.8932 30.2145
Au 21.4066 29.0969 31.1863
Au 22.9408 31.3157 31.7647
Au 9.7712 10.7236 23.9111
Au 11.2783 12.7114 24.7214
Au 13.0096 14.857 25.4341
Au 14.9425 17.0219 26.034
Au 16.718 19.3027 26.8487
Au 18.5561 21.1343 27.7935
Au 20.2467 23.4614 28.6018
Au 21.9137 25.5076 29.3603
Au 23.5856 27.7697 30.1026
Au 25.2187 30.0092 30.9235
Au 12.1426 9.03951 22.8838
Au 13.6129 11.2823 23.6263
Au 15.3425 13.4049 24.4696
Au 17.1544 15.2695 25.3307
Au 19.0348 17.5334 26.0636
Au 20.7327 19.78 26.7978
Au 22.3527 22.003 27.5202
Au 24.2189 24.3034 28.5617
Au 26.1004 26.2367 29.3081
Au 27.5311 28.4379 30.1962
Au 14.0489 7.39391 21.9921
Au 15.7002 9.63413 22.6067
Au 17.4375 11.6678 23.6126
Au 19.6328 13.8664 24.3408
Au 21.3792 16.085 25.2655
Au 23.0071 18.2262 25.8803
Au 24.6813 20.5372 26.702
Au 26.4428 22.6556 27.5413
Au 28.0312 24.7844 28.3499
Au 29.7432 27.0487 29.2271
Au 16.2734 5.92343 21.2131
Au 18.1692 7.99161 21.7423
Au 19.8154 10.1811 22.8233
Au 21.6803 12.2866 23.3715
Au 23.4053 14.5119 24.1841
Au 25.239 16.7718 24.9738
Au 26.8928 19.0875 25.6946
Au 28.8161 20.9327 26.627
Au 30.7147 23.3388 27.4859
Au 32.2175 25.7091 28.2795
Au 18.5658 4.75776 20.0314
Au 20.4962 6.40225 20.8039
Au 22.151 8.7582 21.7638
Au 24.0426 10.8129 22.4123
Au 25.8193 13.1068 23.3664
Au 27.4746 15.3463 24.0166
Au 29.3454 17.5264 24.779
Au 31.2013 19.6045 25.6942
Au 32.7405 21.7716 26.6058
Au 34.4307 23.7798 27.1984
Au 20.786 3.35832 19.3634
Au 22.8441 5.36334 19.7515
Au 24.5021 7.14094 20.6223
Au 26.295 9.3126 21.5939
Au 28.1951 11.3878 22.3196
Au 29.9368 13.5333 23.0688
Au 31.7892 15.7533 24.0599
Au 33.3268 17.7653 24.8386
Au 34.8483 20.1319 25.5598
Au 36.4693 22.1528 26.1255
Au 24.8738 3.67568 18.9339
Au 26.5913 5.51089 19.7836
Au 28.4145 7.85533 20.4714
Au 30.5228 9.7296 21.5757
Au 32.0953 12.1975 22.1516
Au 34.1461 14.2548 23.0362
Au 35.6403 16.5705 23.8338
Au 37.0721 18.9352 24.5892
Au 5.37125 14.5565 28.5195
Au 6.73975 16.9076 29.6275
Au 8.56546 18.756 30.119
Au 10.353 20.8031 30.7141
Au 12.0286 22.8539 31.6537
Au 13.5568 25.2912 32.2085
Au 15.6509 27.2832 32.7642
Au 17.3598 29.4989 33.8595
Au 18.8803 31.5932 34.3141
Au 7.41703 13.0541 27.7431
Au 9.11935 15.1194 28.4818
Au 10.8285 17.3018 28.9908
Au 12.5196 19.6336 29.7476
Au 14.3599 21.5814 30.5808
Au 16.2657 23.5716 31.3264
Au 17.9266 25.7566 32.2171
Au 19.6881 27.8459 32.9229
Au 21.3639 30.1957 33.6773
Au 9.57213 11.5113 26.769
Au 11.4006 13.6895 27.3206
Au 13.1113 15.8153 28.0893
Au 14.7396 18.1448 28.8348
Au 16.6508 20.121 29.5065
Au 18.3911 22.1243 30.4467
Au 20.1356 24.343 31.4934
Au 22.1339 26.4859 32.0755
Au 23.5834 28.7668 32.9202
Au 11.8951 10.0884 25.4782
Au 13.585 12.0133 26.3919
Au 15.4004 14.3698 27.2573
Au 17.1422 16.6174 27.8258
Au 18.9401 18.5835 28.8416
Au 20.9553 20.8183 29.4723
Au 22.5059 22.9539 30.4718
Au 24.2371 25.1189 31.0858
Au 25.6937 27.1931 31.9133
Au 14.1091 8.51733 24.777
Au 15.762 10.6201 25.4672
Au 17.6586 12.7536 26.1898
Au 19.2973 14.9587 27.0329
Au 21.2231 17.1984 27.7859
Au 23.0658 19.3312 28.4652
Au 24.6899 21.3782 29.5082
Au 26.6972 23.6051 30.4083
Au 28.259 25.9656 31.0622
Au 16.3003 7.09315 23.68
Au 17.9203 9.11176 24.5575
Au 19.9805 11.2741 25.3488
Au 21.6659 13.3986 26.3467
Au 23.6114 15.7144 26.9349
Au 25.4288 17.6723 27.7841
Au 26.8735 19.9363 28.4854
Au 28.7072 22.1789 29.27
Au 30.2432 24.3918 30.0289
Au 18.6054 5.4178 22.8858
Au 20.2977 7.47693 23.4722
Au 22.178 9.66956 24.5288
Au 23.8968 11.9356 25.1389
Au 25.751 14.1686 26.0638
Au 27.6299 16.39 26.7261
Au 29.3007 18.4935 27.5622
Au 30.9919 20.6618 28.3945
Au 32.6423 22.9834 29.1884
Au 20.9249 3.93622 22.0238
Au 22.7008 6.09524 22.4643
Au 24.5852 8.2103 23.3831
Au 26.2521 10.392 24.1367
Au 27.988 12.5153 25.024
Au 29.5964 14.8311 25.7535
Au 31.4275 16.7265 26.6358
Au 33.2807 18.8962 27.4398
Au 34.8544 21.2063 28.1535
Au 22.9073 2.80254 20.972
Au 25.0111 4.54304 21.8056
Au 26.6736 6.59898 22.5559
Au 28.4386 8.87692 23.2873
Au 30.3964 10.9767 24.1121
Au 32.1007 13.1519 24.7326
Au 33.8316 15.1336 25.7978
Au 35.5232 17.5097 26.5446
Au 36.9658 19.7393 27.2587
Au 7.40914 14.2609 30.2674
Au 9.01124 16.2866 31.0946
Au 10.8889 18.3033 31.6275
Au 12.3867 20.1839 32.4
Au 14.2495 22.5823 33.0913
Au 16.0103 24.6575 33.835
Au 17.684 26.6874 34.7172
Au 19.7806 28.8428 35.495
Au 9.62684 12.3816 29.3233