13
 Atoms. Timestep: 50000
Au 22.6276 20.7463 19.2835
Au 20.6853 22.629 19.313
Au 21.1906 19.1398 22.5578
Au 19.3297 17.9733 21.0576
Au 17.643 19.6809 20.2389
Au 18.4993 21.29 18.371
Au 23.2816 20.2118 21.6872
Au 20.8841 20.7822 17.5459
Au 18.822 20.2669 22.41
Au 20.1527 19.958 19.9113
Au 22.2233 18.4199 20.1805
Au 21.2271 21.6873 21.7691
Au 18.5687 22.3495 20.8093
