1415
 Atoms. Timestep: 50000
Au 20.3808 20.4368 20.3937
Au 22.9969 21.391 20.597
Au 20.546 22.8657 21.5314
Au 20.1967 17.922 19.3556
Au 17.8559 19.3809 20.2538
Au 21.249 22.4581 18.7315
Au 21.5793 20.6256 22.8627
Au 19.2608 20.3833 17.9495
Au 19.852 18.4235 22.0763
Au 21.9976 19.8366 18.3344
Au 22.3829 18.7306 20.9964
Au 18.2669 22.0848 19.8967
Au 18.7107 21.0626 22.3938
Au 25.5886 22.3574 20.7753
Au 20.7522 25.3972 22.6545
Au 19.9046 15.4594 18.1645
Au 15.2356 18.3296 20.2622
Au 21.6841 24.4309 16.9586
Au 22.6738 20.8321 25.3464
Au 18.078 20.1365 15.444
Au 19.3288 16.3377 23.9379
Au 23.6881 18.9667 16.3888
Au 24.3414 16.8694 21.4688
Au 16.3768 23.8828 19.2307
Au 16.9165 21.7316 24.3206
Au 23.1448 23.9352 21.7225
Au 23.8101 23.3526 18.8439
Au 21.2815 25.0192 19.6704
Au 24.1614 21.6069 23.1189
Au 21.7666 23.0064 24.0659
Au 24.6515 20.7188 18.4048
Au 22.8304 21.8083 16.4083
Au 25.158 19.6938 21.09
Au 23.6011 18.7486 23.3871
Au 24.0707 17.9578 18.9914
Au 18.6513 24.7897 20.8983
Au 18.9519 24.1272 18.0682
Au 18.914 23.5894 23.6438
Au 19.7803 21.0761 24.877
Au 16.5745 22.916 21.7963
Au 17.5705 16.9515 19.0686
Au 19.03 17.819 16.6919
Au 16.6394 19.2583 17.6072
Au 19.4284 15.5896 21.0131
Au 17.2923 17.2566 22.1801
Au 21.6791 17.1017 17.0846
Au 20.9445 19.7092 15.8808
Au 22.1251 16.0271 19.8903
Au 21.7654 16.5233 22.5426
Au 15.6727 21.0598 19.5974
Au 17.1516 22.0645 17.3768
Au 16.0869 20.1876 22.2123
Au 18.085 18.9745 24.1725
Au 19.9622 22.2686 16.1686
Au 20.9437 18.4793 24.5768
Au 28.0452 23.3705 21.0753
Au 21.2306 27.8758 23.7163
Au 19.6366 12.7547 17.0456
Au 12.7798 17.3351 20.0278
Au 22.3736 26.43 15.1946
Au 23.5997 20.8623 27.9516
Au 16.9786 19.9849 12.8926
Au 18.4372 14.5432 25.5957
Au 25.414 18.4491 14.1818
Au 26.4105 15.0415 22.0015
Au 14.2157 25.8327 18.4767
Au 15.1958 22.4404 26.447
Au 25.8641 24.9798 21.8919
Au 23.6162 26.4794 22.8242
Au 26.3239 24.475 18.9113
Au 24.3157 25.4865 17.1113
Au 21.6774 27.4744 20.9978
Au 22.1662 26.9972 17.9065
Au 23.874 25.9725 19.9248
Au 26.8672 22.5437 23.487
Au 25.3783 21.516 25.6593
Au 22.1696 25.4874 25.2216
Au 23.1036 23.1404 26.5993
Au 24.6028 24.0465 24.2483
Au 27.2868 21.7649 18.5811
Au 26.4443 20.0342 16.4901
Au 23.4578 23.9445 14.7494
Au 24.4552 20.9844 14.45
Au 25.5002 22.8013 16.6103
Au 27.7874 20.74 21.2889
Au 27.0496 17.7769 21.667
Au 24.5781 18.8276 25.9893
Au 25.5361 16.9517 24.1407
Au 26.2483 19.6833 23.6906
Au 25.9045 17.1526 16.907
Au 26.052 15.9253 19.3329
Au 26.7779 18.6449 19.1032
Au 18.8143 27.2744 22.0422
Au 16.6151 26.5713 20.4272
Au 19.7102 26.2396 16.4285
Au 17.1537 26.0046 17.6424
Au 19.2682 26.9213 19.1026
Au 19.2608 26.2122 24.7253
Au 17.1689 24.2908 25.6769
Au 20.8379 21.2079 27.5464
Au 18.1274 21.8009 26.9472
Au 20.1828 23.7235 26.2982
Au 14.6442 24.76 21.2922
Au 14.9823 23.5391 24.0063
Au 16.6452 25.5558 23.1819
Au 17.3015 14.1665 17.9961
Au 15.0874 15.9064 18.893
Au 18.6114 15.2565 15.5286
Au 17.7682 17.5674 14.2157
Au 14.1816 18.2644 17.5335
Au 15.4183 19.1656 15.1615
Au 16.4632 16.7533 16.3843
Au 19.0697 13.2311 19.8355
Au 18.7945 13.782 22.8708
Au 14.5517 16.3787 21.9387
Au 16.5026 15.2243 23.5759
Au 16.9371 14.8193 20.7411
Au 21.6408 14.5708 16.2056
Au 23.5811 16.5445 15.1715
Au 19.7433 19.567 13.3248
Au 22.6176 18.8309 13.7919
Au 20.6659 16.8745 14.654
Au 21.7625 13.4788 18.763
Au 24.0195 14.0859 20.5444
Au 21.2956 14.3632 24.4573
Au 23.9283 14.8039 23.203
Au 21.3167 13.8125 21.6977
Au 23.827 15.3259 17.7457
Au 13.1215 20.2157 19.369
Au 13.7018 23.1301 19.1395
Au 16.2131 21.9426 14.8702
Au 15.3171 23.8913 16.7001
Au 14.4756 21.1782 17.0571
Au 13.3686 19.2848 22.124
Au 14.1559 20.8084 24.4046
Au 17.3227 16.96 25.8399
Au 16.3934 19.8145 26.2035
Au 15.4746 18.1908 23.9318
Au 13.8955 22.0244 21.6602
Au 20.7424 24.3079 14.2918
Au 18.9214 22.1204 13.6907
Au 21.7173 21.6774 13.9534
Au 18.0399 24.0986 15.4391
Au 21.9964 18.485 27.1624
Au 20.1946 16.4913 26.4237
Au 22.8675 16.6483 25.2315
Au 19.1997 18.971 26.6202
Au 30.764 24.4314 21.023
Au 21.431 30.4054 24.822
Au 19.3408 10.3115 15.9908
Au 10.2318 16.5134 19.8053
Au 23.1051 28.3774 13.316
Au 24.6487 20.7094 30.5502
Au 15.8932 19.8623 10.4377
Au 17.6764 12.3232 27.2719
Au 27.3026 17.7067 12.1139
Au 28.2796 13.083 22.5733
Au 12.4281 27.8196 18.2258
Au 13.5396 22.9987 28.5925
Au 28.4628 25.9469 22.1256
Au 25.9938 27.6629 23.1121
Au 23.8203 29.1148 24.1
Au 28.8612 25.6288 19.154
Au 26.8718 26.5256 17.3188
Au 25.0209 27.5364 15.236
Au 21.8226 30.1488 21.8954
Au 22.1583 29.4582 19.1314
Au 22.7487 29.0919 16.0324
Au 26.5537 27.085 20.2406
Au 24.1615 28.6923 21.102
Au 24.6949 28.1042 18.1957
Au 29.4048 23.7102 23.5547
Au 28.0342 22.614 25.9634
Au 26.4952 21.729 28.1722
Au 22.4091 28.2059 26.2318
Au 23.2416 25.6659 27.7351
Au 24.2867 23.2516 29.0758
Au 27.1607 25.2097 24.5057
Au 24.6989 26.6556 25.4291
Au 25.7546 24.1963 26.7181
Au 29.8216 22.7774 18.8577
Au 29.0001 21.1316 16.3927
Au 28.1692 19.3673 14.2966
Au 24.1453 25.734 12.9746
Au 25.1572 23.0995 12.7144
Au 26.2068 20.3924 12.4088
Au 28.2443 23.928 16.7499
Au 26.2599 24.919 14.9138
Au 27.1102 22.1039 14.5718
Au 30.2387 21.5413 21.6511
Au 29.5106 18.7082 21.8925
Au 28.9847 15.7631 22.1376
Au 25.8532 19.1029 28.3152
Au 26.5927 16.8666 26.7885
Au 27.5597 15.0999 24.5419
Au 28.9091 20.7482 24.1607
Au 27.461 19.7347 26.301
Au 28.2492 17.6237 24.2373
Au 27.5638 16.547 14.76
Au 27.9412 15.3287 17.3377
Au 28.1559 14.2203 19.9033
Au 29.4596 19.9041 19.3057
Au 28.5219 18.1608 16.9322
Au 28.9787 16.9683 19.6364
Au 19.1333 29.7938 23.206
Au 17.0373 29.2578 21.4611
Au 14.8143 28.4552 19.8345
Au 20.2615 28.1567 14.6317
Au 17.74 28.1741 15.681
Au 15.1826 27.9792 16.8803
Au 19.7365 29.4035 20.1525
Au 20.1677 28.9243 17.294
Au 17.3318 28.5829 18.5586
Au 19.3915 28.6131 25.8736
Au 17.4686 26.9228 26.7089
Au 15.3566 25.0001 27.6589
Au 22.0262 21.2846 30.2011
Au 19.2481 22.1684 29.6912
Au 16.3091 22.5375 29.0247
Au 20.3167 26.3361 27.2661
Au 21.2673 23.7179 28.7977
Au 18.383 24.4061 28.1746
Au 12.8092 26.5818 20.8378
Au 12.9467 25.4159 23.3879
Au 13.1073 24.2674 26.047
Au 17.1527 27.9863 24.1723
Au 14.9193 27.5465 22.5517
Au 14.8924 26.2479 25.1843
Au 16.9172 11.8049 16.9524
Au 14.6508 13.3361 17.9458
Au 12.3843 14.8976 18.8009
Au 18.4212 12.5576 14.5966
Au 17.6164 15.0154 13.0793
Au 16.699 17.4544 11.794
Au 11.5869 17.2539 17.4438
Au 12.9325 18.185 15.0039
Au 14.3155 18.954 12.6187
Au 16.1427 14.0364 15.5533
Au 13.7653 15.7837 16.1702
Au 15.1711 16.4211 13.8809
Au 18.8038 10.7689 18.72
Au 18.5202 11.1839 21.5534
Au 18.0041 11.6101 24.4807
Au 11.9712 15.3579 21.7818
Au 13.9082 14.4839 23.6152
Au 15.8158 13.2801 25.4961
Au 16.3714 12.1295 19.8884
Au 14.0538 13.8103 20.8065
Au 16.2175 12.6728 22.5235
Au 21.2759 12.1826 14.8917
Au 23.1916 14.0028 13.8352
Au 25.3225 15.938 13.0668
Au 18.6951 19.3723 10.7303
Au 21.5218 18.8022 10.9995
Au 24.3363 18.1842 11.6596
Au 20.3356 14.3315 13.4721
Au 19.4809 16.8306 12.1263
Au 22.3451 16.2592 12.535
Au 21.6756 10.8694 17.5803
Au 23.886 11.4421 19.2497
Au 26.0173 12.3841 20.8166
Au 20.3734 12.4283 26.0938
Au 22.9459 12.5402 25.108
Au 25.7463 12.819 23.8065
Au 21.1894 11.1911 20.2684
Au 20.638 11.7483 23.0907
Au 23.4116 12.0344 22.131
Au 23.6042 12.8929 16.5676
Au 25.5113 14.7395 15.766
Au 25.8018 13.5484 18.2585
Au 10.6747 19.2057 19.2236
Au 11.0138 22.1244 18.8267
Au 11.7823 24.9377 18.5489
Au 15.0103 21.7382 12.2912
Au 14.2692 23.9237 14.0259
Au 13.1611 25.741 16.0473
Au 11.9755 20.0757 16.8064
Au 13.365 21.09 14.6001
Au 12.6415 23.0569 16.55
Au 10.8602 18.2187 21.885
Au 11.5792 19.7942 24.289
Au 12.5756 21.4362 26.3281
Au 16.7139 15.0411 27.7534
Au 15.5275 17.6678 28.0478
Au 14.2448 20.3521 28.2812
Au 12.766 17.1168 23.9356
Au 14.51 16.0446 25.8476
Au 13.5231 18.6678 26.1614
Au 11.1328 21.0437 21.5313
Au 11.7955 24.1003 21.1543
Au 12.1548 22.7546 23.6406
Au 21.3076 26.4027 12.4992
Au 19.6434 24.1914 11.8429
Au 17.772 22.2005 11.0341
Au 22.4675 23.8212 11.9581
Au 20.5465 21.6104 11.2444
Au 23.3771 20.9272 11.6195
Au 18.4283 26.1587 13.6049
Au 16.7661 23.9245 12.86
Au 15.9961 25.865 14.8021
Au 23.0668 18.6714 29.7396
Au 21.2852 16.5557 29.1231
Au 19.4861 14.4381 28.1689
Au 23.9977 16.678 27.8922
Au 22.3429 14.6254 27.062
Au 24.8544 14.7371 25.8
Au 20.0035 19.2671 29.3129
Au 18.1856 17.0239 28.5084
Au 17.3088 19.7663 28.8063
Au 33.2915 25.3654 21.2065
Au 21.6695 32.897 25.8412
Au 19.1868 7.65795 14.9309
Au 7.53048 15.5819 19.603
Au 23.8427 30.3524 11.6307
Au 25.8184 20.8972 33.0559
Au 14.9808 19.8258 7.85542
Au 17.1954 10.2303 28.9425
Au 29.1019 17.1156 10.2472
Au 30.2489 11.3525 23.2356
Au 10.3721 29.3444 17.5088
Au 11.8939 23.5977 30.7425
Au 31.0751 27.0223 22.1496
Au 28.7945 28.5544 23.2184
Au 26.4315 30.1245 23.9821
Au 24.0903 31.4705 25.2503
Au 31.4495 26.4753 19.3101
Au 29.5507 27.534 17.456
Au 27.6448 28.4559 15.3596
Au 25.7735 29.4843 13.5519
Au 22.12 32.6504 23.1439
Au 22.4864 32.1413 20.0978
Au 23.0203 31.5115 17.1965
Au 23.3907 30.9843 14.2645
Au 29.2645 28.2495 20.4603
Au 26.8438 29.6587 21.2159
Au 27.2277 29.1347 18.4827
Au 24.4643 31.2902 22.0857
Au 24.9628 30.8171 19.2791
Au 25.3519 30.1991 16.3379
Au 32.0442 24.6872 23.6748
Au 30.6015 23.687 25.9683
Au 29.0929 22.6793 28.358
Au 27.2251 21.8377 30.6698
Au 22.673 30.7422 27.4628
Au 23.4968 28.2476 28.9104
Au 24.3173 25.8564 30.3354
Au 25.1446 23.1876 31.8005
Au 29.7636 26.1861 24.6105
Au 27.5391 27.6768 25.6924
Au 28.4573 25.2318 27.1214
Au 25.101 29.1922 26.7877
Au 26.0605 26.6696 27.9557
Au 26.847 24.3716 29.346
Au 32.4988 23.7773 18.6703
Au 31.58 21.8154 16.8049
Au 30.819 20.3445 14.5951
Au 29.9205 18.7919 12.396
Au 25.1101 27.8282 11.4282
Au 25.8802 25.1291 10.8247
Au 26.8845 22.4103 10.61
Au 28.0036 19.8251 10.2473
Au 30.6471 24.7841 17.018
Au 28.8493 25.8936 15.0155
Au 29.6766 23.1424 14.576
Au 26.9541 26.8901 13.2316
Au 27.7896 24.179 12.8593
Au 28.9351 21.3904 12.4002
Au 32.839 22.6274 21.5755
Au 32.2053 19.7483 22.225
Au 31.499 16.961 22.5736
Au 30.9502 14.032 22.8577
Au 26.9657 19.1674 31.1554
Au 27.642 17.2147 29.3311
Au 28.5007 15.1101 27.0817
Au 29.3823 13.0916 25.2645
Au 31.5626 21.759 24.16
Au 30.1589 20.7519 26.5724
Au 30.8277 18.8705 24.5244
Au 28.6001 19.8599 28.7785
Au 29.5044 17.8807 26.9891
Au 30.2243 16.0433 24.9889
Au 29.5177 15.7823 12.6792
Au 29.4899 14.6814 15.3114
Au 29.9094 13.5228 17.9436
Au 30.1498 12.2404 20.6257
Au 31.9993 20.7861 19.5546
Au 31.1306 19.148 17.2163
Au 31.4505 17.987 19.9176
Au 30.4217 17.3852 14.8781
Au 30.8059 16.3881 17.5764
Au 31.0434 15.1173 20.347
Au 19.3562 32.5394 24.3524
Au 17.1716 31.7158 22.6498
Au 14.9217 31.0132 20.8305
Au 12.6484 30.2988 19.3081
Au 21.0981 30.1378 12.676
Au 18.4958 30.2915 13.9417
Au 15.7347 30.158 15.2705
Au 13.1134 29.6624 16.2423
Au 19.9289 32.0211 21.3235
Au 20.4752 31.551 18.2858
Au 17.6455 31.4461 19.8177
Au 20.7244 30.8569 15.4128
Au 18.1706 30.7797 16.7728
Au 15.3636 30.6478 18.0092
Au 19.6488 31.0603 26.9374
Au 17.4529 29.4617 27.7953
Au 15.739 27.5243 28.9683
Au 13.771 25.5642 29.7878
Au 23.1019 21.4035 32.7949
Au 20.1777 22.1795 32.3121
Au 17.522 22.3879 31.6499
Au 14.5484 23.0371 31.1646
Au 20.5161 28.9158 28.2653
Au 21.4919 26.472 29.7187
Au 18.7872 27.1293 29.4445
Au 22.313 23.8011 31.4114
Au 19.4396 24.6173 30.7845
Au 16.6216 25.0621 30.4065
Au 10.6693 28.4787 20.2171
Au 10.7549 27.1393 22.8661
Au 11.2911 26.0886 25.5249
Au 11.3808 24.9005 28.1704
Au 17.3082 30.5762 25.1415
Au 15.0277 29.9185 23.4717
Au 15.1221 28.7793 26.2289
Au 12.8455 29.2401 21.9122
Au 12.8349 28.1615 24.4835
Au 13.2517 27.002 27.2363
Au 16.6928 9.31453 15.8198
Au 14.3595 10.7 16.6835
Au 11.9498 12.4194 17.7224
Au 9.73353 13.9237 18.7846
Au 18.0994 10.0658 13.5478
Au 17.1522 12.4372 12.0702
Au 16.1263 14.8964 10.7477
Au 15.7209 17.298 9.33946
Au 9.03035 16.242 17.2551
Au 10.2077 17.1729 14.8344
Au 11.6487 17.8744 12.3569
Au 13.3684 19.0046 9.96968
Au 15.7884 11.5193 14.3498
Au 13.5908 13.0072 15.4672
Au 14.8548 13.8646 13.1377
Au 11.0732 14.7034 16.2002
Au 12.4761 15.5281 13.7785
Au 13.9854 16.5227 11.4553
Au 18.8629 8.2619 17.6478
Au 18.1674 8.72827 20.5664
Au 17.8891 9.16483 23.4505
Au 17.5063 9.45858 26.2722
Au 9.28562 14.4342 21.5479
Au 11.3846 13.2549 23.3201
Au 13.2089 12.2539 25.3145
Au 15.1753 11.2097 27.0601
Au 16.1792 9.67419 18.5791
Au 13.791 11.0664 19.793
Au 15.9118 9.9869 21.4849
Au 11.5682 12.7175 20.6378
Au 13.4228 11.4133 22.5781
Au 15.3829 10.6264 24.2863
Au 21.0346 9.78238 13.8542
Au 23.1129 11.5421 12.8845
Au 25.0251 13.5052 11.7679
Au 27.1152 15.235 11.0251
Au 17.6255 19.3119 8.10631
Au 20.3635 18.7081 8.53733
Au 23.4048 18.1581 9.02913
Au 26.1743 17.6543 9.47834
Au 20.0792 11.9506 12.2215
Au 18.9411 14.3609 10.7855
Au 22.1983 13.8813 11.4001
Au 18.3271 16.8087 9.43186
Au 21.0849 16.1364 9.84927
Au 24.1573 15.7197 10.4464
Au 21.3629 8.25904 16.495
Au 23.4947 8.96906 18.1381
Au 25.9119 9.77547 19.6442
Au 27.9157 10.4957 21.4761
Au 19.6667 10.4392 27.975
Au 22.3252 10.4919 26.7834
Au 24.9879 10.7196 25.4467
Au 27.6763 10.8779 24.2514
Au 21.0294 8.55032 19.2537
Au 20.7144 9.22225 22.0642
Au 23.1944 9.37743 20.8818
Au 20.178 9.69985 25.0088
Au 22.9365 9.70039 23.6595
Au 25.3971 10.1874 22.5351
Au 23.5555 10.2603 15.387
Au 25.3773 12.3926 14.4582
Au 25.6318 10.8 17.1048
Au 27.4034 14.0579 13.3611
Au 27.6226 12.7554 16.1063
Au 27.8724 11.6811 18.7422
Au 7.95506 18.3808 19.0917
Au 8.48356 21.3689 19.0809
Au 9.11831 23.98 18.0931
Au 9.79996 26.6847 17.7615
Au 13.9664 21.7097 9.55857
Au 13.1548 23.9694 11.544
Au 12.1074 25.8426 13.455
Au 11.3321 27.5725 15.4997
Au 9.30645 19.235 16.776
Au 10.7168 19.9842 14.4284
Au 10.0692 22.0558 16.2453
Au 12.386 20.7823 11.9927
Au 11.4505 23.0606 13.6798
Au 10.598 24.8218 15.8433
Au 8.26751 17.0745 21.7864
Au 9.15266 18.668 24.1329
Au 9.9001 20.5118 26.3938
Au 10.929 21.8753 28.6167
Au 15.8941 13.0376 29.3628
Au 14.7099 15.6264 29.8382
Au 13.8724 18.3173 30.3392
Au 12.7398 20.9089 30.4131
Au 10.0566 15.892 23.9608
Au 12.0517 14.9504 25.7097
Au 10.8054 17.629 26.0844
Au 13.888 13.8286 27.6205
Au 12.7817 16.5095 27.9219
Au 11.7883 19.3605 28.2026
Au 8.73149 19.8901 21.4795
Au 9.13239 22.9009 21.2555
Au 9.42945 21.4953 23.8111
Au 9.8342 25.782 20.4625
Au 9.9949 24.485 23.3661
Au 10.3153 23.2065 25.8797
Au 21.9574 28.5044 10.6557
Au 20.2007 26.3132 10.0022
Au 18.5163 24.2386 9.17897
Au 16.7016 21.9823 8.43495
Au 23.0786 25.8915 10.342
Au 21.2536 23.6091 9.3987
Au 24.0062 22.9936 9.97509
Au 19.4132 21.5766 8.80386
Au 22.2683 20.9489 9.02277
Au 25.2868 20.2288 9.82416
Au 19.1247 28.2904 11.8686
Au 17.5149 25.9421 11.1022
Au 16.5379 28.262 13.2178
Au 15.6832 23.8592 10.371
Au 14.7297 26.0634 12.2176
Au 14.026 27.8773 14.231
Au 24.1822 18.6366 32.3302
Au 22.4883 16.3705 31.4928
Au 20.7444 14.2298 30.771
Au 18.8081 12.4305 29.9337
Au 25.0635 16.8134 30.4184
Au 23.3422 14.3728 29.61
Au 25.9351 14.7695 28.5246
Au 21.4775 12.5043 28.6059
Au 24.0474 12.4627 27.6158
Au 26.9611 12.6993 26.3538
Au 21.2849 19.2509 31.8404
Au 19.4097 17.0524 31.0509
Au 18.4544 19.8899 31.4581
Au 17.6857 14.9575 30.4086
Au 16.7131 17.7425 30.763
Au 15.4844 20.4004 30.8083
Au 35.8203 26.4079 21.4561
Au 22.0615 35.5284 27.0291
Au 18.6953 5.20674 13.7863
Au 4.888 14.546 19.5779
Au 24.2545 32.427 9.90625
Au 26.958 21.1206 35.5167
Au 13.6896 19.5631 5.26917
Au 16.4133 8.19214 30.7384
Au 30.8993 16.4295 8.1295
Au 32.3 9.61908 23.731
Au 8.50563 31.3484 16.997
Au 10.1596 24.2468 32.826
Au 33.6919 28.0579 22.2042
Au 31.3051 29.6692 23.3295
Au 29.0231 31.217 24.6612
Au 26.5875 32.6103 25.1103
Au 24.3924 33.9334 26.0438
Au 34.1331 27.4682 19.4551
Au 32.2446 28.5909 17.7667
Au 30.2203 29.5991 15.6808
Au 28.5293 30.6377 13.6214
Au 26.4266 31.5767 11.658
Au 22.5379 35.2536 24.1658
Au 22.8848 34.7167 21.2234
Au 23.3618 34.2917 18.2797
Au 23.783 33.5329 15.4925
Au 24.1138 33.1791 12.7858
Au 31.7643 29.3417 20.4566
Au 29.5127 30.9117 21.4106
Au 29.8454 30.2336 18.6719
Au 27.1489 32.4578 22.2471
Au 27.4897 31.7112 19.3874
Au 27.9376 31.1674 16.4114
Au 24.9095 33.7562 23.2005
Au 25.1173 33.4342 20.2509
Au 25.617 32.9518 17.2657
Au 26.1263 32.1641 14.382
Au 34.6387 25.6363 23.9421
Au 33.2399 24.8994 26.1772
Au 31.5574 23.651 28.7365
Au 29.9175 23.0663 30.9844
Au 28.3752 22.0318 33.2992
Au 22.9788 33.2423 28.4884
Au 23.8755 30.7794 29.99
Au 24.5941 28.4394 31.4813
Au 25.2449 26.1351 33.0004
Au 26.2885 23.4963 34.3844
Au 32.3954 27.2607 24.8209
Au 30.0362 28.8317 25.98
Au 30.9064 26.3937 27.2414
Au 27.6105 30.247 26.7271
Au 28.6019 27.8006 28.2591
Au 29.3456 25.4827 29.7437
Au 25.2379 31.7657 27.8535
Au 26.2616 29.3477 29.3057
Au 27.0225 27.0471 30.6067
Au 27.5603 24.7089 32.0072
Au 35.0073 24.6705 18.9569
Au 34.2714 23.0089 16.7274
Au 33.4099 21.4044 14.5858
Au 32.5686 19.8366 12.3706
Au 31.6906 18.2017 10.2415
Au 25.6179 29.8384 9.34646
Au 26.524 27.221 9.00132
Au 27.7623 24.4999 8.86617
Au 28.5622 21.8394 8.48925
Au 29.6395 19.0163 8.26321
Au 33.3619 25.9259 17.1335
Au 31.5252 27.018 15.3183
Au 32.4703 24.0933 14.9214
Au 29.6907 27.8323 13.2431
Au 30.6681 25.2671 12.8796
Au 31.6127 22.5827 12.6481
Au 27.5788 28.9446 11.1916
Au 28.6075 26.2789 10.9629
Au 29.5096 23.472 10.8386
Au 30.5779 20.7003 10.3222
Au 35.3454 23.7346 22.0297
Au 34.7435 20.8897 22.4328
Au 34.185 17.9374 22.7851
Au 33.5334 15.1612 22.8922
Au 32.957 12.2807 23.6313
Au 27.8591 19.1152 33.7318
Au 28.9231 17.0624 31.6976
Au 29.9226 15.3898 29.4797
Au 30.4921 13.3153 27.7717
Au 31.5087 11.5129 25.8914
Au 33.9661 22.7985 24.4415
Au 32.8435 21.9513 26.9723
Au 33.7813 19.9672 24.8484
Au 31.2322 20.8054 29.21
Au 32.212 19.0093 27.1772
Au 32.9898 17.0442 25.2525
Au 29.6105 20.0238 31.4607
Au 30.702 17.9949 29.5824
Au 31.5108 16.0962 27.4466
Au 32.3242 14.2644 25.6114
Au 31.1376 15.0972 10.4905
Au 31.5226 13.9526 13.1724
Au 31.7504 12.9122 15.9351
Au 31.8982 11.7042 18.5552
Au 32.062 10.452 21.1471
Au 34.6361 22.0254 19.5985
Au 33.8266 20.3763 17.3925
Au 34.4189 19.183 20.109
Au 32.9855 18.6421 14.9615
Au 33.361 17.6058 17.6742
Au 33.7046 16.3497 20.3421
Au 32.1955 16.9133 12.7089
Au 32.4421 15.6291 15.3906
Au 32.8843 14.5144 18.1606
Au 32.8994 13.3553 20.7951
Au 19.8574 35.0895 25.3439
Au 17.3662 34.4461 23.6559
Au 15.0605 33.8259 21.8129
Au 12.8831 32.8133 20.3264
Au 10.4976 32.1819 18.772
Au 21.7812 32.5636 11.0784
Au 19.2012 32.3589 12.2641
Au 16.5724 32.3339 13.6365
Au 13.7171 31.9909 14.6773
Au 10.9934 31.4737 15.7361
Au 20.0391 34.5786 22.561
Au 20.4641 34.0396 19.5547
Au 18.0021 34.0373 20.9629
Au 21.0782 33.7566 16.733
Au 18.2075 33.3777 18.0016
Au 15.506 33.2044 19.2361
Au 21.397 33.1566 14.0261
Au 18.8061 32.8389 15.1751
Au 16.126 32.8097 16.2232
Au 13.3649 32.556 17.3527
Au 20.1059 33.6824 27.9852
Au 17.9367 31.9554 29.0079
Au 16.0561 30.1924 29.9162
Au 14.0175 28.1057 31.127
Au 11.9768 26.2067 31.851
Au 24.1222 21.4342 35.3018
Au 21.5059 22.2927 34.7345
Au 18.5135 22.7018 34.2998
Au 15.8068 23.0405 33.729
Au 12.9328 23.6192 33.1545
Au 20.7828 31.4989 29.4821
Au 21.4699 29.0165 30.9274
Au 18.7309 29.6499 30.585
Au 22.4876 26.6575 32.579
Au 19.5958 26.9759 31.9985
Au 17.0395 27.6737 31.6763
Au 23.4331 24.2108 33.8252
Au 20.6119 24.716 33.4343
Au 17.493 25.0908 32.9399
Au 14.9296 25.7282 32.3615
Au 8.63672 30.3902 19.7497
Au 8.73837 29.0017 22.2054
Au 9.02982 27.9203 25.0615
Au 9.38903 26.7438 27.5705
Au 9.84404 25.519 30.1481
Au 17.5524 33.1178 26.4615
Au 15.4454 32.5493 24.6332
Au 15.3563 31.3717 27.361
Au 13.1698 31.8786 23.0083
Au 13.2459 30.7444 25.5642
Au 13.6993 29.4996 28.4385
Au 10.8118 31.0767 21.3415
Au 10.7984 29.999 24.021
Au 11.2307 29.0046 26.6763
Au 11.6392 27.5688 29.4234
Au 16.4829 6.72922 14.6417
Au 14.1618 8.15312 15.5897
Au 11.6715 9.85858 16.4505
Au 9.5324 11.3512 17.7174
Au 7.12684 12.9672 18.4054
Au 18.1396 7.5325 12.3936
Au 17.0962 9.97286 10.935
Au 16.0199 12.2735 9.39963
Au 15.2908 14.9067 8.02677
Au 14.6086 17.207 6.71051
Au 6.10814 15.4279 17.0467
Au 7.61391 16.3398 14.6809
Au 9.09349 17.0003 12.4668
Au 10.6675 17.8934 9.8861
Au 12.0858 18.7691 7.47934
Au 15.559 8.92593 13.2132
Au 13.017 10.4402 14.0076
Au 14.563 11.2648 11.6918
Au 10.81 12.0396 15.1178
Au 12.3257 12.9743 12.5692
Au 13.6994 13.8006 10.4067
Au 8.48514 13.6817 16.0166
Au 9.67521 14.3332 13.4678
Au 11.3673 15.3534 11.3304
Au 12.9029 16.2466 8.97308
Au 18.445 5.56477 16.6152
Au 17.9293 6.15728 19.4594
Au 17.6281 6.5894 22.3136
Au 17.118 7.08465 24.9779
Au 16.9164 7.47487 28.0339
Au 6.92898 13.3525 21.2678
Au 8.69234 12.4279 23.3372
Au 10.8099 11.3285 25.2058
Au 12.6085 10.1416 27.0467
Au 14.4711 9.0378 28.7747
Au 16.0303 7.09741 17.5651
Au 13.4822 8.56693 18.3376
Au 15.6044 7.50323 20.3286
Au 11.3884 10.013 19.4627
Au 13.3174 8.81162 21.2798
Au 15 7.94558 23.2442
Au 9.12184 11.5988 20.4439
Au 10.8783 10.6911 22.3306
Au 12.7865 9.37899 24.1649
Au 14.7583 8.46488 25.9662
Au 20.8926 6.95118 12.8224
Au 22.8208 8.94044 11.8493
Au 24.8059 10.6805 10.6583
Au 26.9474 12.7926 9.72022
Au 28.9716 14.569 8.99985
Au 16.4546 19.1099 5.53892
Au 19.2423 18.4986 5.81409
Au 22.105 18.0238 6.38588
Au 25.1366 17.3442 6.89182
Au 27.9293 17.0225 7.60702
Au 19.8685 9.4565 11.2819
Au 18.9384 11.7264 9.65231
Au 21.9774 11.3907 10.1481
Au 18.135 14.1345 8.12537
Au 20.9148 13.6311 8.85021
Au 23.819 13.1622 9.07165
Au 17.4077 16.7377 6.95548
Au 20.1756 16.0042 7.21579
Au 22.8266 15.8406 7.73682
Au 25.7784 15.0647 8.4021
Au 21.1612 5.79208 15.3604
Au 23.3173 6.50892 17.0351
Au 25.6913 7.08738 18.7042
Au 27.7205 7.82 20.342
Au 29.9421 8.63833 22.2222
Au 19.1466 8.33958 29.7934
Au 21.8389 8.32555 28.5693
Au 24.3925 8.76833 27.4012
Au 27.0431 8.95052 26.27
Au 29.8998 9.10884 25.1126
Au 20.5833 6.08638 18.2172
Au 20.3497 6.59417 21.2331
Au 23.0577 6.72098 19.9621
Au 19.9002 7.07502 24.106
Au 22.5419 7.183 22.8608
Au 25.1621 7.48622 21.7211
Au 19.5964 7.61338 26.928
Au 22.2268 7.74697 25.7176
Au 24.8538 7.91353 24.5883
Au 27.3783 8.09034 23.3524
Au 23.1506 7.71245 14.3703
Au 25.1259 9.68817 13.3419
Au 25.5427 8.22087 15.9811
Au 27.199 11.3497 12.3289
Au 27.5677 10.1301 14.9886
Au 27.7243 8.92156 17.5189
Au 29.3076 13.2407 11.5471
Au 29.4794 12.0756 14.2449
Au 29.6023 10.8841 16.8141
Au 29.8332 9.81805 19.3539
Au 5.51142 17.3451 18.9347
Au 5.95154 20.148 18.6868
Au 6.49029 23.112 18.1826
Au 7.07481 25.7761 17.7175
Au 7.71968 28.8104 17.5119
Au 12.7159 21.5089 7.01483
Au 12.0751 23.4799 8.90034
Au 10.9394 25.6097 10.959
Au 10.087 27.6326 13.1293
Au 9.11767 29.4512 15.1002
Au 6.55948 18.2242 16.4673
Au 8.07907 19.1337 14.0647
Au 7.38248 20.9905 16.3673
Au 9.70883 19.9946 11.6574
Au 8.90412 21.8729 13.8209
Au 7.76952 23.9884 15.5707
Au 11.2112 20.7007 9.41384
Au 10.4214 22.8126 11.1765
Au 9.18306 24.8401 13.2056
Au 8.53808 26.7842 15.1942
Au 5.54814 16.0268 21.7949
Au 6.64108 17.6581 23.805
Au 7.48657 19.2714 26.1852
Au 8.14069 21.1878 28.5078
Au 9.13613 22.6018 30.7711
Au 15.1374 10.7808 31.0436
Au 14.2265 13.5333 31.5608
Au 12.9534 16.129 31.9041
Au 11.8207 18.7451 32.2871
Au 11.0327 21.5309 32.5115
Au 7.3899 14.8858 23.7311
Au 9.27103 13.9047 25.6057
Au 8.141 16.4855 26.043
Au 11.294 12.7644 27.4268
Au 10.2689 15.5168 27.9395
Au 8.95805 18.2418 28.2745
Au 13.2027 11.7415 29.4174
Au 12.0765 14.4723 29.7923
Au 10.9754 17.185 30.191
Au 9.95978 19.8695 30.3057
Au 5.93452 19.0202 21.2753
Au 6.57756 21.8557 20.7487
Au 6.8833 20.491 23.6548
Au 7.23735 24.7517 20.629
Au 7.23582 23.5478 23.2093
Au 7.63041 22.2433 26.1272
Au 7.87012 27.5509 20.0377
Au 8.02964 26.4107 22.7871
Au 8.3457 25.0314 25.5853
Au 8.70097 23.8379 28.1447
Au 22.6604 30.5017 8.95981
Au 21.0315 28.2849 8.11752
Au 19.1298 26.2333 7.41575
Au 17.4336 24.0157 6.70475
Au 15.4098 22.1234 5.85964
Au 23.8391 28.006 8.41316
Au 22.1317 25.6103 7.56186
Au 24.8956 25.0911 8.09559
Au 20.136 23.4637 6.75956
Au 22.9713 22.7903 7.2163
Au 25.8865 22.401 7.87484
Au 18.2712 21.3648 6.17137
Au 20.9515 20.6715 6.59095
Au 24.084 20.0499 7.22736
Au 26.9035 19.7619 7.42653
Au 19.849 30.3753 9.95058
Au 18.1314 28.2245 9.21875
Au 17.2818 30.5569 11.49
Au 16.4872 26.2171 8.61751
Au 15.5066 28.247 10.5602
Au 14.4723 30.0442 12.5155
Au 14.8285 23.9348 7.61023
Au 13.7884 26.0376 9.64645
Au 12.5867 27.8635 11.4678
Au 11.7693 29.7546 13.6556
Au 25.3716 18.743 34.9611
Au 23.4722 16.6996 34.0968
Au 21.6598 14.5223 33.3405
Au 19.675 12.5428 32.7012
Au 18.1259 10.3552 31.5957
Au 26.293 16.7645 32.8797
Au 24.4897 14.5258 32.2603
Au 27.1585 14.8309 31.1219
Au 22.7768 12.3426 31.5401
Au 25.4016 12.5975 30.3381
Au 28.1323 12.9761 28.8766
Au 20.8634 10.5606 30.6194
Au 23.4474 10.2686 29.6772
Au 26.3343 10.6851 28.3231
Au 28.9417 11.0174 27.0156
Au 22.3683 19.1682 34.4815
Au 20.5825 17.0895 33.7444
Au 19.6171 20.0353 34.0898
Au 18.7687 15.0906 33.072
Au 17.7751 17.8403 33.4096
Au 16.7269 20.4656 33.5594
Au 16.9353 12.8331 31.982
Au 15.7778 15.6127 32.4377
Au 14.8276 18.2386 33.02
Au 13.6841 20.8104 32.9444
Au 38.1793 27.5838 21.5623
Au 22.5839 37.842 27.9426
Au 18.4559 2.77393 12.8057
Au 2.51078 13.3722 19.3219
Au 25.1208 34.4025 8.41431
Au 27.8797 21.3054 38.0604
Au 12.5672 19.4269 3.05366
Au 15.8512 6.38108 32.5678
Au 32.5315 15.8415 5.98624
Au 34.158 7.64294 24.1391
Au 6.6608 33.2283 16.4907
Au 8.50577 24.8391 34.7556
Au 36.2264 28.9301 22.7407
Au 33.9104 30.3627 23.5829
Au 31.5884 31.9117 24.7095
Au 29.2073 33.7589 25.2718
Au 26.9403 35.047 26.0529
Au 24.7491 36.3291 27.2501
Au 36.4902 28.6566 19.9553
Au 34.7989 29.7444 18.1242
Au 32.8782 30.488 16.0837
Au 31.0963 31.3438 13.809
Au 28.9091 32.6809 11.9239
Au 26.7478 33.5822 10.1359
Au 22.8186 37.6235 25.3284
Au 23.0253 37.1738 22.3025
Au 23.7761 36.7387 19.4453
Au 24.1186 36.2332 16.5201
Au 24.3265 35.7902 13.7873
Au 24.5666 35.0932 11.0223
Au 34.5411 30.2306 20.7746
Au 32.1619 31.6766 21.8327
Au 32.441 31.173 18.6932
Au 29.745 33.1417 22.6508
Au 30.1104 32.91 19.4158
Au 30.5188 32.1732 16.7835
Au 27.3116 34.8894 23.3338
Au 27.9812 34.3462 20.4866
Au 28.1891 33.7789 17.5465
Au 28.7862 33.2269 14.6456
Au 25.0454 36.3131 24.442
Au 25.4912 35.736 21.5597
Au 26.0954 35.3518 18.4357
Au 26.3218 34.8423 15.4631
Au 26.7426 34.2757 12.7856
Au 37.0432 26.7191 23.9414
Au 35.8884 25.7755 26.434
Au 34.1528 24.8182 28.8085
Au 32.5497 24.0468 31.2192
Au 30.8803 23.0717 33.2961
Au 29.5733 22.2055 35.9359
Au 22.9779 35.6001 29.5892
Au 23.9232 33.2235 30.9113
Au 24.7884 30.786 32.7417
Au 25.5971 28.6038 33.9871
Au 26.1497 25.9447 35.4943
Au 27.3236 23.6514 36.8178
Au 35.0439 28.1847 25.0956
Au 32.5151 29.8491 26.0467
Au 33.5378 27.3742 27.4323
Au 30.528 31.133 27.112
Au 31.2224 28.7477 28.5571
Au 32.0384 26.4526 29.8584
Au 28.0009 32.5371 27.5892
Au 28.7406 30.2574 29.412
Au 29.6033 27.7291 31.0543
Au 30.6026 25.6176 32.4137
Au 25.4789 34.2594 28.7854
Au 26.5964 31.8774 30.2427
Au 27.2956 29.465 31.7415
Au 27.8874 26.9346 33.3105
Au 28.698 24.7143 34.645
Au 37.3379 25.9824 19.222
Au 36.6093 24.3565 16.9952
Au 35.9645 22.4791 14.8463
Au 35.1351 20.846 12.5224
Au 34.2389 19.2249 10.3587
Au 33.4463 17.4989 8.15292
Au 26.3902 31.9443 7.85178
Au 27.1083 29.0714 7.23577
Au 28.1073 26.3749 6.89169
Au 29.5049 23.7875 6.93617
Au 30.3105 21.0861 6.67003
Au 31.4943 18.4445 6.41089
Au 36.0214 27.2643 17.2001
Au 34.0105 27.9493 15.302
Au 34.9342 25.2543 14.9689
Au 32.2803 28.8746 13.6781
Au 33.077 26.229 12.9963
Au 34.0817 23.5659 12.748
Au 30.2219 29.9983 11.5846
Au 31.1861 27.4991 10.9045
Au 32.0897 24.6724 10.6813
Au 33.1039 21.8524 10.5104
Au 28.3021 31.115 9.5462
Au 29.0422 28.4169 9.19206
Au 30.2375 25.4431 8.90032
Au 31.4104 22.8544 8.77066
Au 32.3988 20.2114 8.30447
Au 37.785 24.8034 22.1641
Au 37.2913 21.9031 22.5019
Au 36.7062 19.0811 22.5914
Au 36.1969 16.1793 22.9227
Au 35.5037 13.3661 23.5566
Au 34.9464 10.3282 23.8821
Au 29.0561 19.492 36.0658
Au 29.954 17.5606 34.1222
Au 30.8075 15.5007 32.072
Au 31.825 13.6281 30.1916
Au 32.7943 11.7411 28.4016
Au 33.5804 9.63685 26.209
Au 36.7717 23.9126 24.5103
Au 35.4187 23.1416 26.8577
Au 36.3403 20.9054 24.8488
Au 33.7406 22.0404 29.4729
Au 34.7322 20.1129 27.2784
Au 35.6313 18.0503 25.0415
Au 32.1327 21.3452 31.7488
Au 33.2537 19.0166 29.8644
Au 34.0175 16.9608 27.6449
Au 34.9325 15.3129 25.5115
Au 30.6085 20.267 33.9204
Au 31.7596 18.5384 31.9604
Au 32.8254 16.2562 29.9659
Au 33.4565 14.3208 28.1345
Au 34.2584 12.2044 25.9903
Au 32.7579 14.5929 8.3846
Au 33.1601 13.3384 11.1796
Au 33.507 12.414 14.0542
Au 33.8017 11.0988 16.6967
Au 33.7649 9.89219 19.2494
Au 34.0759 8.81207 21.7176
Au 37.1677 23.2603 19.7112
Au 36.5051 21.476 17.4967
Au 36.7191 20.37 20.0122
Au 35.4109 19.5425 15.3056
Au 36.0868 18.4833 17.7656
Au 36.3315 17.1284 20.6712
Au 34.5513 17.8769 13.0148
Au 35.1111 16.7867 15.5057
Au 35.3623 15.7344 18.1139
Au 35.4998 14.3756 20.97
Au 33.6876 16.2707 10.5119
Au 34.1123 15.0417 13.4112
Au 34.555 13.7679 16.2218
Au 34.7174 12.7987 18.6832
Au 34.8334 11.4228 21.423
Au 20.3544 37.4626 26.4984
Au 17.8382 36.6993 24.6435
Au 15.495 36.11 22.7249
Au 12.822 35.3213 21.5515
Au 10.9231 34.6129 19.7305
Au 8.59734 33.8153 18.219
Au 22.4496 34.4007 9.18051
Au 19.8906 34.328 10.6048
Au 16.9763 33.9367 11.6446
Au 14.5333 33.8458 13.1056
Au 11.6546 33.8183 14.384
Au 9.10693 33.4295 15.3752
Au 20.4469 37.1698 23.3997
Au 20.928 36.5296 20.7201
Au 18.1927 36.6113 21.896
Au 21.4704 36.0602 18.0424
Au 18.675 35.9589 18.9154
Au 16.066 35.835 20.0429
Au 21.8327 35.6388 14.7493
Au 19.076 35.4808 16.1964
Au 16.4307 35.3589 17.3195
Au 13.5711 34.9336 18.7379
Au 22.1793 35.0283 11.9902
Au 19.4545 34.893 13.3524
Au 16.8836 34.8403 14.6021
Au 14.1439 34.6578 15.7372
Au 11.2937 34.0943 17.025
Au 20.2874 36.3205 29.0987
Au 18.332 34.3448 29.8925
Au 16.4746 32.5656 31.0496
Au 14.2483 30.6274 31.9371
Au 12.5068 28.7445 33.1623
Au 10.3475 26.6094 33.8627
Au 25.2729 21.6007 37.6498
Au 22.5105 22.2242 37.2359
Au 19.5994 22.8976 36.648
Au 16.7345 23.2527 36.2939
Au 14.0742 23.8734 35.7164
Au 11.3576 24.3576 35.1336
Au 21.0316 33.9716 30.7053
Au 21.9899 31.5027 32.0029
Au 19.2751 32.0431 31.7151
Au 22.6575 29.1272 33.446
Au 19.7676 29.575 33.029
Au 16.9489 30.0977 32.5009
Au 23.4509 26.6681 34.9913
Au 20.5499 27.2139 34.6174
Au 17.9313 27.7912 34.2357
Au 15.0043 28.3237 33.5658
Au 24.4615 24.005 36.3807
Au 21.5891 24.7583 35.9791
Au 18.8303 25.3302 35.5057
Au 15.9814 25.8036 34.8673
Au 13.1504 26.2436 34.389