147
 Atoms. Timestep: 50000
Au 20.35 20.2997 20.4028
Au 23.0107 21.2156 20.4514
Au 20.7105 22.9068 21.4806
Au 20.2263 17.8181 19.3777
Au 17.7596 19.4278 20.2429
Au 21.0575 22.4396 18.7027
Au 21.7218 20.5461 22.8463
Au 19.2781 20.328 17.9279
Au 19.8199 18.2624 22.0248
Au 22.0633 19.7716 18.326
Au 22.3984 18.5777 20.8771
Au 18.4705 22.39 19.8224
Au 18.8367 20.9119 22.5272
Au 25.6091 22.2265 20.5803
Au 20.8975 25.488 22.5735
Au 19.8298 15.3289 18.2995
Au 15.2161 18.3003 20.1068
Au 21.6225 24.4784 16.8312
Au 22.7577 20.7067 25.3032
Au 18.0882 20.2254 15.3837
Au 19.0763 16.3073 23.7914
Au 23.6198 19.1555 16.1785
Au 24.3738 16.681 21.6874
Au 16.5226 24.071 19.3958
Au 16.7698 21.4886 24.5341
Au 23.2897 23.9301 21.7158
Au 23.7211 23.3852 18.7583
Au 21.4143 24.9588 19.8059
Au 24.3645 21.5695 22.9847
Au 22.1032 23.0492 24.0579
Au 24.7817 20.6083 18.3114
Au 22.9711 21.9409 16.3956
Au 25.0786 19.4601 21.0036
Au 23.6144 18.5688 23.4333
Au 24.0813 17.8449 18.8127
Au 18.621 24.8572 21.0235
Au 18.9776 24.4007 18.1375
Au 18.8568 23.418 23.5354
Au 19.8089 21.2826 24.8921
Au 16.6444 22.6293 21.8981
Au 17.589 16.9361 19.0622
Au 18.9413 17.8359 16.8216
Au 16.611 19.3045 17.7268
Au 19.5104 15.7301 21.0469
Au 17.0923 17.3654 22.1669
Au 21.8756 17.1682 17.2179
Au 20.9187 19.658 15.7987
Au 22.0987 15.9158 19.9763
Au 21.7402 16.3478 22.8193
Au 15.6336 21.3177 19.6044
Au 17.1956 22.2594 17.2665
Au 15.9679 19.9856 22.3033
Au 17.952 18.8495 24.2022
Au 19.8812 22.304 16.147
Au 20.8816 18.545 24.5823
Au 27.9686 23.3157 20.5522
Au 21.089 27.7871 23.4252
Au 19.4073 13.0951 17.0631
Au 12.8281 17.2885 19.8247
Au 22.0334 26.3704 15.2368
Au 23.7275 20.771 27.5725
Au 17.2199 19.9834 13.0415
Au 18.7988 14.5478 25.7786
Au 25.3002 18.492 14.2177
Au 26.2509 15.088 22.2213
Au 14.5919 25.6568 18.7845
Au 15.5843 22.2695 26.6095
Au 25.7591 24.6329 21.6768
Au 23.4006 26.2938 22.726
Au 25.9836 24.5341 18.8614
Au 24.0588 25.5129 17.1635
Au 21.6347 27.4322 20.7893
Au 21.8598 27.0617 17.8621
Au 23.8748 25.9455 19.8383
Au 26.8495 22.346 23.0309
Au 25.3744 21.7563 25.5735
Au 22.1 25.6861 24.9846
Au 22.9021 23.4021 26.4809
Au 24.613 24.1103 24.2491
Au 27.2251 21.7798 18.5313
Au 26.3642 20.1014 16.2106
Au 23.3874 24.0689 14.7142
Au 24.668 21.2558 14.3512
Au 25.4301 22.9555 16.6668
Au 27.6766 20.5683 21.2298
Au 27.0961 17.6511 21.5153
Au 24.7611 19.0793 25.6691
Au 25.7412 16.7573 24.08
Au 26.2296 19.716 23.6018
Au 25.6445 17.5619 16.6714
Au 25.88 16.0693 19.5859
Au 26.8161 18.9231 18.912
Au 18.8042 27.1165 22.0334
Au 16.6528 26.62 20.4249
Au 19.6564 26.438 16.4018
Au 17.1698 26.2056 17.7456
Au 19.4034 26.8607 19.3082
Au 18.952 25.9625 24.4977
Au 17.1279 24.0323 25.5081
Au 21.1364 21.3513 27.1921
Au 18.2842 21.8171 26.8614
Au 20.1453 23.812 26.0219
Au 14.4192 24.5894 21.2693
Au 14.9031 23.5103 24.0656
Au 16.6435 25.1917 22.7681
Au 17.1723 14.3174 18.1311
Au 15.1092 15.8047 19.1958
Au 18.6035 15.1603 15.8613
Au 17.8119 17.6658 14.3176
Au 14.0513 18.319 17.6541
Au 15.5595 19.3063 15.2482
Au 16.2975 16.9446 16.6856
Au 19.0957 13.3958 20.0297
Au 18.8251 13.8424 22.9065
Au 14.5798 16.4972 22.0314
Au 16.537 15.3996 24.053
Au 16.8603 14.6919 21.3036
Au 21.3631 14.7359 16.0976
Au 23.4916 16.5084 15.2432
Au 19.9848 19.5128 13.2986
Au 22.7614 18.9012 13.8729
Au 20.6204 17.0396 14.7354
Au 21.8133 13.5388 18.7799
Au 24.1494 14.2951 20.5506
Au 21.2079 14.5454 24.7436
Au 23.7868 14.7599 23.6144
Au 21.5226 13.8212 21.8108
Au 23.7179 15.0973 17.7801
Au 13.1424 20.0422 19.646
Au 13.8013 22.9154 19.215
Au 16.4872 22.0809 14.7295
Au 15.3164 23.8799 16.8437
Au 14.5863 21.0066 17.2146
Au 13.4907 18.9764 22.1585
Au 14.2497 20.6778 24.3841
Au 17.4026 16.879 25.9984
Au 16.2926 19.6406 26.2262
Au 15.2871 17.9692 24.2451
Au 13.9802 21.818 21.6626
Au 20.3547 24.459 14.4189
Au 18.9314 22.1029 13.6557
Au 21.796 21.79 14.2574
Au 18.0196 24.3546 15.6237
Au 21.9679 18.6714 27.0187
Au 20.1442 16.5845 26.3752
Au 22.9733 16.7074 25.1944
Au 19.1869 19.255 26.6675
