146
 Atoms. Timestep: 50000
Au 11.4475 18.9408 20.7039
Au 12.4759 21.1597 21.9489
Au 14.1287 23.1387 22.4042
Au 15.7048 25.0092 23.0209
Au 17.3514 27.1062 23.871
Au 18.9607 28.8136 24.151
Au 13.0258 17.3645 19.7623
Au 14.3937 19.5781 20.5413
Au 16.0865 21.6393 21.4888
Au 17.8836 23.7186 22.1625
Au 19.3264 25.7699 22.8869
Au 21.3353 27.6454 23.7372
Au 14.9839 15.9243 18.7705
Au 16.6128 17.9707 19.67
Au 18.5246 19.9968 20.3913
Au 20.2286 22.1512 21.1105
Au 21.8259 24.4288 21.9234
Au 23.58 26.2308 22.7696
Au 17.0132 14.5144 18.0067
Au 18.9345 16.3999 18.7436
Au 20.7211 18.5526 19.3794
Au 22.4526 20.7314 20.3412
Au 24.1429 23.0522 21.1138
Au 25.6396 25.0718 21.7381
Au 19.032 13.2061 17.1004
Au 21.0131 14.8538 17.8323
Au 22.8519 17.0033 18.5628
Au 24.6915 19.1613 19.3661
Au 26.0606 21.3843 20.1335
Au 27.6756 23.4226 21
Au 21.3655 11.8061 16.7837
Au 23.1745 13.5059 17.0208
Au 24.9245 15.4866 17.7096
Au 26.872 17.7228 18.5488
Au 28.2775 19.8741 19.3415
Au 29.6059 21.9827 20.0556
Au 12.5722 19.8501 18.6265
Au 14.0135 22.1247 19.6279
Au 15.8289 24.2616 20.3454
Au 17.2959 26.3986 21.0901
Au 18.9328 28.2782 21.811
Au 14.5942 18.5987 17.6896
Au 16.0787 20.6625 18.5756
Au 18.029 22.6339 19.4751
Au 19.6925 24.825 20.0961
Au 21.3858 26.9086 21.1249
Au 16.7553 16.9705 17.0113
Au 18.3807 19.0997 17.7121
Au 20.2459 21.2177 18.3615
Au 21.9671 23.4827 19.2887
Au 23.5934 25.7161 20.0661
Au 18.9705 15.4574 16.0008
Au 20.6754 17.6833 16.7494
Au 22.5685 19.697 17.7075
Au 24.0216 21.9476 18.3504
Au 25.7687 24.212 19.0511
Au 21.2147 13.9957 15.3486
Au 22.9149 16.2438 15.9618
Au 24.6127 18.1683 16.6838
Au 26.2417 20.24 17.3752
Au 27.7562 22.5616 18.3185
Au 14.163 21.2714 17.0441
Au 15.874 23.4323 17.7031
Au 17.5374 25.6036 18.3706
Au 19.3998 27.4925 19.3164
Au 16.1993 19.5588 15.7752
Au 18.0744 21.6969 16.7503
Au 19.5744 23.9789 17.4563
Au 21.5352 25.969 18.2906
Au 18.4315 18.027 15.1371
Au 20.5706 20.1657 15.7314
Au 22.0613 22.6023 16.6138
Au 23.7761 24.6935 17.3723
Au 20.7623 16.6915 14.3238
Au 22.6202 18.6396 14.8179
Au 24.3227 20.7714 15.6812
Au 25.8387 22.9392 16.5068
Au 16.021 22.0925 15.3573
Au 17.3626 24.5223 15.871
Au 19.4551 26.4208 16.711
Au 18.1689 20.6456 14.2398
Au 19.9214 22.8233 14.9877
Au 21.6757 25.1423 15.6166
Au 20.1962 19.2519 13.3746
Au 22.3722 21.253 14.1295
Au 23.9922 23.3597 14.7603
Au 17.7444 23.3908 13.5663
Au 19.4273 25.351 14.247
Au 19.997 21.5529 12.4339
Au 21.7067 23.9019 13.42
Au 19.6147 24.1184 11.9929
Au 13.0399 18.4124 22.6255
Au 14.5011 20.5061 23.4537
Au 16.2266 22.5699 24.0892
Au 17.7998 24.6361 25.0457
Au 19.5654 26.4871 25.6006
Au 14.8392 16.8184 21.5115
Au 16.487 19.0141 22.2608
Au 18.2439 21.0937 23.1057
Au 19.9645 23.1425 24.0378
Au 21.6972 25.2535 24.74
Au 16.9685 15.2926 20.6636
Au 18.7936 17.3176 21.3572
Au 20.4177 19.3967 22.1342
Au 22.2558 21.7343 23.0503
Au 23.9671 23.773 23.8313
Au 19.166 13.7874 19.8516
Au 21.0563 15.8665 20.4705
Au 23.0648 17.9649 21.3551
Au 24.7529 20.2918 22.2685
Au 26.171 22.4142 23.0019
Au 21.4891 12.4681 19.2303
Au 23.2228 14.3446 19.7563
Au 25.1893 16.4872 20.4103
Au 26.8647 18.5641 21.0077
Au 28.1579 20.8996 21.8677
Au 15.1352 17.668 24.2023
Au 16.4791 19.846 25.1515
Au 18.2333 21.8533 26.0416
Au 20.0554 24.0128 26.564
Au 17.0068 16.0909 23.5057
Au 18.6611 18.4386 24.0789
Au 20.4919 20.4941 25.0131
Au 22.1119 22.6745 25.6389
Au 19.1605 14.7479 22.434
Au 20.922 16.8896 23.0722
Au 22.6519 19.0699 23.7875
Au 24.4679 21.1587 24.9302
Au 21.3224 13.3927 21.7086
Au 23.5666 15.3536 22.3731
Au 25.1899 17.5667 23.0441
Au 26.7618 19.8481 23.9087
Au 17.2765 17.3266 25.8527
Au 18.8138 19.3843 26.803
Au 20.4037 21.3309 27.4489
Au 19.4921 15.6549 25.1873
Au 21.1512 17.9959 25.8364
Au 22.7545 20.1405 26.5633
Au 21.6304 14.4952 24.1005
Au 23.3308 16.3974 24.8337
Au 24.7996 18.7301 25.5182
Au 19.4702 17.0755 27.505
Au 21.1258 19.0397 28.3126
Au 21.6075 15.5019 26.7313
Au 23.3249 17.4641 27.4762
Au 21.5375 16.5768 29.1793
