1634
 Atoms. Timestep: 50000
Au 22.2045 12.7331 37.3866
Au 21.9801 13.9276 34.8474
Au 21.6019 15.0582 32.3388
Au 21.3919 16.1543 29.7859
Au 21.0095 17.314 27.1692
Au 21.0613 18.8301 24.3288
Au 20.5417 19.794 21.7061
Au 20.0728 21.1984 19.2173
Au 19.8179 22.1612 16.3335
Au 19.6914 23.5245 13.6894
Au 19.3102 24.7013 10.995
Au 19.2822 25.9654 8.45195
Au 18.8384 27.0929 5.81798
Au 18.8877 28.2537 3.53397
Au 19.6676 13.3456 36.4009
Au 19.384 14.2427 33.7924
Au 18.9893 15.534 31.2416
Au 18.7555 16.8288 28.7328
Au 18.7602 18.067 25.8326
Au 18.1447 19.2246 23.3312
Au 17.792 20.448 20.6979
Au 17.5641 21.677 17.9186
Au 17.3649 22.8468 15.092
Au 17.1416 24.0031 12.3831
Au 16.7804 25.2666 9.74214
Au 16.4408 26.3915 7.22331
Au 16.3423 27.7077 4.7457
Au 21.376 15.3532 37.3769
Au 21.0599 16.6704 34.7467
Au 20.9319 17.8553 32.1899
Au 20.496 18.9846 29.4507
Au 20.1086 20.2144 26.9063
Au 20.0049 21.3917 23.9511
Au 19.7809 22.5345 21.6427
Au 19.4183 24.0006 18.7026
Au 19.1533 25.1206 15.9918
Au 18.7486 26.1642 13.219
Au 18.4732 27.4575 10.7065
Au 18.0832 28.5416 8.0532
Au 18.1343 29.6604 5.59466
Au 23.9179 14.5735 36.449
Au 23.7126 15.6988 33.9691
Au 23.594 16.8382 31.4081
Au 23.2578 17.9368 28.8718
Au 22.8811 19.3872 26.2815
Au 22.7683 20.5264 23.4114
Au 22.3496 21.7699 20.9343
Au 22.0304 22.9875 18.2209
Au 21.6462 24.0781 15.4755
Au 21.6107 25.2949 12.5666
Au 21.4561 26.5912 10.2115
Au 21.0808 27.8552 7.4968
Au 21.0077 28.9486 5.07194
Au 23.7559 11.8601 35.379
Au 23.7292 13.1418 32.813
Au 23.5312 14.3453 30.1803
Au 23.1886 15.3798 27.6324
Au 23.0901 16.7773 25.159
Au 22.6264 17.9017 22.2246
Au 22.1095 19.4256 19.6089
Au 21.9186 20.3037 17.0065
Au 21.7528 21.5243 14.233
Au 21.4532 22.5996 11.5035
Au 21.0591 23.8515 8.88497
Au 21.0338 25.0264 6.38373
Au 20.807 26.4774 3.93019
Au 21.1437 11.2356 35.2586
Au 20.992 12.2288 32.7167
Au 20.6212 13.4859 30.1387
Au 20.2949 14.7203 27.6175
Au 20.3825 15.9413 24.7492
Au 19.9516 17.2284 22.2564
Au 19.3549 18.3811 19.5751
Au 19.1561 19.4346 16.9523
Au 18.9354 20.7276 14.2421
Au 18.7131 21.9094 11.5744
Au 18.3517 23.0711 8.96287
Au 18.1074 24.3461 6.21585
Au 17.7921 25.4002 3.71161
Au 17.229 13.9059 35.4048
Au 16.7727 14.9438 32.8939
Au 16.671 16.1365 30.2234
Au 16.1472 17.4803 27.5636
Au 15.9563 18.5536 24.9314
Au 15.3746 19.7916 22.2277
Au 15.4586 20.943 19.5425
Au 15.055 21.9986 16.7963
Au 14.7515 23.4479 14.2117
Au 14.61 24.6715 11.445
Au 13.974 25.8602 8.63892
Au 14.1584 27.2493 6.27968
Au 18.9186 15.9415 36.2694
Au 18.5713 17.0588 33.6024
Au 18.2584 18.3014 31.1874
Au 17.9937 19.4968 28.5448
Au 17.7141 20.723 25.6442
Au 17.2665 21.999 22.9451
Au 17.319 23.0068 20.2957
Au 16.8935 24.325 17.4012
Au 16.4559 25.652 14.7598
Au 16.1149 26.9249 11.9618
Au 15.6311 28.0788 9.28481
Au 15.6879 29.4614 7.02483
Au 20.5527 18.1966 37.0635
Au 20.3854 19.4811 34.4936
Au 20.0354 20.5289 31.8526
Au 19.7944 21.694 29.1867
Au 19.4225 22.8723 26.369
Au 19.0577 24.0077 23.937
Au 19.1809 25.3031 21.0608
Au 18.6055 26.5264 18.3405
Au 18.2075 27.7778 15.6322
Au 17.8458 28.9872 12.9756
Au 17.7958 30.1448 10.3591
Au 17.7204 31.3393 7.85174
Au 23.3365 17.1539 36.3638
Au 23.0619 18.4238 34.0083
Au 22.8978 19.6634 31.1569
Au 22.4651 21.0465 28.6936
Au 22.0997 22.1207 25.6844
Au 21.7985 23.5653 23.1349
Au 21.7573 24.6036 20.4836
Au 21.3364 25.9301 17.7246
Au 20.9746 27.0083 14.9597
Au 20.7219 28.0782 12.3146
Au 20.362 29.337 9.84605
Au 20.3301 30.4991 7.38474
Au 26.009 16.4748 35.6364
Au 25.8593 17.7049 33.3431
Au 25.3762 18.751 30.5343
Au 25.0543 20.1227 27.9431
Au 24.9152 21.151 25.1791
Au 24.5372 22.5811 22.5976
Au 24.4031 23.6737 19.9094
Au 23.9216 24.9819 17.1605
Au 23.6782 26.2784 14.5526
Au 23.4259 27.4445 11.8455
Au 23.3337 28.6465 9.18746
Au 22.8767 29.8152 6.55431
Au 25.7319 13.8308 34.6448
Au 25.7895 14.9332 32.0944
Au 25.4736 16.1193 29.4036
Au 25.0639 17.4558 26.9245
Au 24.6894 18.7358 24.044
Au 24.5405 19.8697 21.2205
Au 24.1093 21.0972 18.6571
Au 23.8511 22.3467 16.1055
Au 23.6036 23.4988 13.4367
Au 23.3178 24.5795 10.4738
Au 23.0932 25.8008 7.97585
Au 22.9569 27.0044 5.54959
Au 25.6375 11.3505 33.2337
Au 25.6421 12.3843 30.6567
Au 25.2279 13.4994 28.0905
Au 24.9914 14.8713 25.4887
Au 24.7371 15.9934 22.8807
Au 24.5422 17.29 20.1607
Au 23.9869 18.5417 17.6764
Au 23.7866 19.7402 14.7706
Au 23.5636 20.9195 12.0766
Au 23.2591 21.9992 9.44465
Au 22.9143 23.0543 6.64154
Au 22.7055 24.4527 4.32715
Au 22.9971 10.3504 33.1965
Au 22.8047 11.534 30.6839
Au 22.3335 12.7093 28.1653
Au 22.1335 13.9031 25.6377
Au 22.0333 15.1954 22.7043
Au 21.699 16.5157 20.2099
Au 21.2992 17.6984 17.5392
Au 21.0708 18.7674 14.9383
Au 20.7273 19.9166 12.0678
Au 20.673 21.2037 9.3066
Au 20.2612 22.3103 6.57076
Au 19.9728 23.4982 4.12041
Au 20.3249 9.69987 33.2753
Au 20.079 10.8019 30.4938
Au 19.4991 12.0054 27.9995
Au 19.3551 13.1743 25.3597
Au 19.1517 14.3463 22.7258
Au 18.9388 15.5705 20.0456
Au 18.6193 16.7573 17.4098
Au 18.2016 17.8041 14.6931
Au 17.9781 19.2303 11.7469
Au 17.827 20.3538 9.19969
Au 17.5087 21.6356 6.69849
Au 17.4144 22.6325 4.08777
Au 18.6392 11.7419 34.1927
Au 18.346 12.6583 31.6586
Au 17.9727 14.0124 28.85
Au 17.8269 15.3501 26.4097
Au 17.708 16.4553 23.8046
Au 17.198 17.7382 21.0877
Au 16.6893 18.7186 18.2702
Au 16.7112 19.9494 15.7033
Au 16.4121 21.3739 12.972
Au 16.1296 22.5498 10.2106
Au 15.7238 23.6877 7.57797
Au 15.6421 24.9456 5.16507
Au 14.3664 14.3835 34.2161
Au 14.1579 15.6005 31.7809
Au 13.9453 16.8259 29.3762
Au 13.5559 18.1773 26.5222
Au 13.2539 19.2222 23.9707
Au 12.9798 20.4341 21.2639
Au 12.8222 21.526 18.501
Au 12.4422 22.6551 15.8972
Au 12.0428 23.8704 13.1434
Au 12.0197 25.0074 10.3937
Au 11.6848 26.1515 7.85199
Au 16.0627 16.4208 35.3482
Au 15.9486 17.6376 32.5895
Au 15.6262 18.9166 29.8787
Au 15.3906 20.2867 27.3695
Au 15.1999 21.3136 24.6497
Au 14.7854 22.5366 21.9137
Au 14.7659 23.6132 19.0651
Au 14.3728 24.6646 16.459
Au 13.8825 26.1261 13.6938
Au 13.4375 27.2975 11.0437
Au 13.1188 28.5099 8.37822
Au 18.0975 18.6642 35.8611
Au 17.6597 19.9085 33.3194
Au 17.3641 21.0914 30.6961
Au 17.1581 22.2361 28.0523
Au 16.8535 23.467 25.3324
Au 16.692 24.6301 22.5031
Au 16.5216 25.6835 19.9413
Au 16.0456 27.0203 17.285
Au 15.5577 28.3065 14.5068
Au 15.3558 29.4816 11.7707
Au 15.1375 30.8359 9.27479
Au 19.7645 20.8855 36.6165
Au 19.5222 22.1074 34.0915
Au 19.1196 23.1739 31.3604
Au 18.8361 24.4988 28.7378
Au 18.7159 25.682 26.0375
Au 18.5274 26.8475 23.2514
Au 17.9946 27.9274 20.7553
Au 17.5725 29.3091 17.8888
Au 17.3257 30.4568 15.3053
Au 17.08 31.7043 12.5642
Au 16.8635 32.7642 10.1515
Au 22.5264 19.86 36.3106
Au 22.2474 21.134 33.456
Au 21.8788 22.3091 30.9741
Au 21.4714 23.6136 28.2625
Au 21.4686 25.0003 25.6522
Au 21.1755 26.1984 22.9105
Au 20.9329 27.2115 20.1826
Au 20.4379 28.5032 17.3394
Au 20.0114 29.6913 14.7646
Au 20.0304 30.9827 11.9859
Au 19.6436 32.0878 9.58761
Au 25.3384 19.1207 35.603
Au 25.0197 20.5155 33.0017
Au 24.7616 21.6058 30.345
Au 24.1872 22.7305 27.2481
Au 23.9556 24.1895 24.8977
Au 23.7444 25.3528 22.3567
Au 23.4362 26.4545 19.5345
Au 23.2127 27.8381 16.7972
Au 22.9344 28.9316 14.2368
Au 22.6177 30.2337 11.5511
Au 22.3725 31.2807 8.91764
Au 27.8746 18.5064 34.7507
Au 27.6051 19.7746 32.3486
Au 27.5055 20.8627 29.7168
Au 27.1351 22.0177 26.9158
Au 26.5771 23.2371 24.33
Au 26.5317 24.562 21.5416
Au 26.2787 25.6462 18.7548
Au 25.8268 26.7713 16.0486
Au 25.7625 28.0833 13.5095
Au 25.3616 29.2341 10.9429
Au 24.8833 30.5234 8.40604
Au 27.7148 15.521 33.8073
Au 27.5625 17.0106 31.1911
Au 27.3592 18.3275 28.4149
Au 26.8186 19.396 25.6954
Au 26.6729 20.4741 22.9793
Au 26.3056 21.9243 20.3317
Au 25.9763 22.9933 17.6471
Au 25.5682 24.0342 15.1042
Au 25.5493 25.4342 12.261
Au 25.3685 26.7455 9.67546
Au 24.986 27.9623 7.20666
Au 27.7323 12.9366 32.325
Au 27.6404 14.2648 30.0215
Au 26.9905 15.4019 27.3153
Au 26.8509 16.7191 24.5702
Au 26.4482 17.8002 21.9555
Au 26.4417 19.2102 19.2351
Au 25.9841 20.3901 16.6499
Au 25.7564 21.6416 13.8633
Au 25.5528 22.6711 11.2326
Au 25.0911 24.0762 8.45635
Au 24.8055 25.0308 6.03185
Au 27.5763 10.561 31.1365
Au 27.3749 11.6599 28.4306
Au 26.9021 12.9618 25.8782
Au 26.7973 14.0865 23.2867
Au 26.4503 15.2701 20.6463
Au 26.2273 16.4195 18.1315
Au 25.9282 17.6696 15.2933
Au 25.6601 19.0389 12.7301
Au 25.4545 20.1439 10.083
Au 25.193 21.3677 7.28605
Au 25.0022 22.4826 5.0243
Au 24.8857 9.67479 31.0628
Au 24.551 10.7644 28.5266
Au 24.2082 12.0085 25.9967
Au 23.9567 13.3058 23.2296
Au 23.619 14.544 20.4266
Au 23.408 15.7319 17.9185
Au 23.2045 16.8992 15.3766
Au 22.7609 18.3692 12.7786
Au 22.5038 19.3171 10.0815
Au 22.3579 20.505 7.17263
Au 21.9661 21.4373 4.65785
Au 21.9711 8.82263 31.011
Au 21.7123 9.96945 28.2686
Au 21.3933 11.1753 25.7891
Au 21.1559 12.541 23.2976
Au 20.934 13.735 20.4486
Au 20.7873 14.9212 17.8116
Au 20.4355 16.1941 15.2138
Au 19.9051 17.3139 12.4325
Au 19.759 18.4039 9.94995
Au 19.5262 19.6886 7.25164
Au 19.3111 20.6868 4.50443
Au 19.417 8.11186 31.1464
Au 18.9608 9.29181 28.5542
Au 18.7258 10.6248 25.795
Au 18.5745 11.5122 23.2688
Au 18.2375 12.8956 20.4227
Au 18.0866 13.9693 17.7697
Au 17.6793 15.0869 15.1629
Au 17.2063 16.4395 12.3096
Au 17.035 17.6885 9.65973
Au 16.8289 18.7915 6.99756
Au 16.644 19.9585 4.61172
Au 17.7762 9.85146 32.2039
Au 17.3152 11.1501 29.6075
Au 17.0043 12.5652 26.6375
Au 16.7595 13.7982 24.1397
Au 16.6715 14.9679 21.4452
Au 16.1529 16.0389 18.7571
Au 15.9529 17.3108 16.1393
Au 15.6974 18.5344 13.4414
Au 15.4325 19.7762 10.7912
Au 15.0245 20.8403 8.09868
Au 15.0045 22.1339 5.52523
Au 16.0993 12.4005 33.3347
Au 15.6504 13.2977 30.8681
Au 15.4753 14.8324 28.0802
Au 15.233 15.8917 25.4112
Au 14.9885 16.9837 22.7636
Au 14.5278 18.0019 20.1669
Au 14.2244 19.3488 17.2985
Au 14.1269 20.7768 14.4602
Au 13.8604 21.9897 11.8209
Au 13.4676 23.0601 9.01629
Au 13.2615 23.9605 6.64577
Au 11.9835 15.1511 33.1813
Au 11.524 16.1814 30.8687
Au 11.4356 17.3981 28.1719
Au 10.9836 18.6316 25.6347
Au 10.6822 19.746 22.7558
Au 10.4591 20.9773 20.0585
Au 10.1586 22.0443 17.3576
Au 9.83303 23.0776 14.7155
Au 9.65064 24.2759 11.9868
Au 9.48458 25.4245 9.58825
Au 13.5523 17.1791 34.0587
Au 13.1706 18.3102 31.6049
Au 13.1159 19.5881 28.9017
Au 12.9053 20.7626 26.2002
Au 12.4456 21.8629 23.6179
Au 12.2661 23.104 20.8189
Au 11.9842 24.196 18.095
Au 11.5558 25.5012 15.3828
Au 11.2744 26.622 12.8162
Au 10.9689 27.9009 10.1575
Au 15.4616 19.3436 34.6577
Au 14.9662 20.5158 32.2527
Au 14.7871 21.684 29.7691
Au 14.4711 22.846 27.1213
Au 14.224 23.9414 24.1949
Au 14.0097 25.3982 21.53
Au 13.6802 26.234 18.6078
Au 13.3546 27.4402 16.1093
Au 12.9358 28.981 13.396
Au 12.8279 30.0943 10.9661
Au 17.1659 21.4159 35.7159
Au 16.8339 22.4313 33.0265
Au 16.5715 23.8153 30.3551
Au 16.3511 25.0478 27.7282
Au 16.1801 26.0061 24.9724
Au 15.7738 27.3267 22.2212
Au 15.4204 28.4507 19.5251
Au 15.0416 29.772 16.8477
Au 14.9373 30.9465 14.3
Au 14.5188 32.1427 11.7231
Au 19.0528 23.6834 36.0881
Au 18.5765 24.6912 33.5813
Au 18.3989 25.8547 30.9692
Au 18.0023 27.2012 28.5464
Au 17.7003 28.2649 25.7737
Au 17.5205 29.4848 23.0051
Au 17.1624 30.746 20.3878
Au 16.7424 31.8926 17.6874
Au 16.6738 33.1855 14.926
Au 16.2176 34.3144 12.6612
Au 21.5881 22.7376 35.7805
Au 21.2409 24.0095 33.3585
Au 21.0713 25.1531 30.6631
Au 20.7485 26.2479 28.0349
Au 20.3787 27.6534 25.1543
Au 20.2424 28.8676 22.4416
Au 19.8028 29.9901 19.6448
Au 19.6124 31.2089 17.1236
Au 19.4596 32.4749 14.4903
Au 19.0314 33.619 11.914
Au 24.1868 22.1027 35.2026
Au 24.0085 23.2062 32.7387
Au 23.7061 24.3376 29.9188
Au 23.5817 25.648 27.2937
Au 23.288 26.9087 24.48
Au 23.0492 27.9717 21.7702
Au 22.5219 29.156 18.9868
Au 22.2348 30.3979 16.3577
Au 22.1026 31.7868 13.8425
Au 22.0011 32.7979 11.1548
Au 27.2176 21.345 34.7796
Au 26.7921 22.4704 32.1035
Au 26.464 23.5262 29.3039
Au 26.1587 24.7412 26.6802
Au 26.1013 26.0419 23.8343
Au 25.6839 27.2488 21.0692
Au 25.4268 28.3454 18.452
Au 25.361 29.6492 15.8223
Au 24.868 30.8149 13.1447
Au 24.5716 32.0751 10.7843
Au 29.6671 20.474 33.7508
Au 29.442 21.713 31.6507
Au 29.5254 22.7613 28.6081
Au 29.0988 23.9347 25.9822
Au 28.7217 25.1596 23.2149
Au 28.3354 26.385 20.4802
Au 28.1536 27.5703 17.9361
Au 27.8959 28.6479 15.3544
Au 27.6347 29.7966 12.665
Au 27.1615 31.0355 10.3431
Au 29.7218 17.6727 32.8486
Au 29.4749 18.7469 30.2257
Au 29.2095 20.095 27.6337
Au 28.7221 21.3144 24.7868
Au 28.3919 22.4874 22.0976
Au 28.4055 23.5171 19.3943
Au 28.1994 24.7969 16.7452
Au 27.7212 26.1174 13.9004
Au 27.5414 27.2848 11.3363
Au 27.2499 28.6974 8.88248
Au 29.7678 15.1246 31.6467
Au 29.1283 16.2414 28.9603
Au 28.8526 17.6493 26.2226
Au 28.5937 18.6438 23.588
Au 28.4259 19.8995 20.9499
Au 28.1957 21.1732 18.1645
Au 27.7951 22.2852 15.3949
Au 27.6677 23.5641 12.7296
Au 27.2997 24.6576 10.1901
Au 27.1409 26.012 7.70625
Au 29.6564 12.2222 30.2069
Au 29.1361 13.5536 27.6627
Au 28.7882 14.667 25.1112
Au 28.6682 16.0516 22.5888
Au 28.4043 17.1682 19.8336
Au 28.0363 18.4381 17.0759
Au 27.7731 19.6773 14.3213
Au 27.7799 20.9463 11.7169
Au 27.3712 22.0764 9.07176
Au 27.1855 23.1015 6.53548
Au 29.4253 9.86944 28.8871
Au 29.2585 10.8621 26.4646
Au 28.7277 12.2214 23.8683
Au 28.579 13.4165 21.3142
Au 28.2854 14.5668 18.5334
Au 27.8818 15.6811 15.7965
Au 27.7756 17.0662 13.1734
Au 27.5491 18.2704 10.5774
Au 27.2026 19.5143 8.11115
Au 27.1646 20.5946 5.55361
Au 26.6626 8.99957 29.0709
Au 26.4775 10.0014 26.4674
Au 25.9257 11.3036 23.9571
Au 25.8371 12.4874 21.2457
Au 25.5437 13.726 18.5133
Au 25.2077 14.792 15.8971
Au 24.9431 16.1861 13.1577
Au 24.8092 17.6251 10.6305
Au 24.1017 18.481 7.99921
Au 24.153 19.639 5.33514
Au 23.9779 7.88481 28.9481
Au 23.4685 9.25349 26.3486
Au 23.2219 10.5492 23.8196
Au 22.9911 11.9056 21.132
Au 22.7343 12.9581 18.4218
Au 22.394 14.182 15.7612
Au 22.2271 15.4817 13.1725
Au 21.8181 16.781 10.364
Au 21.3946 17.7066 7.66402
Au 21.2378 18.8692 5.0844
Au 21.2376 7.31635 28.8163
Au 20.8396 8.50198 26.2072
Au 20.5043 9.55614 23.6157
Au 20.2915 10.9532 20.9932
Au 20.07 12.0839 18.2374
Au 19.8072 13.1649 15.7393
Au 19.4625 14.5249 12.8951
Au 19.0922 15.8333 10.2505
Au 18.7995 16.7732 7.37068
Au 18.5031 18.0436 4.88406
Au 18.5445 6.72218 28.6911
Au 18.0652 7.9452 26.2759
Au 17.91 8.82832 23.439
Au 17.6212 10.0995 20.941
Au 17.4473 11.2443 18.2948
Au 17.0349 12.4303 15.512
Au 16.8474 13.6758 12.7592
Au 16.3832 14.8883 10.1304
Au 15.9801 16.0826 7.50283
Au 15.8576 17.0312 4.93745
Au 16.9521 8.44431 30.0653
Au 16.4265 9.72056 27.5597
Au 16.1773 10.8286 24.753
Au 16.1191 12.2583 21.8842
Au 15.7197 13.1922 19.0894
Au 15.1959 14.6355 16.7012
Au 15.2396 15.7326 13.8656
Au 14.6758 16.9548 11.0726
Au 14.442 18.2139 8.57513
Au 14.3383 19.323 6.05413
Au 15.1977 10.5475 31.2795
Au 14.9945 12.0938 28.3826
Au 14.3965 13.1982 25.7192
Au 14.3797 14.2616 23.1502
Au 14.0599 15.3057 20.4222
Au 13.5839 16.5781 17.7618
Au 13.3163 17.7885 15.0122
Au 13.0444 19.1338 12.2646
Au 12.7182 20.2838 9.6669
Au 12.5707 21.2907 7.15493
Au 13.4815 12.7229 32.2654
Au 13.1227 14.0226 29.8122
Au 12.8596 15.3415 27.0645
Au 12.6464 16.5445 24.5152
Au 12.2529 17.6359 21.7729
Au 12.1246 18.9426 19.0276
Au 11.819 20.0425 16.2161
Au 11.5882 21.0762 13.5212
Au 11.1551 22.2233 10.8631
Au 10.8825 23.3784 8.35491
Au 9.23455 15.3791 31.9765
Au 8.91785 16.8581 29.6975
Au 8.77696 18.0537 27.0696
Au 8.31591 19.0983 24.4422
Au 8.16035 20.3019 21.6045
Au 7.81989 21.1803 18.8648
Au 7.5883 22.6504 16.2924
Au 7.32697 23.6205 13.6427
Au 7.11795 24.6187 11.1919
Au 10.7492 17.5626 33.1834
Au 10.6963 18.8638 30.5552
Au 10.497 20.1196 28.0048
Au 10.1823 21.2251 25.2109
Au 9.94191 22.5143 22.4262
Au 9.55805 23.659 19.5438
Au 9.1634 24.8634 16.8679
Au 8.91752 26.0624 14.1602
Au 8.66662 26.9789 11.5611
Au 12.6828 19.9135 33.78
Au 12.3959 21.0451 31.1517
Au 12.1702 22.214 28.6422
Au 12.0581 23.453 25.9489
Au 11.7309 24.5299 23.0809
Au 11.5162 25.8519 20.544
Au 10.8866 26.853 17.7101
Au 10.6135 28.1389 15.0085
Au 10.4079 29.4108 12.5071
Au 14.4691 22.0614 34.5905
Au 14.0806 23.2873 32.0499
Au 14.0662 24.4515 29.4381
Au 13.7476 25.5618 26.5496
Au 13.5722 26.7301 23.8683
Au 13.1315 28.0695 20.9449
Au 12.7441 28.9917 18.4577
Au 12.3866 30.2009 15.9424
Au 12.1989 31.6086 13.2979
Au 16.2047 24.1127 35.368
Au 16.0256 25.0584 32.8653
Au 15.7453 26.6199 30.2143
Au 15.4583 27.7716 27.3468
Au 15.2647 28.968 24.6185
Au 14.8217 30.1658 21.9318
Au 14.3979 31.2095 19.3794
Au 14.2854 32.5156 16.492
Au 13.9518 33.7023 14.0151
Au 17.8923 26.2652 35.6076
Au 17.7641 27.4547 33.3139
Au 17.5913 28.803 30.8186
Au 17.1774 29.9535 28.1987
Au 16.8941 30.9941 25.62
Au 16.6994 32.0667 23.053
Au 16.0596 33.2422 20.0386
Au 16.0476 34.5766 17.4715
Au 15.6775 35.767 15.048
Au 20.5199 25.8728 35.5728
Au 20.5146 26.8812 32.8928
Au 20.1497 27.8642 30.3022
Au 19.901 28.9658 27.5679
Au 19.4936 30.321 24.8696
Au 19.3085 31.4565 21.9298
Au 19.0187 32.7307 19.3744
Au 18.638 33.9447 16.9078
Au 18.587 35.1663 14.3063
Au 23.5105 24.9045 34.8576
Au 23.2274 25.8612 32.2287
Au 22.8596 27.1634 29.5043
Au 22.589 28.2352 26.9153
Au 22.4923 29.5094 24.0565
Au 22.1057 30.8481 21.5762
Au 21.8368 32.0796 18.9269
Au 21.4768 33.1912 16.2276
Au 21.3224 34.4435 13.572
Au 26.2318 24.0982 34.3827
Au 25.8091 25.057 31.5721
Au 25.5354 26.2931 29.0871
Au 25.3582 27.5038 26.0523
Au 25.2324 28.7595 23.4415
Au 24.7376 29.9782 20.7032
Au 24.4221 31.2023 18.1424
Au 24.2078 32.4615 15.5438
Au 23.9657 33.6761 13.0661
Au 28.7733 23.3393 33.839
Au 28.4665 24.3527 31.015
Au 28.5808 25.5559 28.3786
Au 28.1144 26.5828 25.7411
Au 27.9121 27.8952 22.9999
Au 27.5203 29.2083 20.2525
Au 27.2257 30.2778 17.7282
Au 26.9816 31.5994 15.015
Au 26.626 32.6094 12.4949
Au 31.6797 22.436 32.7888
Au 31.2797 23.631 30.3322
Au 31.2955 24.8312 27.6218
Au 30.8749 26.1395 25.1889
Au 30.625 27.0106 22.3732
Au 30.2507 28.3397 19.7872
Au 29.9959 29.3977 17.084
Au 29.6673 30.5598 14.7346
Au 29.5915 31.6029 12.0146
Au 31.5525 19.6358 32.0423
Au 31.266 20.7244 29.4401
Au 31.0568 21.9676 26.4331
Au 30.6493 23.2511 23.6972
Au 30.3988 24.503 21.2003
Au 30.1935 25.6066 18.4906
Au 29.9377 26.696 15.7978
Au 29.7103 28.0147 13.3584
Au 29.41 29.1466 10.5956
Au 31.5264 16.8321 30.6773
Au 31.2063 17.8953 28.1363
Au 30.6825 19.3658 25.4099
Au 30.4155 20.5283 22.6063
Au 30.3247 21.6664 19.9416
Au 30.1067 22.9081 17.1991
Au 29.8667 24.3011 14.5385
Au 29.4422 25.4705 11.7409
Au 29.3649 26.4953 9.30052
Au 31.2768 14.3855 29.2706
Au 30.9777 15.4842 26.681
Au 30.8204 16.8852 24.2454
Au 30.6055 17.9192 21.4547
Au 30.2465 19.0671 18.8715
Au 29.992 20.1808 16.0883
Au 29.8175 21.5047 13.6915
Au 29.5169 22.8806 10.7526
Au 29.2132 23.9999 8.18209
Au 31.2483 11.833 28.0948
Au 30.8901 12.9635 25.4906
Au 30.7167 14.1858 23.0056
Au 30.4096 15.3194 20.2675
Au 29.9745 16.5462 17.758
Au 29.8083 17.6029 14.8889
Au 29.6457 18.9147 12.1781
Au 29.3756 20.1483 9.53383
Au 29.3763 21.1178 7.04302
Au 31.0401 8.93406 26.8263
Au 30.8972 10.2211 24.2873
Au 30.5814 11.5225 21.6253
Au 30.3384 12.6713 18.9891
Au 30.1172 13.9069 16.4008
Au 29.9203 15.0781 13.8015
Au 29.5843 16.2552 11.1228
Au 29.4329 17.5338 8.54448
Au 28.7947 18.639 6.14487
Au 28.4576 8.12135 26.9201
Au 28.1016 9.42708 24.3169
Au 27.9903 10.5707 21.7646
Au 27.5881 11.9953 18.9731
Au 27.4446 12.9591 16.4243
Au 27.1047 14.1031 13.5943
Au 26.7128 15.3912 11.0441
Au 26.5465 16.7034 8.44922
Au 26.0119 17.7724 5.94485
Au 25.8592 7.45842 26.9325
Au 25.4318 8.60232 24.2592
Au 25.0411 9.8175 21.7018
Au 24.7872 11.0569 19.0597
Au 24.4672 12.253 16.3754
Au 24.3577 13.4451 13.419
Au 23.9953 14.8422 10.7816
Au 23.7008 15.8739 8.30032
Au 23.2022 17.0476 5.68218
Au 22.9267 6.56218 26.7981
Au 22.6597 7.68019 24.126
Au 22.4078 9.0876 21.5017
Au 22.1217 10.2127 18.9805
Au 21.8124 11.3901 16.2069
Au 21.5071 12.8057 13.53
Au 21.3137 14.0349 10.8179
Au 21.036 15.0491 7.97959
Au 20.6428 16.0677 5.44743
Au 20.2587 5.81654 26.7405
Au 19.8766 6.82281 24.2148
Au 19.73 8.05362 21.4292
Au 19.4105 9.26009 18.9507
Au 19.0251 10.5077 16.2082
Au 18.814 11.7777 13.4626
Au 18.6088 13.1756 10.5739
Au 18.1774 14.2506 8.06557
Au 17.9159 15.2006 5.32271
Au 17.2904 5.20663 26.4491
Au 16.9947 6.08984 24.0541
Au 16.9708 7.29453 21.4342
Au 16.559 8.52503 18.7469
Au 16.294 9.74736 16.1659
Au 16.16 10.9426 13.3897
Au 15.7963 12.0822 10.7099
Au 15.3833 13.2798 8.07937
Au 15.1323 14.4666 5.49981
Au 15.7909 7.17786 27.7533
Au 15.3997 8.08457 25.182
Au 15.1258 9.37039 22.2961
Au 15.0739 10.7469 19.4995
Au 14.6265 11.8701 17.0704
Au 14.39 13.0274 14.3455
Au 14.2551 14.2192 11.5995
Au 13.7711 15.4491 8.99816
Au 13.3771 16.6133 6.43626
Au 14.0816 9.23544 28.9289
Au 13.8173 10.186 26.268
Au 13.7995 11.5503 23.6073
Au 13.4913 12.7022 20.9608
Au 12.956 13.9491 18.1648
Au 12.855 15.1168 15.5178
Au 12.4505 16.2317 12.7729
Au 12.1373 17.548 10.0969
Au 11.8854 18.6046 7.60631
Au 12.5901 11.1523 30.0723
Au 12.3415 12.58 27.3975
Au 12.0338 13.8233 24.6922
Au 11.8986 14.9237 22.1889
Au 11.4473 16.0214 19.5811
Au 11.0514 17.0814 16.9388
Au 10.7953 18.3245 13.9243
Au 10.5131 19.6161 11.4339
Au 10.1116 20.6256 8.74642
Au 10.8389 13.4134 31.2704
Au 10.8175 14.546 28.6741
Au 10.235 15.9827 25.9666
Au 10.1055 16.8355 23.3792
Au 9.74197 18.1017 20.5872
Au 9.59356 19.2781 17.9324
Au 9.18143 20.5334 15.299
Au 8.87398 21.4993 12.5765
Au 8.51891 22.4209 9.99751
Au 6.5212 15.6295 30.8539
Au 6.36898 17.1563 28.3605
Au 6.04991 18.409 25.8683
Au 5.87942 19.7125 22.9947
Au 5.52543 20.6519 20.5167
Au 5.31082 21.958 17.7541
Au 4.75707 22.7614 15.2805
Au 4.83159 23.8511 12.6371
Au 8.29719 18.1841 31.9971
Au 8.09993 19.477 29.296
Au 8.01335 20.684 26.8324
Au 7.59022 21.8836 24.033
Au 7.20027 22.962 21.2322
Au 6.86478 24.1768 18.5469
Au 6.61751 25.313 15.9629
Au 6.29287 26.1805 13.2281
Au 10.1993 20.5974 32.8878
Au 9.837 21.6434 30.1814
Au 9.7553 22.8589 27.4529
Au 9.61482 24.0218 24.7257
Au 9.15773 25.0425 21.9082
Au 8.67286 26.308 19.2714
Au 8.29303 27.5403 16.5659
Au 8.00424 28.6088 13.8823
Au 11.7402 22.7275 33.3944
Au 11.605 23.7806 30.8459
Au 11.5497 24.8106 28.1626
Au 11.1994 26.2217 25.3543
Au 10.9038 27.2684 22.8349
Au 10.5277 28.5495 20.0845
Au 10.0769 29.6656 17.3837
Au 9.84467 30.9024 14.8471
Au 13.6259 24.7632 34.3459
Au 13.4087 25.8975 31.9399
Au 13.3901 27.0435 28.9282
Au 12.9384 28.2385 26.2747
Au 12.6977 29.5233 23.6505
Au 12.2409 30.6476 20.9513
Au 11.85 31.9869 18.17
Au 11.5813 32.9516 15.6341
Au 15.2559 27.0653 34.7772
Au 15.1111 28.2718 32.3491
Au 14.9214 29.364 29.8366
Au 14.5739 30.611 27.1777
Au 14.3603 31.8358 24.5466
Au 14.0865 32.7878 21.828
Au 13.6547 34.0311 19.0799
Au 13.3443 35.1531 16.3869
Au 17.2217 29.1217 35.6609
Au 16.9506 30.2197 33.1478
Au 16.48 31.5114 30.4303
Au 16.2758 32.8284 27.9197
Au 16.2387 33.7956 25.3234
Au 15.7821 34.9951 22.6898
Au 15.6118 35.9671 20.0674
Au 15.3536 37.1409 17.4545
Au 19.7186 28.3481 35.0784
Au 19.789 29.5739 32.6054
Au 19.4324 30.7708 29.9372
Au 19.0683 31.787 27.1774
Au 18.7348 33.0079 24.5445
Au 18.3955 34.0627 21.8062
Au 18.118 35.6589 19.0784
Au 17.8538 36.5284 16.6468
Au 22.6091 27.4502 34.5671
Au 22.3685 28.797 31.855
Au 22.005 29.8283 29.2159
Au 21.7238 30.9904 26.3502
Au 21.3377 32.2562 23.8555
Au 21.1576 33.5789 21.2716
Au 20.9801 34.666 18.6321
Au 20.6471 35.9092 16.0614
Au 25.4393 26.9963 33.8216
Au 25.178 27.8635 31.1909
Au 24.8102 28.9679 28.6289
Au 24.4359 30.2173 25.776
Au 24.2759 31.3815 23.2457
Au 23.8549 32.7148 20.5612
Au 23.7152 33.9069 18.0644
Au 23.5256 35.1275 15.5331
Au 27.9339 25.9456 33.1594
Au 27.8143 27.0884 30.7015
Au 27.4512 28.1091 28.0167
Au 27.2681 29.3639 25.3371
Au 27.0622 30.5468 22.757
Au 26.6276 31.8454 19.8867
Au 26.3589 33.0557 17.3293
Au 26.2962 34.183 14.8126
Au 30.7137 25.0119 32.7672
Au 30.49 26.2847 30.216
Au 30.2248 27.4059 27.5193
Au 30.0327 28.6285 24.7318
Au 29.988 29.7381 21.9884
Au 29.4949 31.0028 19.2767
Au 29.1014 32.2988 16.9083
Au 28.9419 33.2862 14.1354
Au 33.4203 24.4325 32.0364
Au 33.273 25.6325 29.5001
Au 33.1348 26.7666 26.7325
Au 32.7508 27.8712 24.204
Au 32.6368 29.1038 21.5382
Au 32.1746 30.1277 18.969
Au 31.9609 31.482 16.3407
Au 31.584 32.4302 13.8404
Au 33.6211 21.4096 30.9376
Au 33.1297 22.7387 28.5659
Au 32.7791 23.9268 25.6556
Au 32.6972 25.158 23.1163
Au 32.4416 26.3849 20.3521
Au 32.025 27.4386 17.6626
Au 31.836 28.7373 15.0792
Au 31.552 29.8563 12.614
Au 33.3603 18.6521 29.7954
Au 32.7781 20.0328 27.3032
Au 32.6258 21.243 24.2658
Au 32.5517 22.4711 21.7408
Au 32.2106 23.719 19.1498
Au 31.9021 24.7159 16.4418
Au 31.8382 26.0624 13.7891
Au 31.5419 27.3788 11.1052
Au 33.1322 16.0477 28.3812
Au 33.0921 17.3761 25.9127
Au 32.7794 18.6339 23.2174
Au 32.3443 19.9901 20.6029
Au 32.0538 21.0062 17.9762
Au 31.8651 22.1914 15.1366
Au 31.7131 23.6657 12.4656
Au 31.5591 24.6393 9.7266
Au 33.1396 13.5358 27.2526
Au 32.9983 14.8112 24.8359
Au 32.5639 15.9322 22.2109
Au 32.2294 17.2184 19.3291
Au 31.9871 18.4318 16.7632
Au 31.7808 19.6812 14.0209
Au 31.5038 20.8712 11.3521
Au 31.302 22.0273 8.75466
Au 32.9822 11.2118 26.0591
Au 32.8549 12.2273 23.4238
Au 32.442 13.3401 20.7644
Au 32.3244 14.6429 18.1592
Au 32.0299 15.8763 15.6173
Au 31.9882 17.2908 12.9742
Au 31.5421 18.2615 10.2521
Au 31.3318 19.2752 7.50553
Au 32.777 8.34861 24.9175
Au 32.6231 9.43405 22.4221
Au 32.5531 10.6419 19.6147
Au 32.3399 11.885 16.9331
Au 31.8132 13.0745 14.3329
Au 31.6387 14.2626 11.7856
Au 31.3689 15.6035 9.19324
Au 31.0362 16.6138 6.62187
Au 30.1995 7.4409 24.826
Au 29.9367 8.67265 22.2752
Au 29.7459 9.95565 19.4985
Au 29.4758 11.1899 16.7794
Au 29.1896 12.3973 14.3104
Au 28.8859 13.4009 11.4892
Au 28.6526 14.7703 8.75871
Au 28.2655 15.9792 6.43975
Au 27.488 6.80253 24.6025
Au 27.1465 7.98297 22.2182
Au 26.9815 9.34829 19.5389
Au 26.5459 10.4282 16.9398
Au 26.2619 11.6486 14.3755
Au 26.1548 12.7891 11.3231
Au 25.8222 13.8557 8.77282
Au 25.5384 15.1635 6.32703
Au 24.8703 5.95163 24.7087
Au 24.4389 6.97895 22.1443
Au 24.2348 8.34589 19.4997
Au 23.924 9.47072 16.9451
Au 23.5419 10.7781 14.1243
Au 23.3738 11.9761 11.501
Au 23.0306 13.1912 8.59287
Au 22.8758 14.3759 5.97261
Au 21.9828 4.8082 24.4756
Au 21.7052 6.13544 22.1036
Au 21.5096 7.4394 19.2349
Au 21.1718 8.82168 16.7729
Au 20.7361 9.81453 14.0315
Au 20.6294 11.2053 11.2589
Au 20.2565 12.3157 8.67087
Au 19.8076 13.4801 5.80686
Au 19.1631 4.26966 24.449
Au 18.8538 5.43854 21.9747
Au 18.7945 6.5409 19.2397
Au 18.4357 7.73978 16.6336
Au 18.0892 9.0413 13.7803
Au 17.9184 10.3606 11.2708
Au 17.519 11.5052 8.35223
Au 17.0838 12.5977 5.77788
Au 16.4474 3.33055 24.4197
Au 16.061 4.51964 21.9385
Au 15.9923 5.65985 19.1236
Au 15.6168 6.86632 16.4854
Au 15.4131 8.04798 13.7693
Au 15.2603 9.31037 11.2851
Au 14.8287 10.3048 8.48529
Au 14.5032 11.7101 6.17126
Au 14.6791 5.34935 25.5371
Au 14.3467 6.56582 23.0635
Au 14.3291 7.64595 20.1324
Au 13.948 9.02226 17.4956
Au 13.8882 10.1368 14.8146
Au 13.4657 11.3277 12.115
Au 13.1369 12.4704 9.33131
Au 12.8291 13.73 7.00679
Au 13.2667 7.61194 26.9078
Au 12.8748 8.87804 23.9248
Au 12.6124 9.86501 21.4079
Au 12.4791 11.1782 18.7243
Au 12.0696 12.38 15.7528
Au 11.7827 13.597 13.2497
Au 11.3892 14.7006 10.51
Au 11.1729 15.9174 7.91349
Au 11.4938 9.96247 27.6835
Au 11.2796 10.993 25.0319
Au 11.0837 11.9979 22.4327
Au 11.0027 13.1625 19.8418
Au 10.3701 14.5268 16.9688
Au 10.168 15.5666 14.5762
Au 9.85891 16.6967 11.867
Au 9.60554 17.9626 9.25313
Au 10.0465 11.911 28.9817
Au 9.85805 12.8472 26.4195
Au 9.51813 14.0477 23.7834
Au 9.23206 15.5004 20.9859
Au 8.86445 16.6107 18.4178
Au 8.5891 17.6642 15.7093
Au 8.06681 18.9208 13.1536
Au 7.82943 19.7689 10.6039
Au 8.24511 13.895 29.995
Au 8.11076 15.0561 27.5514
Au 7.60382 16.3548 24.8931
Au 7.49898 17.47 22.2181
Au 7.18802 18.5788 19.6641
Au 6.82287 19.7637 16.6852
Au 6.41746 20.8443 14.226
Au 6.24811 21.879 11.624
Au 4.04275 16.6753 29.5887
Au 3.6566 17.8386 27.1656
Au 3.5914 18.8202 24.5826
Au 3.25996 19.9253 22.1401
Au 2.98871 21.3455 19.4894
Au 2.67714 22.2369 16.8673
Au 2.46107 23.2347 14.0779
Au 5.87983 18.5055 30.6283
Au 5.36478 19.8821 28.0609
Au 5.29381 21.1244 25.4788
Au 5.03646 22.3944 22.7568
Au 4.69896 23.5542 20.1779
Au 4.25235 24.6818 17.5447
Au 4.02746 25.649 14.7655
Au 7.64263 20.8295 31.5843
Au 7.25288 22.3884 28.9812
Au 7.14431 23.2705 26.2242
Au 6.84185 24.3781 23.7038
Au 6.70419 25.6952 21.0382
Au 6.26447 26.9615 18.2975
Au 5.81248 27.7775 15.5785
Au 9.21266 23.2402 32.5198
Au 9.07872 24.5021 29.8063
Au 8.92919 25.4543 26.9378
Au 8.59223 26.6219 24.3368
Au 8.45977 27.9088 21.7846
Au 7.89713 29.3169 19.0518
Au 7.54047 30.2084 16.2872
Au 11.072 25.4834 33.1719
Au 11.0237 26.5069 30.4986
Au 10.6459 27.6512 27.7943
Au 10.2441 28.8475 25.0284
Au 10.1107 30.1 22.4196
Au 9.56999 31.2188 20.0004
Au 9.27309 32.2915 17.3329
Au 12.844 27.805 33.7814
Au 12.6419 28.7306 31.0785
Au 12.2064 29.8923 28.5174
Au 12.0115 31.0224 25.9575
Au 11.9318 32.218 23.3514
Au 11.5178 33.2683 20.6133
Au 11.0856 34.5287 17.9215
Au 14.677 29.8654 34.5371
Au 14.2333 31.0287 32.2535
Au 13.9558 31.9975 29.5794
Au 13.6861 33.1225 26.9177
Au 13.5216 34.4069 24.3467
Au 13.2322 35.5266 21.5105
Au 12.8568 36.5982 18.7955
Au 16.2354 32.0113 35.3091
Au 16.0784 33.2346 32.6673
Au 15.9135 34.3652 30.1454
Au 15.533 35.3883 27.547
Au 15.2478 36.6562 24.9764
Au 14.9855 37.6873 22.3442
Au 14.4751 38.5261 19.8811
Au 19.0957 31.0223 34.9204
Au 18.755 32.0856 32.2216
Au 18.6901 33.3018 29.2839
Au 18.2995 34.7471 26.954
Au 17.8347 35.7919 24.252
Au 17.7678 37.164 21.5577
Au 17.2239 38.2276 19.0383
Au 21.8955 30.1213 34.1867
Au 21.5982 31.5239 31.4954
Au 21.442 32.4759 28.7907
Au 20.9012 33.5878 26.246
Au 20.5693 34.9719 23.5619
Au 20.3075 36.2 20.8735
Au 20.1818 37.3579 18.4095
Au 24.4909 29.3734 33.5467
Au 24.2314 30.4812 30.7995
Au 24.0174 31.6893 28.1583
Au 23.7502 32.9702 25.3972
Au 23.3562 34.141 22.9302
Au 23.2486 35.4499 20.3559
Au 22.8619 36.6152 17.5105
Au 27.3827 28.6513 33.0503
Au 26.9711 29.9549 30.3004
Au 26.6269 30.8388 27.4977
Au 26.5472 32.2171 24.9047
Au 26.0474 33.3425 22.2832
Au 25.9772 34.6398 19.6557
Au 25.567 35.7893 17.0703
Au 29.9629 27.8276 32.4907
Au 29.4944 29.0256 29.8635
Au 29.304 30.2721 26.9851
Au 29.31 31.3748 24.4059
Au 28.8347 32.3771 21.7599
Au 28.6313 33.8106 19.1635
Au 28.3146 35.2012 16.7357
Au 32.5324 27 31.8325
Au 32.4378 28.1555 29.031
Au 32.0378 29.3683 26.3522