17
 Atoms. Timestep: 50000
Au 20.2847 20.384 20.4164
Au 19.1457 18.1954 19.0706
Au 20.1667 20.2302 23.2769
Au 18.0281 21.1653 22.2463
Au 18.9924 20.5786 18.1004
Au 22.0133 21.1581 18.1424
Au 22.3275 21.297 22.4911
Au 23.0958 19.9249 20.238
Au 20.121 22.7074 21.7449
Au 18.1553 22.2959 19.9126
Au 21.422 17.7754 19.9113
Au 22.2173 18.7367 22.232
Au 20.2736 22.8182 18.8995
Au 17.431 19.7095 20.2285
Au 21.1645 18.9276 17.7591
Au 19.3847 18.2719 21.7961
Au 22.4913 22.5391 20.249
