1840
 Atoms. Timestep: 50000
Au 22.1601 12.3186 38.3659
Au 22.0144 13.4808 35.9329
Au 21.8407 14.6392 33.3099
Au 21.6112 15.668 30.8453
Au 21.2531 17.049 28.2172
Au 20.8222 18.0341 25.5719
Au 20.574 19.121 22.8827
Au 20.4296 20.4692 20.3837
Au 19.9801 21.6008 17.7614
Au 19.8719 22.7066 15.024
Au 19.5042 23.866 12.5501
Au 19.4209 25.0416 9.84967
Au 18.8124 26.2252 7.23214
Au 18.5806 27.3721 4.69944
Au 18.2681 28.3667 2.26372
Au 19.6571 12.6156 37.5027
Au 19.4607 13.877 34.9497
Au 19.1426 15.1502 32.2633
Au 19.04 16.288 29.8236
Au 18.6024 17.4319 27.2074
Au 18.3377 18.4277 24.4318
Au 17.9613 19.6697 21.9619
Au 17.7512 20.9485 19.4553
Au 17.2988 21.9327 16.5725
Au 17.2889 23.1688 13.9235
Au 16.9726 24.5257 11.3014
Au 16.5068 25.6985 8.84094
Au 16.2047 26.9506 6.41372
Au 16.1987 27.9081 3.75725
Au 21.539 15.0884 38.0545
Au 21.0687 16.3168 35.7717
Au 20.7826 17.3187 33.0657
Au 20.5594 18.4191 30.5422
Au 20.3303 19.6349 27.9575
Au 20.0332 20.7613 25.2453
Au 19.9 21.9171 22.775
Au 19.5384 23.0324 20.1486
Au 19.2393 24.2574 17.2679
Au 19.0006 25.6139 15.0759
Au 18.8162 26.6232 12.2283
Au 18.2497 27.6186 9.5186
Au 18.155 29.0405 7.05719
Au 17.9626 30.0489 4.54371
Au 24.0349 14.0971 37.4969
Au 23.7182 15.4343 35.0255
Au 23.7285 16.6234 32.5717
Au 23.2156 17.8795 29.9909
Au 23.1547 18.9315 27.3294
Au 22.7397 20.0697 24.7944
Au 22.4251 21.1554 22.3256
Au 22.253 22.3602 19.4672
Au 22.1405 23.4997 16.8697
Au 21.682 24.7319 14.4017
Au 21.5553 25.8115 11.6543
Au 21.2013 27.0188 8.99472
Au 20.8997 28.1142 6.43735
Au 20.3675 29.1095 3.82851
Au 23.8901 11.5476 36.4541
Au 23.8196 12.5854 33.9474
Au 23.6354 13.7972 31.429
Au 23.2457 14.929 28.8494
Au 22.9718 16.2155 26.3064
Au 22.8343 17.5381 23.6205
Au 22.4962 18.5801 20.8951
Au 22.2719 19.7758 18.3337
Au 22.009 21.0068 15.7582
Au 21.6578 21.9573 13.1672
Au 21.3756 23.1562 10.2582
Au 21.0659 24.3154 7.79292
Au 20.7761 25.6593 5.16871
Au 20.4095 26.7162 2.68069
Au 21.3191 10.8306 36.3
Au 20.982 11.681 33.747
Au 20.658 13.0501 31.2695
Au 20.5672 14.1178 28.6275
Au 20.2811 15.3559 26.0662
Au 20.0466 16.2987 23.4412
Au 19.6848 17.5535 20.7025
Au 19.3826 18.9256 18.1498
Au 19.2264 19.9721 15.3007
Au 18.8845 21.0527 12.7918
Au 18.6028 22.3102 10.1957
Au 18.385 23.4222 7.74594
Au 18.033 24.7421 5.16726
Au 17.846 25.7951 2.49572
Au 17.2037 13.3868 36.3458
Au 16.95 14.4717 33.7945
Au 16.6752 15.6745 31.4668
Au 16.3694 16.8054 28.8733
Au 16.0817 17.7724 26.0852
Au 15.6537 19.0426 23.5172
Au 15.2897 20.4565 21.0352
Au 15.1469 21.4901 18.3889
Au 14.8407 22.6646 15.5078
Au 14.6894 23.7767 12.9659
Au 14.2899 25.1625 10.4013
Au 13.9785 26.1389 7.73364
Au 13.9563 27.5647 5.10879
Au 18.7683 15.4789 37.1979
Au 18.5361 16.6563 34.7412
Au 18.2652 17.963 32.2082
Au 17.899 18.9917 29.7054
Au 17.87 20.1993 26.7651
Au 17.4099 21.346 24.2323
Au 17.1998 22.49 21.6568
Au 16.9698 23.705 18.9784
Au 16.6845 24.7043 16.2944
Au 16.4485 25.9216 13.7164
Au 16.1318 27.2352 11.179
Au 15.7484 28.3759 8.59001
Au 15.453 29.6343 6.03821
Au 20.5841 17.8296 37.9007
Au 20.3397 18.9622 35.4908
Au 20.1886 20.0645 32.8334
Au 19.7983 21.2491 30.2721
Au 19.5196 22.3563 27.6638
Au 19.117 23.4959 25.0849
Au 19.1582 24.6057 22.3406
Au 18.6882 25.8172 19.8203
Au 18.367 26.8703 17.3325
Au 18.2036 28.2174 14.6043
Au 17.7575 29.3461 12.0298
Au 17.6867 30.4956 9.41161
Au 17.4361 31.6236 6.92441
Au 23.6246 16.7392 37.3181
Au 23.0396 18.1595 35.0379
Au 22.8483 19.3447 32.5421
Au 22.473 20.5696 29.878
Au 22.0972 21.6363 27.1727
Au 21.8934 22.8496 24.537
Au 21.7471 24.0583 21.9148
Au 21.3388 25.0977 19.2545
Au 21.316 26.3389 16.7663
Au 21.0123 27.5497 13.9479
Au 20.5253 28.6945 11.5226
Au 20.3682 29.6613 8.77832
Au 20.1966 30.8083 6.3302
Au 26.1573 16.0258 36.4674
Au 25.8713 17.1639 34.1758
Au 25.4197 18.4543 31.4328
Au 25.4086 19.6717 29.0009
Au 25.0016 20.5671 26.3598
Au 24.8983 21.9614 24.0176
Au 24.3651 22.9512 21.3095
Au 24.1575 24.3331 18.5477
Au 23.8215 25.5442 15.9278
Au 23.6931 26.5366 13.3639
Au 23.2455 27.7111 10.796
Au 23.069 28.844 8.07628
Au 22.8184 29.7848 5.66759
Au 25.972 13.2632 35.7083
Au 25.7992 14.5163 33.1932
Au 25.3805 15.8016 30.4991
Au 25.1826 17.1476 28.005
Au 25.0211 17.9915 25.2545
Au 24.7027 19.2318 22.6028
Au 24.4181 20.3855 20.0772
Au 24.2626 21.5545 17.431
Au 23.9216 22.8418 14.6546
Au 23.4784 23.8976 12.232
Au 23.3599 25.0383 9.59733
Au 22.8993 26.3992 6.94118
Au 22.7311 27.3892 4.31815
Au 25.7934 10.7372 34.4126
Au 25.4728 11.9632 31.9945
Au 25.393 13.1554 29.3713
Au 25.0977 14.2096 26.8812
Au 24.9098 15.4202 23.9977
Au 24.3328 16.5452 21.3891
Au 24.2651 17.8303 18.8086
Au 23.9978 19.0549 16.2413
Au 23.8527 20.1473 13.6183
Au 23.5592 21.4543 11.069
Au 23.2635 22.5548 8.2701
Au 22.8678 23.9414 5.77731
Au 22.5607 24.8288 3.07851
Au 23.1568 9.61551 34.2428
Au 22.8268 11.0405 31.7745
Au 22.6778 12.1328 29.1512
Au 22.3362 13.4967 26.5589
Au 22.1579 14.5188 23.9922
Au 21.7825 15.8307 21.585
Au 21.4845 16.8897 18.5941
Au 21.3162 18.107 16.0061
Au 20.9121 19.2087 13.4647
Au 20.6982 20.6296 10.7837
Au 20.5179 21.4695 8.15494
Au 20.1466 22.7358 5.59228
Au 19.8602 23.8701 3.0484
Au 20.3381 9.24477 34.1685
Au 19.9737 10.1933 31.5732
Au 19.8191 11.3725 29.1753
Au 19.4148 12.5745 26.5052
Au 19.1923 13.6448 23.8781
Au 18.8806 14.9444 21.1219
Au 18.6011 16.0374 18.5574
Au 18.6013 17.3862 16.0368
Au 18.1948 18.2673 13.2074
Au 17.8269 19.5391 10.7587
Au 17.7465 20.5621 8.16108
Au 17.4416 21.8528 5.37817
Au 17.0922 23.2469 3.21982
Au 18.6462 11.0706 35.4136
Au 18.4616 12.3032 32.8119
Au 18.1021 13.3871 30.0954
Au 17.7908 14.7214 27.7028
Au 17.4941 15.6544 25.0216
Au 17.2312 16.8287 22.2892
Au 16.8585 18.2931 19.8559
Au 16.9051 19.307 17.1979
Au 16.6135 20.665 14.2336
Au 16.2346 21.7262 11.7044
Au 15.9458 22.9726 9.08356
Au 15.6512 24.0622 6.48818
Au 15.6142 25.3642 4.05692
Au 14.7035 14.0395 35.4214
Au 14.3482 14.9577 32.944
Au 13.8038 16.2487 30.3001
Au 13.8067 17.3001 27.7155
Au 13.4991 18.5654 25.075
Au 13.0929 19.7454 22.477
Au 12.6571 21.0629 19.8122
Au 12.5016 22.1651 17.1661
Au 12.1185 23.3341 14.5192
Au 12.106 24.4529 12.0154
Au 11.7343 25.5495 9.26902
Au 11.6003 26.8265 6.77913
Au 16.3345 16.0709 36.3551
Au 15.829 17.1547 33.9365
Au 15.6099 18.324 31.2975
Au 15.3794 19.462 28.5626
Au 15.2326 20.7078 25.8228
Au 14.8191 22.0663 23.3161
Au 14.6477 23.2141 20.6731
Au 14.3401 24.2349 17.906
Au 14.1214 25.3762 15.3378
Au 13.9046 26.5634 12.6811
Au 13.2442 27.8263 10.0803
Au 13.2474 28.9887 7.52825
Au 18.186 18.3373 36.986
Au 17.7753 19.402 34.5175
Au 17.5473 20.5641 31.9833
Au 17.3688 21.7858 29.2244
Au 16.9257 22.9244 26.6757
Au 16.7364 24.2125 23.9693
Au 16.4779 25.1864 21.428
Au 16.0187 26.4108 18.717
Au 15.8229 27.522 16.0825
Au 15.585 28.8594 13.5323
Au 15.2236 30.0704 10.9004
Au 15.2049 30.99 8.46084
Au 20.0195 20.6152 37.7368
Au 19.4111 21.6894 35.2513
Au 19.2581 22.6545 32.705
Au 18.9685 23.8954 30.124
Au 18.6288 25.1149 27.4323
Au 18.5406 26.1737 24.7016
Au 18.1769 27.3303 22.1409
Au 17.9113 28.6571 19.6681
Au 17.5292 29.7726 17.0164
Au 17.3261 30.8926 14.5246
Au 17.0248 31.974 11.8769
Au 16.8396 33.0526 9.40222
Au 22.7572 19.7249 37.3128
Au 22.3178 20.886 34.8191
Au 22.0231 22.0508 32.0871
Au 21.7052 23.1381 29.4623
Au 21.3143 24.2729 26.9211
Au 21.1407 25.5404 24.1656
Au 21.0314 26.8408 21.5587
Au 20.6526 27.7518 19.0072
Au 20.3384 29.1239 16.3882
Au 19.8838 30.1468 13.6773
Au 19.7652 31.3784 11.2403
Au 19.4038 32.5321 8.49994
Au 25.3926 18.7696 36.5525
Au 24.9946 19.8523 33.9823
Au 24.8285 21.0779 31.3288
Au 24.5038 22.2911 28.7659
Au 24.2395 23.2953 26.2529
Au 23.9239 24.6448 23.6361
Au 23.7539 25.667 20.9276
Au 23.4466 27.0778 18.423
Au 23.1004 28.2518 15.7173
Au 22.823 29.5543 13.131
Au 22.4451 30.4647 10.5433
Au 22.1298 31.7888 7.96934
Au 27.8915 18.1024 35.6735
Au 27.7951 19.1549 33.1958
Au 27.6219 20.4419 30.7383
Au 27.4097 21.3202 28.2364
Au 27.0401 22.3774 25.639
Au 26.6043 23.6556 22.7397
Au 26.2456 25.0254 20.1998
Au 26.0092 26.2068 17.6395
Au 25.8132 27.4784 14.9713
Au 25.3742 28.5674 12.4751
Au 25.0249 29.861 9.78017
Au 24.6393 30.7952 7.15676
Au 28.0461 15.0799 34.689
Au 27.6732 16.2788 32.3731
Au 27.6846 17.6704 29.7038
Au 27.1966 18.7939 26.8117
Au 26.9638 19.946 24.2715
Au 26.5221 21.1577 21.6862
Au 26.2576 22.3827 19.314
Au 26.0157 23.6382 16.5838
Au 25.9085 24.6957 13.9972
Au 25.5449 26.0335 11.4826
Au 25.2509 27.0462 8.75198
Au 24.9333 28.1886 6.0189
Au 27.7635 12.6412 33.4715
Au 27.594 13.8265 31.06
Au 27.2202 15.1807 28.3149
Au 26.7736 16.19 25.9166
Au 26.8751 17.2813 23.0761
Au 26.4224 18.5458 20.5951
Au 26.3209 19.6621 17.8618
Au 25.9947 20.7828 15.2942
Au 25.8381 22.1847 12.8214
Au 25.4404 23.12 10.2063
Au 25.1429 24.4144 7.44599
Au 24.6836 25.6027 4.75712
Au 27.5915 10.097 32.2617
Au 27.4516 11.3456 29.9205
Au 27.2511 12.2453 27.1
Au 26.9031 13.5551 24.6332
Au 26.7056 14.5973 21.8705
Au 26.383 15.862 19.3055
Au 26.2396 17.1136 16.761
Au 25.8813 18.1391 14.2462
Au 25.6989 19.4945 11.5661
Au 25.3409 20.7584 9.06782
Au 25.1285 21.7247 6.41124
Au 24.7078 22.9291 3.97389
Au 24.9522 9.25582 32.2358
Au 24.8256 10.3351 29.6686
Au 24.4901 11.5621 27.0667
Au 24.2631 12.7069 24.5135
Au 23.8738 13.8496 21.948
Au 23.5811 15.1568 19.1992
Au 23.5475 16.2912 16.5161
Au 23.136 17.4276 13.9051
Au 22.9253 18.6368 11.4845
Au 22.5583 19.9055 9.0317
Au 22.3283 21.0815 6.08373
Au 21.8789 22.0911 3.49593
Au 22.0932 8.37907 32.2157
Au 22.0006 9.38837 29.6105
Au 21.4854 10.5795 27.0226
Au 21.4231 11.7672 24.4292
Au 21.0348 13.1533 21.7636
Au 20.7636 14.2871 19.2104
Au 20.6594 15.2694 16.4754
Au 20.2976 16.582 13.8861
Au 19.9916 17.6328 11.2573
Au 19.8614 18.8582 8.66287
Au 19.5143 20.0008 6.11122
Au 19.4635 21.098 3.35729
Au 19.5274 7.49607 31.9832
Au 19.2384 8.75842 29.4658
Au 18.837 9.89861 27.0042
Au 18.5587 10.9231 24.4222
Au 18.4495 12.0241 21.4911
Au 18.1301 13.2946 18.9659
Au 17.8269 14.5193 16.4172
Au 17.6361 15.4591 13.8477
Au 17.1154 16.7039 11.1698
Au 17.0361 17.9733 8.40878
Au 16.7868 19.2609 5.88179
Au 16.5922 20.4035 3.19596
Au 17.8105 9.44088 33.3363
Au 17.1269 10.6372 30.7979
Au 17.0647 11.908 28.0916
Au 16.7618 12.9286 25.3276
Au 16.6866 14.0071 22.7978
Au 16.2185 15.4505 20.1421
Au 16.2558 16.7435 17.363
Au 15.9989 17.8157 14.7963
Au 15.5305 18.9822 12.1282
Au 15.4146 20.1174 9.54001
Au 15.1619 21.4261 7.02908
Au 14.739 22.4196 4.53283
Au 16.3076 11.8461 34.3923
Au 15.8 12.732 31.806
Au 15.495 14.0988 29.2527
Au 15.2646 15.1929 26.7341
Au 14.9011 16.336 23.9462
Au 14.4638 17.4854 21.3891
Au 14.3982 18.855 18.8126
Au 14.4172 19.989 15.9472
Au 13.8174 20.9655 13.2198
Au 13.8631 22.3295 10.634
Au 13.2894 23.3671 8.17185
Au 13.0228 24.8628 5.65567
Au 12.0076 14.4542 34.296
Au 11.6403 15.6499 31.9584
Au 11.1786 16.7958 29.2829
Au 11.1437 18.1415 26.6818
Au 10.9153 19.0834 23.9441
Au 10.483 20.3399 21.4329
Au 10.2207 21.6363 18.8848
Au 10.0865 22.7194 16.381
Au 9.52802 23.6972 13.4944
Au 9.37405 25.0579 10.9152
Au 9.09849 26.1901 8.41525
Au 13.4872 16.4349 35.3029
Au 13.3103 17.6676 32.625
Au 13.0376 18.9238 30.0504
Au 12.9732 20.0431 27.4194
Au 12.7587 21.2489 24.8085
Au 12.1465 22.5209 22.1875
Au 12.1329 23.6417 19.4607
Au 11.7017 24.9409 16.7735
Au 11.184 25.9981 14.084
Au 10.8609 27.0824 11.489
Au 10.7946 28.3487 9.17217
Au 15.4437 18.7129 36.0264
Au 15.059 19.9353 33.3845
Au 14.9846 21.0442 30.8754
Au 14.7025 22.1818 28.3534
Au 14.1329 23.6488 25.5293
Au 14.1709 24.6116 22.8801
Au 13.7492 25.7173 20.2218
Au 13.4221 26.9014 17.5075
Au 13.1649 28.0509 14.8683
Au 12.9554 29.2571 12.3037
Au 12.7713 30.44 9.83109
Au 17.1856 20.9144 36.7913
Au 16.7444 22.1557 34.3051
Au 16.6892 23.2508 31.5943
Au 16.4702 24.3885 29.1479
Au 15.9937 25.5921 26.3717
Au 15.7001 26.8572 23.6558
Au 15.425 27.984 21.1679
Au 15.186 29.1277 18.4759
Au 14.882 30.1468 15.8827
Au 14.664 31.6107 13.4268
Au 14.2819 32.6169 10.5556
Au 19.117 23.1458 37.53
Au 18.7459 24.3343 35.0777
Au 18.5548 25.5933 32.4551
Au 18.2208 26.5859 29.8835
Au 17.7417 27.6375 27.0767
Au 17.7127 28.8509 24.3948
Au 17.3658 30.1271 21.9653
Au 16.7295 31.3388 19.3613
Au 16.7167 32.5195 16.7
Au 16.4066 33.657 14.0111
Au 16.3163 34.5929 11.6017
Au 21.9027 22.3041 37.1301
Au 21.6311 23.5625 34.5642
Au 21.1885 24.757 31.8008
Au 20.8057 25.8756 29.2959
Au 20.6715 26.9359 26.685
Au 20.2915 28.2013 23.9232
Au 20.1478 29.4972 21.4625
Au 19.5439 30.6104 18.6478
Au 19.5589 31.7705 16.0358
Au 19.1349 32.9526 13.3933
Au 18.7961 34.0536 10.8336
Au 24.4806 21.4788 36.3998
Au 24.2733 22.6649 33.9647
Au 24.083 23.721 31.16
Au 23.4555 24.8969 28.4227
Au 23.3833 26.1249 26.0739
Au 23.1968 27.5203 23.2431
Au 22.9474 28.6337 20.4587
Au 22.3613 29.9107 17.9125
Au 22.0457 31.0051 15.2812
Au 22.0493 32.1987 12.6202
Au 21.5779 33.2574 10.0675
Au 27.2143 20.8381 35.7731
Au 26.8757 21.8675 33.1637
Au 26.7403 23.0684 30.4434
Au 26.2635 24.0003 27.9359
Au 26.0924 25.2996 25.2552
Au 25.793 26.5641 22.7247
Au 25.6208 27.7848 20.0807
Au 25.2858 28.9607 17.2853
Au 24.8868 30.251 14.625
Au 24.7645 31.5268 11.8384
Au 24.3628 32.4118 9.31384
Au 29.8063 19.9469 34.8315
Au 29.7175 21.2169 32.4273
Au 29.4731 22.1496 29.77
Au 29.1328 23.4139 27.3078
Au 28.7063 24.3493 24.6736
Au 28.5223 25.6417 21.7441
Au 28.4268 26.8256 19.3356
Au 28.076 27.9799 16.7591
Au 27.5796 29.3257 14.1115
Au 27.465 30.5241 11.5506
Au 27.0029 31.681 9.13275
Au 29.9068 17.333 33.7045
Au 29.7706 18.3476 31.2342
Au 29.4381 19.4317 28.5728
Au 29.1996 20.736 25.9997
Au 28.818 21.8946 23.4296
Au 28.5612 23.0523 20.801
Au 28.1286 24.2733 18.1378
Au 27.9583 25.4773 15.3959
Au 27.735 26.7508 12.9137
Au 27.487 27.8903 10.484
Au 27.1105 28.8739 7.82965
Au 30.0367 14.4568 32.6795
Au 29.5547 15.6679 30.3371
Au 29.218 16.8806 27.4871
Au 28.8969 18.0781 24.7957
Au 28.6488 19.2906 22.2362
Au 28.5651 20.4168 19.5715
Au 28.2552 21.6568 16.8718
Au 27.9205 22.8683 14.4095
Au 27.8385 24.1316 11.657
Au 27.393 25.3185 9.07685
Au 26.987 26.2891 6.56928
Au 29.6715 11.9319 31.4963
Au 29.3364 13.2625 28.8609
Au 29.0635 14.41 26.2363
Au 28.9864 15.4528 23.5912
Au 28.7041 16.6216 21.0114
Au 28.2942 17.7616 18.5653
Au 28.1309 19.0405 15.7635
Au 27.955 20.218 13.1872
Au 27.5971 21.3884 10.6321
Au 27.3221 22.7967 8.15395
Au 26.9012 23.6756 5.36276
Au 29.4608 9.26289 30.2247
Au 29.3104 10.4967 27.7361
Au 29.0505 11.4454 24.8889
Au 28.7565 12.9048 22.4078
Au 28.4154 14.1713 19.8179
Au 28.2239 15.1662 17.1571
Au 27.8978 16.2923 14.6676
Au 27.5916 17.6313 12.1883
Au 27.5671 18.7093 9.54612
Au 27.311 20.0858 6.97298
Au 26.786 21.0899 4.35326
Au 26.8405 8.51975 30.1593
Au 26.4886 9.64007 27.6717
Au 26.2531 10.7757 24.9523
Au 26.1902 11.9586 22.3264
Au 25.6239 13.0924 19.7373
Au 25.4045 14.3095 17.0925
Au 25.3052 15.3712 14.4702
Au 25.009 16.7383 11.9664
Au 24.6694 17.9067 9.50314
Au 24.4652 19.091 6.90703
Au 24.0119 20.121 4.18092
Au 24.0691 7.41492 30.0983
Au 23.6857 8.73459 27.5464
Au 23.4364 9.97548 25.0668
Au 23.3628 11.312 22.2861
Au 22.8424 12.3964 19.6544
Au 22.5431 13.4663 17.1005
Au 22.4865 14.614 14.4311
Au 22.1609 15.7984 12.0314
Au 21.869 17.0304 9.37337
Au 21.6453 18.1315 6.50721
Au 21.2873 19.4489 4.13239
Au 21.2776 6.85041 29.8992
Au 21.0376 7.94808 27.3674
Au 20.5819 9.09411 24.7381
Au 20.5752 10.3274 22.2403
Au 20.32 11.453 19.587
Au 19.956 12.5719 16.8173
Au 19.7267 13.7309 14.312
Au 19.4645 14.7679 11.5993
Au 19.1172 15.8203 9.09557
Au 18.9551 17.1979 6.48259
Au 18.4578 18.5468 3.90916
Au 18.5169 6.02062 29.9901
Au 18.2497 7.09139 27.3702
Au 17.7624 8.22908 24.9602
Au 17.648 9.33463 22.0424
Au 17.3748 10.492 19.3413
Au 17.1221 11.7297 16.7517
Au 16.7802 12.9333 14.3306
Au 16.6208 13.9728 11.5693
Au 16.3454 15.1877 9.11475
Au 16.0919 16.5858 6.28224
Au 15.7833 17.751 3.73686
Au 16.9614 8.03899 31.2093
Au 16.5944 9.04061 28.5061
Au 16.1412 10.323 25.9815
Au 16.0623 11.3464 23.1665
Au 15.6286 12.6316 20.6176
Au 15.6362 13.7514 17.8357
Au 15.2413 15.187 15.3179
Au 14.8948 16.2563 12.7808
Au 14.6617 17.385 10.1456
Au 14.3125 18.514 7.47524
Au 14.3505 19.7856 4.9062
Au 14.9357 10.0084 32.2702
Au 14.6585 11.2328 29.5778
Au 14.6005 12.4724 27.1211
Au 14.2364 13.7204 24.4796
Au 14.0249 14.5971 21.808
Au 13.8305 15.9447 18.9275
Au 13.5074 17.3735 16.5114
Au 13.3268 18.3165 13.773
Au 12.8797 19.5554 10.9831
Au 12.7474 20.6264 8.53087
Au 12.5425 21.7962 6.03411
Au 13.4934 12.276 33.3441
Au 13.0694 13.5352 30.8469
Au 12.8413 14.6435 28.2646
Au 12.644 15.9453 25.6123
Au 12.4527 16.9493 23.0316
Au 12.127 18.2818 20.1421
Au 11.9524 19.3815 17.5108
Au 11.8671 20.5404 14.9756
Au 11.5016 21.8724 12.366
Au 10.9384 22.8069 9.69513
Au 10.8734 24.1401 7.13599
Au 9.29883 15.1605 33.0902
Au 8.92001 15.9825 30.6601
Au 8.74831 17.3529 28.3724
Au 8.45735 18.5056 25.6437
Au 8.22858 19.6229 23.066
Au 7.7848 20.6799 20.2988
Au 7.76833 21.9217 17.7364
Au 7.35643 23.0397 15.1439
Au 7.08003 24.2697 12.5224
Au 6.96264 25.2436 9.88958
Au 11.0055 17.3175 34.1898
Au 10.8314 18.3452 31.6065
Au 10.7202 19.4298 28.8849
Au 10.1053 20.58 26.3144
Au 9.99813 21.844 23.8432
Au 9.48331 22.9869 21.298
Au 9.42815 24.3451 18.6405
Au 8.84962 25.3118 15.7774
Au 8.58082 26.5415 13.2324
Au 8.46051 27.8707 10.6508
Au 12.8206 19.2515 35.0191
Au 12.3592 20.469 32.3939
Au 12.3965 21.8732 29.9032
Au 12.1774 22.7237 27.0922
Au 11.7243 23.9087 24.4083
Au 11.5301 25.2966 21.8539
Au 11.181 26.4017 19.3012
Au 10.9031 27.6643 16.6494
Au 10.5016 28.7228 13.8956
Au 10.4576 30.093 11.3584
Au 14.6018 21.4036 35.7864
Au 14.2487 22.5768 32.9638
Au 14.1274 23.9174 30.6102
Au 13.8731 24.9213 27.9671
Au 13.5148 26.2049 25.252
Au 13.2012 27.3273 22.7626
Au 12.7974 28.4835 20.1473
Au 12.621 29.5353 17.3689
Au 12.0462 30.7488 14.6912
Au 12.2165 31.9659 12.1807
Au 16.3996 23.6619 36.5384
Au 16.2055 24.7363 34.1782
Au 15.9376 26.0539 31.3249
Au 15.5628 27.2213 28.7592
Au 15.1716 28.3938 26.0341
Au 15.0787 29.6484 23.4383
Au 14.5635 30.7615 21.0644
Au 14.2732 31.7886 18.2949
Au 14.0008 32.8497 15.6761
Au 13.9922 34.3086 13.2009
Au 17.9918 25.8967 37.2787
Au 17.842 27.1087 34.8233
Au 17.5224 28.1707 32.1238
Au 17.2867 29.3019 29.3541
Au 17.1172 30.5833 26.8455
Au 16.724 31.8278 24.3244
Au 16.4594 32.8315 21.6252
Au 16.1348 34.1065 19.0475
Au 16.0821 35.2401 16.4795
Au 15.6346 36.2 13.8885
Au 20.817 25.19 36.8015
Au 20.5132 26.1799 34.1452
Au 20.3837 27.448 31.5785
Au 20.1369 28.4751 28.8126
Au 19.7788 29.7371 26.287
Au 19.4835 31.1618 23.7594
Au 19.1869 32.1393 20.8945
Au 18.8933 33.3502 18.6138
Au 18.5957 34.3442 15.6992
Au 18.4557 35.5179 13.0149
Au 23.515 24.4101 36.1039
Au 23.4874 25.4194 33.5018
Au 23.002 26.5895 30.8772
Au 23.0196 27.6716 28.2523
Au 22.4848 28.9111 25.5245
Au 22.2703 30.2451 22.8168
Au 21.9713 31.3696 20.1226
Au 21.6703 32.7464 17.7568
Au 21.3173 33.7573 14.9474
Au 21.2211 34.7271 12.4528
Au 26.5024 23.4558 35.3232
Au 26.0711 24.6346 32.9031
Au 25.7282 25.8053 30.1988
Au 25.5657 26.8969 27.8035
Au 25.3399 27.9856 24.9645
Au 24.9862 29.4166 22.2608
Au 24.8467 30.5261 19.6068
Au 24.2557 31.8093 17.1107
Au 24.1326 32.8523 14.3602
Au 23.9274 33.9923 11.7467
Au 29.0761 22.6469 34.6444
Au 28.739 24.0415 32.3718
Au 28.5784 25.0307 29.5245
Au 28.3464 26.3078 27.008
Au 27.9438 27.2582 24.2107
Au 27.8268 28.6677 21.7439
Au 27.4813 29.684 18.9891
Au 27.0602 30.9142 16.4219
Au 26.8531 32.3019 13.7775
Au 26.8722 33.3974 11.1748
Au 31.7738 21.945 33.9157
Au 31.6357 23.1338 31.566
Au 31.2945 24.2075 29.0936
Au 30.9606 25.3671 26.3003
Au 30.6165 26.4282 23.693
Au 30.5304 27.7355 21.1133
Au 30.2094 28.948 18.6177
Au 29.7873 30.1125 15.8538
Au 29.4745 31.226 13.2905
Au 29.1311 32.2746 10.8821
Au 31.7453 19.1407 32.9913
Au 31.5115 20.2113 30.3259
Au 31.2265 21.3964 27.7333
Au 31.0241 22.7731 25.2026
Au 30.6551 23.9151 22.4489
Au 30.5345 25.0376 20.0077
Au 30.0638 26.121 17.265
Au 29.7963 27.6321 14.6478
Au 29.8738 28.6977 12.0615
Au 29.2627 29.8083 9.66063
Au 31.861 16.3235 31.7082
Au 31.3988 17.6575 29.2138
Au 31.1631 18.7981 26.517
Au 30.9906 19.9667 23.9052
Au 30.7283 21.225 21.3619
Au 30.3524 22.3123 18.6612
Au 30.18 23.7538 15.9101
Au 29.8382 24.7895 13.4439
Au 29.8052 26.1287 10.7184
Au 29.2345 27.2014 8.39381
Au 31.6484 13.7255 30.4702
Au 31.4356 14.9589 28.0394
Au 31.0978 16.2203 25.321
Au 30.9428 17.2137 22.7178
Au 30.6562 18.6167 20.0622
Au 30.4419 19.7986 17.4801
Au 30.1475 20.8805 14.821
Au 29.707 22.2018 12.3015
Au 29.5499 23.4831 9.6309
Au 29.1965 24.6516 7.02828
Au 31.3083 11.2484 29.5118
Au 31.1808 12.4532 26.8126
Au 30.8331 13.5756 24.1927
Au 30.7877 14.7738 21.3363
Au 30.5418 15.9965 18.7917
Au 30.2526 17.0564 16.3662
Au 29.8866 18.1818 13.8053
Au 29.599 19.5438 11.0765
Au 29.5557 20.8291 8.71497
Au 29.217 21.9322 6.08584
Au 31.4033 8.65362 28.2626
Au 31.0998 9.68828 25.5705
Au 30.7614 10.9377 22.9179
Au 30.4683 12.1008 20.2388
Au 30.3292 13.3992 17.8184
Au 30.229 14.4075 15.2376
Au 29.8484 15.625 12.6596
Au 29.6113 16.8051 9.93965
Au 29.3982 18.0628 7.36915
Au 28.7775 19.2031 4.9818
Au 28.8223 7.82861 28.0541
Au 28.1805 8.85873 25.6207
Au 28.0894 10.0737 22.7405
Au 27.7083 11.3652 20.1081
Au 27.558 12.4325 17.606
Au 27.2291 13.6793 15.0901
Au 27.2031 14.6989 12.3072
Au 26.7666 15.9223 9.82526
Au 26.4959 17.2418 7.22898
Au 26.2281 18.3683 4.68393
Au 26.0197 6.94366 28.1245
Au 25.5515 8.03541 25.5261
Au 25.276 9.30382 22.8258
Au 25.0664 10.5105 20.1531
Au 24.8955 11.4635 17.6029
Au 24.4764 12.6668 15.0859
Au 24.3113 13.8487 12.3048
Au 23.8027 15.0013 9.79234
Au 23.7897 16.339 7.39125
Au 23.309 17.4965 4.80155
Au 23.0151 6.09795 27.8658
Au 22.8246 7.14635 25.2991
Au 22.6221 8.50391 22.7915
Au 22.4095 9.66419 20.2188
Au 21.9954 10.514 17.6506
Au 21.7201 11.656 15.0039
Au 21.4435 12.8958 12.3924
Au 21.3238 13.9647 9.60588
Au 21.0353 15.4104 7.13491
Au 20.7684 16.545 4.38342
Au 20.3506 5.31071 27.8693
Au 19.8574 6.33652 25.284
Au 19.652 7.52941 22.5944
Au 19.5329 8.86693 19.9542
Au 19.3523 9.90099 17.4009
Au 19.0304 10.8257 14.7447
Au 18.5464 11.9966 12.2182
Au 18.26 13.2192 9.49202
Au 18.3144 14.3726 6.84927
Au 17.8902 15.965 4.33874
Au 17.5058 4.56538 27.7367
Au 17.1496 5.48389 25.1991
Au 16.8409 6.6765 22.6678
Au 16.7271 7.92114 19.8409
Au 16.3106 9.0236 17.1654
Au 16.2704 10.1865 14.5004
Au 15.8279 11.2655 12.0205
Au 15.6006 12.3309 9.39731
Au 15.3824 13.7251 6.83157
Au 15.1106 14.8869 4.43135
Au 15.8167 6.31735 28.9213
Au 15.531 7.65744 26.4572
Au 15.1825 8.77164 23.6599
Au 15.1087 9.93383 20.9516
Au 14.6809 11.1248 18.3274
Au 14.2661 12.3731 15.8119
Au 14.1893 13.5017 13.1036
Au 14.1241 14.6696 10.5282
Au 13.8038 15.9088 7.89537
Au 13.4498 17.14 5.44827
Au 14.1601 8.59106 30.0834
Au 13.9378 9.76626 27.5455
Au 13.5589 10.9684 24.9145
Au 13.4434 12.0695 22.2383
Au 13.2085 13.2892 19.332
Au 12.8803 14.5435 16.736
Au 12.584 15.693 14.3105
Au 12.4373 16.8656 11.4642
Au 11.8331 17.9948 8.88931
Au 11.7766 19.1792 6.23128
Au 12.3724 10.8209 31.2307
Au 12.1966 11.7854 28.5973
Au 11.9465 13.2302 25.8628
Au 11.797 14.1611 23.2632
Au 11.6299 15.5205 20.6523
Au 11.2681 16.5728 17.9577
Au 10.9327 17.63 15.4238
Au 10.7521 18.8956 12.8916
Au 10.3109 20.0208 10.3235
Au 10.0884 21.2759 7.63318
Au 10.8403 12.9248 32.426
Au 10.6085 13.897 29.8317
Au 10.3189 15.2842 27.0643
Au 10.0704 16.3675 24.4139
Au 9.78759 17.5453 21.8722
Au 9.7244 18.7485 19.1757
Au 9.3978 19.9834 16.4116
Au 9.19351 21.0623 13.8586
Au 8.6463 22.1498 11.0088
Au 8.57047 23.4571 8.62696
Au 6.68867 15.6736 32.2013
Au 6.31967 16.8085 29.7155
Au 6.06731 17.7996 27.255
Au 5.78368 19.0729 24.5459
Au 5.53795 20.3035 21.8441
Au 5.00581 21.2823 19.3073
Au 5.12105 22.1666 16.7768
Au 4.75514 23.286 14.1584
Au 4.52838 24.5319 11.5484
Au 8.49121 17.7011 33.0555
Au 8.15788 18.8715 30.6563
Au 7.8069 19.9585 27.9425
Au 7.65232 21.3049 25.4155
Au 7.37393 22.294 22.7203
Au 7.0406 23.415 20.228
Au 6.85544 24.5959 17.4603
Au 6.27103 25.7827 14.8006
Au 6.11654 27.0237 12.037
Au 10.2858 20.0124 33.9184
Au 9.93385 21.151 31.4661
Au 9.64651 22.2132 28.7744
Au 9.42077 23.4105 26.1802
Au 9.02913 24.5337 23.4132
Au 8.78295 25.6644 20.7077
Au 8.63707 27.0694 18.0565
Au 8.2471 28.0925 15.5058
Au 7.90292 29.3733 13.0395
Au 12.1142 22.0034 34.6613
Au 11.801 23.3961 32.1512
Au 11.5768 24.5011 29.4045
Au 11.0945 25.5916 26.7134
Au 10.8192 26.7528 24.0894
Au 10.4075 27.8039 21.5834
Au 10.1062 29.0698 18.9737
Au 9.64009 30.3293 16.4937
Au 9.70566 31.541 13.8396
Au 13.6901 24.1361 35.235
Au 13.4846 25.3407 32.7107
Au 13.2381 26.6607 30.0977
Au 13.031 27.6497 27.6152
Au 12.7381 28.8199 24.968
Au 12.3914 29.9782 22.4165
Au 11.9567 31.1352 19.8146
Au 11.8763 32.4171 17.1912
Au 11.5504 33.5432 14.5358
Au 15.4058 26.528 36.3244
Au 15.1997 27.52 33.5826
Au 14.9725 28.8604 30.9263
Au 14.4333 29.9353 28.2332
Au 14.3017 31.421 25.8543
Au 13.9879 32.461 23.2121
Au 13.7169 33.4596 20.4788
Au 13.5302 34.5821 17.8489
Au 13.4308 35.6462 15.4699
Au 17.2266 28.5015 37.0005
Au 17.1066 29.7824 34.4103
Au 16.8758 30.9133 31.6766
Au 16.519 32.2734 29.1487
Au 16.1021 33.3404 26.5105
Au 15.8372 34.6695 24.0508
Au 15.5485 35.7402 21.4949
Au 15.3885 36.6685 18.8749
Au 15.2181 37.6919 16.2324
Au 20.0863 27.8366 36.3409
Au 19.8612 29.0122 33.8594
Au 19.4844 30.1029 31.2069
Au 19.2636 31.2974 28.5649
Au 18.7842 32.7666 26.0915
Au 18.5087 33.91 23.3464
Au 18.2622 35.0441 20.5991
Au 18.1303 36.2045 18.0609
Au 17.9869 37.1433 15.3833
Au 22.6465 27.0349 35.8068
Au 22.5481 28.2593 33.4097
Au 22.3069 29.4243 30.7122
Au 21.9547 30.5525 27.8954
Au 21.7702 31.8248 25.152
Au 21.2781 32.8375 22.4601
Au 21.0587 34.2668 20.0653
Au 20.6598 35.4289 17.1743
Au 20.6934 36.2805 14.4564
Au 25.3801 26.0813 35.303
Au 25.2776 27.2654 32.6621
Au 25.1078 28.6372 29.8387
Au 24.6514 29.5887 27.0823
Au 24.4139 30.9085 24.5748
Au 24.0854 32.094 21.9679
Au 23.8373 33.2822 19.5255
Au 23.7455 34.4395 16.7264
Au 23.5348 35.4604 14.069
Au 28.14 25.5941 34.5813
Au 27.8066 26.6889 32.0977
Au 27.6729 27.6438 29.4594
Au 27.3589 28.8189 26.591
Au 27.3305 30.1549 24.1681
Au 26.9944 30.9871 21.4905
Au 26.5992 32.5333 18.802
Au 26.3108 33.7119 16.137
Au 26.1873 34.9162 13.4283
Au 31.0794 24.6376 33.8077
Au 30.7997 25.7328 31.29
Au 30.5169 26.9363 28.7964
Au 30.1117 28.1646 26.0958
Au 29.9394 29.2334 23.3917
Au 29.7017 30.3546 20.7945
Au 29.2394 31.6463 18.1237
Au 28.9857 32.9497 15.6454
Au 28.9073 34.0927 13.0615
Au 33.7884 23.9951 32.8319
Au 33.5429 24.9567 30.3814
Au 33.124 26.2683 28.0102
Au 32.7687 27.4883 25.3596
Au 32.6701 28.5234 22.8015
Au 32.4225 29.6444 20.2641
Au 31.985 30.7708 17.5329
Au 31.7421 32.0393 14.9117
Au 31.3936 33.1182 12.6754
Au 33.5278 21.0963 31.9885
Au 33.324 22.2437 29.4908
Au 32.8958 23.5757 27.0137
Au 32.7538 24.8545 24.3092
Au 32.5592 25.8641 21.7948
Au 32.3061 26.945 19.1218
Au 31.9328 28.2171 16.404
Au 31.8442 29.3806 13.8115
Au 31.4215 30.7477 11.1905
Au 33.4723 18.2103 30.8558
Au 33.4283 19.4919 28.3676
Au 33.0412 20.6651 25.7877
Au 32.7888 21.9995 23.0687
Au 32.6279 23.0397 20.4373
Au 32.2736 24.3096 17.9561
Au 31.9733 25.7092 15.0225
Au 31.7122 26.769 12.5648
Au 31.5445 28.0104 9.79121
Au 33.7236 15.6807 29.7804
Au 33.3641 16.9805 26.9197
Au 33.0865 18.1507 24.4895
Au 32.9196 19.3443 21.7049
Au 32.5196 20.5865 19.1614
Au 32.1858 21.7287 16.5754
Au 31.8104 22.8388 13.8147
Au 31.7373 24.2595 11.323
Au 31.3919 25.3148 8.63902
Au 33.4603 13.198 28.4778
Au 33.163 14.3389 25.7909
Au 32.8286 15.1466 23.2463
Au 32.7008 16.7592 20.6217
Au 32.4997 17.7992 18.0452
Au 32.0528 18.9058 15.4451
Au 31.9478 20.1636 12.8467
Au 31.5287 21.5658 10.3303
Au 31.2995 22.821 7.71682
Au 33.1293 10.6426 27.1324
Au 33.095 11.8498 24.6272
Au 32.7499 12.6785 21.8335
Au 32.6422 13.9631 19.291
Au 32.3545 15.2474 16.871
Au 32.2002 16.5029 14.2383
Au 31.7879 17.5853 11.6655
Au 31.5719 18.6705 9.08684
Au 31.2427 19.9369 6.4186
Au 33.2811 7.96958 25.8767
Au 32.8803 9.16545 23.3745
Au 32.7328 10.0785 20.6346
Au 32.458 11.3535 18.0661
Au 32.2492 12.6491 15.7094
Au 31.933 13.6637 13.0885
Au 31.8697 14.9328 10.5969
Au 31.495 15.9751 7.90423
Au 31.1022 17.1035 5.48736
Au 30.6598 7.08789 26.2552
Au 30.1355 8.37098 23.4632
Au 29.7968 9.51088 20.7124
Au 29.7633 10.5994 18.0536
Au 29.4526 11.815 15.5938
Au 29.2787 12.8437 13.0225
Au 28.98 14.1196 10.3662
Au 28.6116 15.2717 7.79168
Au 28.3177 16.3224 5.37103
Au 27.5513 6.13749 26.0928
Au 27.1983 7.20305 23.3312
Au 26.998 8.48877 20.7033
Au 26.9722 9.65346 18.0692
Au 26.5624 10.6894 15.5403
Au 26.3592 12.0188 12.9652
Au 26.2299 13.172 10.2162
Au 25.8114 14.4465 7.53607
Au 25.4935 15.7223 4.87968
Au 24.8812 5.2827 25.8496
Au 24.6931 6.30507 23.3293
Au 24.2936 7.57485 20.703
Au 24.0482 8.63628 18.0338
Au 23.8251 9.77134 15.5984
Au 23.5923 11.0084 12.9878
Au 23.4845 12.0297 10.2268
Au 23.1447 13.4876 7.58251
Au 22.8754 14.7126 4.99416
Au 22.0499 4.5404 25.7407
Au 21.8824 5.7585 22.9433
Au 21.5646 6.97768 20.3615
Au 21.231 7.92554 17.7904
Au 21.224 8.86051 15.1954
Au 20.8555 10.116 12.7636
Au 20.4565 11.4214 10.1387
Au 20.2607 12.5909 7.57596
Au 20.146 13.7481 4.94483
Au 19.3075 3.67239 25.7455
Au 19.1495 4.81546 23.1149
Au 18.5913 5.98168 20.5008
Au 18.5329 7.11116 17.7527
Au 18.0354 8.17739 15.2242
Au 18.0255 9.31568 12.5136
Au 17.6463 10.5339 9.96376
Au 17.3598 11.6534 7.41746
Au 17.2029 13.0533 4.85338
Au 16.4711 3.09468 25.5342
Au 16.3699 4.11874 22.8005
Au 15.8756 5.07548 20.1406
Au 15.6255 6.375 17.6307
Au 15.39 7.34708 15.0191
Au 14.979 8.51837 12.5034
Au 14.7316 9.63421 9.92729
Au 14.4849 10.8205 7.16051
Au 14.237 12.3079 4.79351
Au 14.6221 4.89535 26.7398
Au 14.4916 6.15511 24.2541
Au 14.4177 7.42181 21.3917
Au 14.109 8.3106 18.8707
Au 13.7099 9.59762 16.0495
Au 13.3689 10.7001 13.3498
Au 13.2767 11.9828 10.8483
Au 13.0483 12.9939 8.26478
Au 12.7861 14.4196 5.90416
Au 13.2614 7.02803 27.7119
Au 12.8949 8.22847 25.2568
Au 12.7325 9.25853 22.6411
Au 12.4174 10.561 19.8703
Au 11.9555 11.6906 17.3137
Au 11.6467 12.9601 14.7883
Au 11.6353 14.127 12.0908
Au 11.3249 15.1338 9.49855
Au 10.9645 16.41 6.78411
Au 11.4709 8.96406 28.9922
Au 11.143 10.4009 26.3438
Au 11.0383 11.6138 23.6848
Au 10.7566 12.7186 20.956
Au 10.3453 13.9761 18.2806
Au 10.0962 15.0125 15.6888
Au 9.88089 16.1208 13.1891
Au 9.75797 17.2339 10.6245
Au 9.42034 18.4767 7.98878
Au 10.0342 11.2507 30.1123
Au 9.65839 12.4928 27.5221
Au 9.41935 13.6729 24.9426
Au 9.32082 14.7442 22.2135
Au 8.881 16.1485 19.6065
Au 8.68704 17.1425 16.8913