1965
 Atoms. Timestep: 50000
Au 22.1156 12.3508 38.774
Au 22.128 13.3218 36.2541
Au 21.8625 14.4669 33.5323
Au 21.4917 15.7559 30.9297
Au 21.3812 16.6849 28.3685
Au 21.0087 17.9159 25.7281
Au 20.8153 19.3338 23.0961
Au 20.3788 20.4327 20.4145
Au 20.1953 21.5136 17.8372
Au 19.8967 22.7378 14.9247
Au 19.6346 23.9619 12.2608
Au 19.4834 25.1837 9.719
Au 19.2477 26.4924 7.06725
Au 18.7142 27.4212 4.39145
Au 18.2186 28.5191 2.04879
Au 19.7918 13.0677 37.7092
Au 19.5505 13.7881 35.1735
Au 19.1112 14.9865 32.5763
Au 19.0066 16.1831 29.8447
Au 18.6579 17.38 27.208
Au 18.4204 18.4914 24.3915
Au 18.1483 19.6688 21.9408
Au 17.7596 20.9726 19.3313
Au 17.6033 22.2223 16.7727
Au 17.2314 23.2222 13.9836
Au 17.0827 24.4362 11.2728
Au 16.7474 25.6578 8.73222
Au 16.4995 26.8348 5.99338
Au 16.1939 28.0873 3.50459
Au 21.4856 14.9579 38.6373
Au 21.2393 15.9642 36.0502
Au 20.9044 17.1231 33.4194
Au 20.7097 18.4392 30.8332
Au 20.5299 19.4814 28.1072
Au 20.2563 20.7189 25.6591
Au 19.8915 21.9252 22.9858
Au 19.6699 23.0427 20.1536
Au 19.4987 24.3648 17.3462
Au 19.2414 25.4371 14.7693
Au 18.8275 26.6507 12.1446
Au 18.6039 27.6257 9.52318
Au 18.0317 29.049 6.76737
Au 17.7559 30.2045 4.16915
Au 24.101 14.2061 38.0438
Au 24.1225 15.1992 35.3763
Au 23.7171 16.4077 32.758
Au 23.4507 17.7776 29.9581
Au 23.3197 18.9035 27.4367
Au 23.0037 19.8661 24.8333
Au 22.7766 21.2093 22.25
Au 22.2463 22.2107 19.411
Au 22.1817 23.3407 16.6075
Au 21.7611 24.6281 14.1879
Au 21.674 25.9272 11.5071
Au 21.2577 27.071 8.83079
Au 20.8784 28.2469 6.13544
Au 20.4823 29.4035 3.79817
Au 23.9388 11.522 36.7708
Au 23.8382 12.5414 34.127
Au 23.5287 13.6955 31.5127
Au 23.4191 15.1279 28.9783
Au 23.2462 16.0575 26.2593
Au 22.8316 17.4903 23.6106
Au 22.5013 18.4879 20.9483
Au 22.2777 19.7332 18.2299
Au 21.9174 20.8278 15.6848
Au 21.6936 22.0173 12.8973
Au 21.539 23.3591 10.1978
Au 21.1658 24.5786 7.63797
Au 20.7241 25.2948 4.91077
Au 20.6151 26.8017 2.43788
Au 21.2554 10.788 36.8274
Au 21.1081 11.6804 34.2301
Au 20.8144 13.0065 31.4525
Au 20.6287 13.9322 28.8166
Au 20.6718 15.1177 25.9188
Au 20.0314 16.3298 23.4634
Au 19.9172 17.5496 20.9971
Au 19.4281 18.86 18.239
Au 19.217 20.1833 15.5988
Au 18.8033 21.3498 12.8483
Au 18.6821 22.5097 10.0821
Au 18.3548 23.7814 7.46481
Au 18.0542 24.715 4.77426
Au 17.756 25.7776 2.50505
Au 16.883 13.3948 36.6119
Au 16.734 14.5744 34.1677
Au 16.5102 15.4877 31.291
Au 16.2441 16.4519 28.79
Au 16.0228 17.9268 26.163
Au 15.7563 19.019 23.4602
Au 15.4763 20.2452 20.892
Au 15.2703 21.5544 18.4534
Au 15.0384 22.7284 15.7298
Au 14.807 23.9799 12.8627
Au 14.364 25.0055 10.2441
Au 14.0592 26.2452 7.77936
Au 14.1342 27.0737 5.06806
Au 18.9257 15.6552 37.4973
Au 18.464 16.4386 34.9536
Au 18.2464 17.6285 32.2886
Au 17.9575 18.6834 29.6053
Au 17.9844 19.989 27.1437
Au 17.5885 21.2687 24.451
Au 17.3834 22.5189 21.6774
Au 17.0778 23.6507 18.9233
Au 16.9238 24.9499 16.1433
Au 16.5534 26.0505 13.5275
Au 16.1506 27.2025 10.9147
Au 15.933 28.2932 8.30808
Au 15.4084 29.4887 5.78127
Au 20.8478 17.5874 38.2541
Au 20.3779 18.7953 35.8195
Au 20.1489 19.7656 33.1015
Au 19.735 21.1373 30.2493
Au 19.6266 22.3332 27.7328
Au 19.2127 23.482 25.1667
Au 19.197 24.666 22.6568
Au 18.8628 25.8072 19.8683
Au 18.6314 27.0827 16.9839
Au 18.2419 28.2311 14.338
Au 17.7728 29.3016 11.6949
Au 17.6657 30.4131 9.03864
Au 16.9444 31.5465 6.62398
Au 23.4462 16.7224 37.7237
Au 22.998 17.9431 35.1938
Au 22.8923 19.0642 32.4954
Au 22.578 20.4024 29.941
Au 22.4936 21.5865 27.3446
Au 22.0055 22.675 24.5293
Au 21.8678 23.9143 21.8648
Au 21.4952 24.9233 19.309
Au 21.2952 26.3088 16.7293
Au 21.1005 27.5427 13.8301
Au 20.8516 28.7204 11.2086
Au 20.3491 29.7208 8.44836
Au 19.9481 30.9431 5.91767
Au 26.1198 16.0385 36.8546
Au 25.8479 17.2666 34.4795
Au 25.5828 18.2707 31.9455
Au 25.5354 19.5918 29.3322
Au 25.1592 20.686 26.5842
Au 24.8211 21.7073 23.9033
Au 24.3647 23.1762 21.0091
Au 24.1076 24.2911 18.4577
Au 24.0868 25.5074 15.8468
Au 23.7597 26.7261 13.0429
Au 23.5918 28.0167 10.4984
Au 23.0492 28.8481 7.76561
Au 22.6794 29.9873 5.39519
Au 25.9994 13.2769 35.9016
Au 25.9221 14.4693 33.313
Au 25.5619 15.6247 30.74
Au 25.3315 16.9568 28.0819
Au 25.1059 17.9311 25.4591
Au 24.753 19.1891 22.6596
Au 24.386 20.532 20.022
Au 24.2723 21.6734 17.4233
Au 23.8744 22.7852 14.7382
Au 23.6506 24.1459 12.0822
Au 23.4462 25.314 9.4624
Au 22.9576 26.5302 6.57542
Au 22.7717 27.3905 3.86739
Au 25.7991 10.8116 34.561
Au 25.7494 11.9283 32.1324
Au 25.2512 13.036 29.4024
Au 25.18 14.2007 26.8754
Au 24.8899 15.3652 24.1577
Au 24.5885 16.5091 21.4614
Au 24.4843 17.6948 18.8275
Au 24.1673 18.9461 16.2713
Au 23.624 20.1014 13.4587
Au 23.5133 21.2857 10.7777
Au 23.3168 22.67 8.15197
Au 22.9989 23.7663 5.67798
Au 22.6208 24.7149 3.00114
Au 22.9625 9.86737 34.8212
Au 22.9711 10.9251 32.1386
Au 22.671 12.1666 29.5009
Au 22.5064 13.4191 26.7223
Au 22.2112 14.4766 23.8945
Au 21.945 15.6351 21.2738
Au 21.453 17.0562 18.6793
Au 21.2504 18.147 16.0345
Au 20.847 19.307 13.362
Au 20.7613 20.5699 10.8198
Au 20.4698 21.662 8.1499
Au 20.0763 22.6939 5.47898
Au 20.0027 23.8515 2.79506
Au 20.3526 9.17248 34.5838
Au 20.2363 10.0545 32.1481
Au 19.9279 11.4104 29.2353
Au 19.6914 12.5421 26.624
Au 19.3218 13.5661 23.7943
Au 18.9177 14.6455 21.1286
Au 18.7799 15.9352 18.6397
Au 18.4629 17.4425 16.0369
Au 18.1834 18.6309 13.2875
Au 17.9815 19.7922 10.5988
Au 17.5021 21.0044 7.98728
Au 17.4309 22.2576 5.24897
Au 16.9791 23.0643 2.58246
Au 18.6117 11.2111 35.5902
Au 18.4499 12.3064 33.0684
Au 18.3053 13.4469 30.3232
Au 17.8691 14.6126 27.8343
Au 17.8752 15.7284 25.2459
Au 17.4699 16.9204 22.2874
Au 17.2254 18.1811 19.8213
Au 16.7352 19.4455 17.2292
Au 16.6185 20.5816 14.5842
Au 16.3325 21.859 11.7356
Au 15.8002 22.8817 8.98952
Au 15.7523 23.9696 6.34656
Au 15.4252 25.0233 3.78681
Au 14.4152 13.8452 35.4492
Au 14.3519 15.1024 32.8926
Au 13.9284 16.2181 30.3679
Au 13.7777 17.1592 27.6731
Au 13.495 18.4944 25.0811
Au 13.2221 19.7428 22.4436
Au 12.7263 20.8222 19.8665
Au 12.749 22.0114 17.1949
Au 12.3898 23.3372 14.4553
Au 12.0193 24.4998 11.6956
Au 11.7969 25.6775 9.13768
Au 11.6327 26.5104 6.62642
Au 16.2563 16.1304 36.4045
Au 15.9426 17.2794 33.7773
Au 15.798 18.2611 31.1798
Au 15.4184 19.3184 28.6226
Au 15.3306 20.5448 25.9076
Au 15.0695 21.7181 23.2822
Au 14.7246 23.1779 20.5224
Au 14.4281 24.3431 17.7731
Au 14.2227 25.4177 15.0736
Au 13.8807 26.6126 12.434
Au 13.3854 27.9448 9.96403
Au 13.2914 28.7519 7.2897
Au 18.2123 18.224 37.193
Au 17.7313 19.3148 34.6893
Au 17.7121 20.4123 31.7845
Au 17.17 21.5617 29.3126
Au 16.9926 22.6773 26.6866
Au 16.7305 24.151 24.0077
Au 16.3841 25.2424 21.4479
Au 16.3679 26.3654 18.615
Au 15.9538 27.484 16.0663
Au 15.6168 28.7035 13.3738
Au 15.1308 30.0649 10.6586
Au 14.7917 31.0055 7.98
Au 19.9216 20.2298 37.9602
Au 19.4516 21.4492 35.5631
Au 19.2428 22.5543 32.7937
Au 18.8911 23.6593 30.2159
Au 18.6549 25.0209 27.5215
Au 18.5671 26.429 24.703
Au 18.3557 27.2736 22.003
Au 18.0092 28.6516 19.4724
Au 17.7715 29.7676 16.7746
Au 17.2689 30.9715 14.0519
Au 17.1193 32.1187 11.3751
Au 16.5274 33.2234 8.72574
Au 22.5576 19.5825 37.5581
Au 22.3211 20.7898 35.1008
Au 21.8485 21.8069 32.3603
Au 21.7752 23.1141 29.6028
Au 21.4095 24.2536 26.9211
Au 21.2417 25.423 24.3913
Au 20.9548 26.564 21.5653
Au 20.6397 27.7177 19.0333
Au 20.4868 29.1229 16.2627
Au 20.193 30.0938 13.556
Au 19.7195 31.1181 10.8319
Au 19.4893 32.3631 8.3094
Au 25.3876 18.7611 36.9569
Au 25.1406 19.9766 34.3836
Au 24.8616 20.9795 31.5484
Au 24.5169 22.1059 29.0287
Au 24.2691 23.5201 26.195
Au 23.9182 24.6441 23.7107
Au 23.8132 25.9265 20.9282
Au 23.4599 26.9883 18.2714
Au 23.24 28.2851 15.4973
Au 23.0408 29.5538 12.8667
Au 22.5342 30.617 10.2133
Au 22.1668 31.6061 7.67721
Au 28.1577 17.9365 36.0463
Au 27.9217 19.0636 33.4503
Au 27.5268 20.4218 30.9908
Au 27.2718 21.6448 28.3867
Au 26.9741 22.8256 25.916
Au 26.5689 23.864 22.9151
Au 26.2717 25.0576 20.2841
Au 26.2098 26.3824 17.5664
Au 25.9403 27.4302 14.9135
Au 25.6757 28.7364 12.1647
Au 25.3269 29.8963 9.51435
Au 24.8259 30.7341 6.95339
Au 28.0652 15.3777 34.9896
Au 27.7795 16.4509 32.3857
Au 27.4421 17.6592 29.8269
Au 27.1946 18.8591 27.1304
Au 26.8755 19.9189 24.5396
Au 26.6153 21.1102 21.6394
Au 26.4557 22.495 19.0274
Au 25.99 23.6388 16.388
Au 25.893 24.9357 13.7324
Au 25.4916 25.9332 11.0591
Au 25.2763 27.0689 8.20489
Au 24.9631 28.2335 5.78586
Au 27.9101 12.6531 33.9067
Au 27.6476 13.7342 31.2721
Au 27.3541 14.6914 28.7193
Au 27.0833 15.9703 26.0678
Au 26.7951 17.3022 23.1568
Au 26.4982 18.5405 20.5651
Au 26.4085 19.767 17.9656
Au 25.833 21.0388 15.2573
Au 25.5625 22.1584 12.4567
Au 25.5498 23.2902 9.83175
Au 25.217 24.5441 7.08627
Au 24.7627 25.6331 4.46035
Au 27.5381 10.0228 32.4651
Au 27.37 11.1056 30.0357
Au 27.085 12.2462 27.4439
Au 26.9872 13.4849 24.8421
Au 26.9675 14.759 21.8976
Au 26.3327 15.8901 19.168
Au 26.2179 17.1157 16.692
Au 25.949 18.3069 14.0237
Au 25.5606 19.6059 11.3375
Au 25.2513 20.6358 8.54719
Au 24.9457 21.9705 6.06661
Au 24.6859 23.0606 3.53111
Au 25.1305 9.12646 32.5857
Au 24.7052 10.1374 29.9992
Au 24.4667 11.4206 27.2744
Au 24.2409 12.6577 24.5874
Au 24.0091 13.7532 21.8971
Au 23.655 14.9308 19.1938
Au 23.2385 16.3654 16.7864
Au 22.9494 17.5944 14.0393
Au 22.7863 18.5445 11.194
Au 22.608 19.8765 8.65594
Au 22.2616 20.9389 6.08692
Au 21.9759 21.9588 3.58316
Au 22.2583 8.10591 32.5296
Au 22.0741 9.1952 30.048
Au 21.6983 10.668 27.2255
Au 21.4511 11.7325 24.5018
Au 21.0327 12.9471 21.6623
Au 21.0204 14.0037 19.0392
Au 20.5937 15.3027 16.4574
Au 20.3041 16.6264 13.7246
Au 20.0894 17.7359 11.1422
Au 20.0021 18.9421 8.47418
Au 19.4156 20.231 5.86145
Au 19.1266 21.2778 3.25677
Au 19.463 7.5659 32.3568
Au 19.1708 8.62527 29.8012
Au 18.8753 9.80455 27.0959
Au 18.6601 10.9326 24.3384
Au 18.2657 11.8876 21.7675
Au 18.0656 13.253 19.0797
Au 17.7709 14.4587 16.5852
Au 17.6183 15.945 13.8409
Au 17.3392 17.0911 11.1343
Au 17.0939 18.0674 8.46525
Au 16.7401 19.4759 5.8334
Au 16.6241 20.3377 3.3582
Au 17.7201 9.71301 33.4629
Au 17.4057 10.849 30.8812
Au 17.3339 11.9002 28.2213
Au 17.172 12.832 25.57
Au 16.7926 14.267 22.9464
Au 16.3677 15.3855 19.9959
Au 16.1042 16.5637 17.5489
Au 15.7293 17.8089 14.9265
Au 15.6215 19.1669 12.2062
Au 15.1977 20.1232 9.53499
Au 14.9259 21.445 6.63688
Au 14.8018 22.4398 4.2246
Au 16.0667 11.8034 34.6523
Au 15.8058 12.7667 32.0821
Au 15.3454 13.9513 29.1989
Au 15.5455 14.9215 26.4855
Au 15.1533 16.2728 23.9966
Au 14.8278 17.5191 21.1827
Au 14.5211 18.7923 18.7108
Au 14.3065 20.0657 16.1406
Au 14.0382 21.282 13.2667
Au 13.4224 22.2089 10.6633
Au 13.2171 23.2791 7.83269
Au 13.1335 24.4173 5.35967
Au 12.1442 14.4854 34.3001
Au 11.4665 15.5035 31.8926
Au 11.3044 16.7312 29.3269
Au 11.1629 17.8794 26.621
Au 10.9203 19.1968 24.0632
Au 10.5459 20.2351 21.4625
Au 10.324 21.4979 18.542
Au 9.98277 22.8293 15.9101
Au 9.81324 23.9345 13.2326
Au 9.4631 25.1312 10.6219
Au 9.32104 25.9588 7.87001
Au 13.5395 16.561 35.4573
Au 13.2615 17.7154 32.8647
Au 13.1955 18.6203 29.9273
Au 12.9418 19.9599 27.4777
Au 12.7931 21.1601 24.9038
Au 12.3415 22.5569 22.0971
Au 12.258 23.6451 19.4565
Au 11.74 24.7114 16.6201
Au 11.6727 26.0115 14.2089
Au 11.1193 27.1596 11.5308
Au 11.0361 28.3449 8.68071
Au 15.5531 18.7724 36.2345
Au 15.146 19.8267 33.616
Au 14.8014 20.7004 31.0054
Au 14.7394 22.1585 28.0689
Au 14.4734 23.3026 25.5407
Au 14.1251 24.6444 22.9848
Au 14.0409 25.9144 20.3109
Au 13.6998 26.982 17.4986
Au 13.3873 28.1614 14.9954
Au 12.9919 29.4898 12.3365
Au 12.6329 30.6496 9.50779
Au 17.2097 20.8474 37.0404
Au 16.8906 21.8083 34.3878
Au 16.7621 23.01 31.8077
Au 16.319 24.2743 29.1648
Au 16.2305 25.5571 26.344
Au 16.0352 26.7776 23.7866
Au 15.6991 28.0586 21.0337
Au 15.2726 29.1411 18.4317
Au 15.1966 30.2355 15.8218
Au 14.6842 31.3398 13.2715
Au 14.4893 32.5483 10.42
Au 18.7338 22.9471 37.7155
Au 18.4135 24.1055 35.0015
Au 18.2364 25.3279 32.4685
Au 18.1296 26.5826 29.7358
Au 18.0336 27.7349 27.1826
Au 17.7637 29.028 24.3709
Au 17.5014 30.1313 21.8076
Au 17.1904 31.1681 19.0293
Au 16.955 32.5944 16.5765
Au 16.5453 33.6482 13.6958
Au 16.4805 34.744 11.0954
Au 21.6649 22.2769 37.301
Au 21.334 23.4217 34.5839
Au 21.2133 24.6259 31.9249
Au 20.7782 25.7914 29.2022
Au 20.6792 26.9365 26.6252
Au 20.5462 28.2823 23.9134
Au 20.17 29.4076 21.3724
Au 19.8083 30.3967 18.6573
Au 19.49 31.778 15.8697
Au 19.4444 32.7994 13.1757
Au 18.835 33.8191 10.484
Au 24.6433 21.5915 36.5845
Au 24.2063 22.486 33.9955
Au 23.8073 23.6673 31.3762
Au 23.5856 24.846 28.6782
Au 23.3521 26.1769 25.9859
Au 23.2179 27.3565 23.2874
Au 22.721 28.6405 20.7784
Au 22.5412 29.7071 17.853
Au 22.2427 31.012 15.2794
Au 22.0535 32.005 12.5525
Au 21.6091 33.1893 9.8434
Au 27.3121 20.5101 35.8473
Au 26.9133 21.7746 33.4375
Au 26.5667 23.1131 30.8895
Au 26.2715 24.0608 28.0074
Au 26.1399 25.6276 25.2941
Au 25.8599 26.6246 22.7127
Au 25.6388 27.7836 19.8983
Au 25.2833 29.0325 17.3308
Au 25.2396 30.2274 14.6037
Au 24.7949 31.4586 11.7632
Au 24.3365 32.4108 9.15818
Au 29.9642 19.8444 34.9589
Au 29.7998 21.1217 32.5814
Au 29.4788 22.2988 29.9668
Au 29.2153 23.5992 27.2448
Au 28.6694 24.6439 24.7255
Au 28.5669 25.8883 22.1264
Au 28.2693 27.0084 19.2999
Au 28.002 28.337 16.485
Au 27.8782 29.5776 13.8927
Au 27.749 30.7518 11.1816
Au 27.2068 31.6798 8.68602
Au 29.8197 17.0976 34.0772
Au 29.8744 18.463 31.4551
Au 29.3465 19.5986 28.9726
Au 28.8359 20.8399 26.226
Au 28.5285 22.0501 23.6065
Au 28.475 23.0962 20.989
Au 28.1958 24.3358 18.0987
Au 28.079 25.5238 15.4135
Au 27.7065 26.9098 12.7192
Au 27.4889 28.069 9.86691
Au 27.1518 29.2114 7.4064
Au 29.7831 14.468 32.8198
Au 29.6982 15.6344 30.3914
Au 29.2975 17.036 27.8571
Au 28.9551 18.0634 24.9113
Au 28.604 19.2461 22.456
Au 28.5138 20.532 19.7125
Au 28.0701 21.622 16.8805
Au 27.7837 22.8791 14.1295
Au 27.5247 24.1969 11.6947
Au 27.3426 25.4379 8.78704
Au 26.9692 26.4528 6.18476
Au 29.596 11.6982 31.71
Au 29.6877 12.8999 29.0272
Au 29.0862 14.3074 26.5691
Au 28.8687 15.4586 23.9196
Au 28.6173 16.6398 21.0439
Au 28.3559 17.8343 18.4614
Au 28.0331 18.9676 15.8916
Au 27.6479 20.0926 13.1377
Au 27.4682 21.5532 10.3941
Au 27.3606 22.773 7.65207
Au 27.0496 23.7272 5.26826
Au 29.4218 9.35778 30.3246
Au 29.2698 10.4265 27.8328
Au 28.9602 11.5109 25.3203
Au 28.7007 12.6869 22.6007
Au 28.5049 13.9885 19.9084
Au 28.0254 15.2087 17.2957
Au 27.9659 16.4292 14.7194
Au 27.7861 17.4532 11.9152
Au 27.3889 18.8297 9.30547
Au 27.1729 20.0499 6.57371
Au 26.7377 21.2722 4.17698
Au 26.8076 8.35691 30.2616
Au 26.5543 9.34667 27.8382
Au 26.3556 10.8492 25.1173
Au 26.209 11.9602 22.3954
Au 25.6843 13.1441 19.8991
Au 25.2932 14.3457 17.0969
Au 25.0377 15.688 14.6058
Au 24.9299 16.7822 11.8366
Au 24.6187 17.9608 9.2632
Au 24.4592 19.1031 6.45759
Au 24.0929 20.1916 3.86251
Au 24.259 7.34355 30.4237
Au 23.8196 8.51526 27.9276
Au 23.6211 9.74636 25.1768
Au 23.2874 11.0361 22.5282
Au 23.11 11.9848 19.6578
Au 22.7548 13.4301 16.8875
Au 22.4885 14.7341 14.258
Au 22.1265 16.0286 11.7038
Au 21.8521 17.0652 9.01554
Au 21.6277 18.1203 6.33654
Au 21.3713 19.4141 3.77983
Au 21.2185 6.73425 30.219
Au 21.1009 7.95715 27.6431
Au 20.8485 9.02779 25.1819
Au 20.3963 10.1286 22.3833
Au 20.1735 11.2836 19.6722
Au 19.7834 12.5589 17.0446
Au 19.6936 13.8678 14.3584
Au 19.2535 15.0806 11.7115
Au 19.0158 16.1732 9.06256
Au 18.881 17.3459 6.23773
Au 18.5967 18.4946 3.90176
Au 18.581 5.9033 30.0736
Au 18.2119 7.12765 27.6257
Au 17.9793 8.13306 24.8861
Au 17.5082 9.31901 22.2285
Au 17.1534 10.4893 19.3728
Au 17.1062 11.6772 16.8081
Au 16.9463 13.1814 14.0881
Au 16.6527 14.4224 11.6944
Au 16.3872 15.5478 8.98115
Au 16.2523 16.5708 6.28468
Au 15.8543 17.7852 3.87692
Au 16.9898 7.8642 31.2661
Au 16.5416 9.28859 28.8228
Au 16.4112 10.2264 26.0813
Au 15.9036 11.4833 23.3227
Au 15.7353 12.5738 20.7806
Au 15.4169 13.7191 18.0451
Au 15.2793 15.0868 15.4025
Au 14.9464 16.5837 12.6196
Au 14.732 17.3753 10.053
Au 14.4243 18.7463 7.17191
Au 14.1433 19.7104 4.68777
Au 15.3613 10.0541 32.2547
Au 14.7789 11.286 29.9667
Au 14.5199 12.1485 27.055
Au 14.4121 13.5772 24.4947
Au 14.3655 14.702 21.7422
Au 13.7426 16.0223 19.0342
Au 13.5973 17.3018 16.382
Au 13.0801 18.6035 13.9462
Au 13.1565 19.5606 11.0435
Au 12.8878 20.7404 8.44967
Au 12.2231 21.6838 5.68075
Au 13.5467 12.2557 33.4423
Au 13.2384 13.3424 30.9109
Au 12.8322 14.4334 28.1565
Au 12.8276 15.7066 25.5247
Au 12.4122 17.0058 22.8564
Au 12.1395 18.1277 20.2873
Au 11.9116 19.2794 17.4777
Au 11.6022 20.6675 14.9811
Au 11.3808 21.8366 12.3875
Au 10.9983 22.757 9.50425
Au 10.778 23.9104 6.88012
Au 9.24551 14.7265 33.4991
Au 8.87947 15.9996 30.9377
Au 8.74298 17.4394 28.233
Au 8.49432 18.2952 25.5507
Au 8.31249 19.7164 22.8555
Au 8.08055 20.9597 20.2381
Au 7.73635 22.07 17.5623
Au 7.31687 23.3003 14.9253
Au 7.19022 24.5429 12.4956
Au 6.92639 25.5032 9.8179
Au 10.9251 17.0044 34.3987
Au 10.6998 18.0904 31.6905
Au 10.447 19.3423 29.0006
Au 10.3516 20.6892 26.3861
Au 10.1933 21.8378 23.7772
Au 9.89316 23.0216 20.9052
Au 9.60524 24.2895 18.3707
Au 9.28698 25.4845 15.5281
Au 8.84329 26.5871 13.0608
Au 8.72099 27.9005 10.2429
Au 12.8597 19.3469 35.0724
Au 12.5013 20.3469 32.3988
Au 12.4044 21.4377 29.733
Au 12.1118 22.8389 27.1665
Au 11.8582 23.9688 24.6102
Au 11.5638 25.2535 21.7986
Au 11.3876 26.5605 18.9549
Au 11.1127 27.6454 16.3802
Au 10.6854 28.635 13.8037
Au 10.4694 30.0333 11.234
Au 14.6381 21.335 35.9674
Au 14.2074 22.5265 33.2224
Au 14.1166 23.5467 30.5333
Au 13.9672 24.8319 27.9357
Au 13.7684 26.1981 25.2942
Au 13.2082 27.4139 22.6201
Au 12.8118 28.5381 20.1287
Au 12.775 29.847 17.3151
Au 12.3387 30.8821 14.6323
Au 12.2877 32.2186 11.9134
Au 16.2982 23.5816 36.6444
Au 16.088 24.6279 34.0323
Au 15.7654 25.7485 31.5274
Au 15.7198 27.0897 28.7509
Au 15.4658 28.2538 25.8867
Au 15.088 29.6976 23.2631
Au 14.8314 30.7565 20.6758
Au 14.4282 32.0303 17.8778
Au 14.3967 32.9954 15.4578
Au 14.1709 33.972 12.704
Au 18.2845 25.6167 37.306
Au 17.7997 27.0516 34.6461
Au 17.4534 28.1483 31.8843
Au 17.3702 29.2954 29.2097
Au 17.0728 30.5458 26.7336
Au 16.8822 31.5864 24.1169
Au 16.5382 32.7797 21.533
Au 16.3435 34.0545 18.9541
Au 16.1197 35.3031 16.1701
Au 15.8202 36.2517 13.6277
Au 20.7788 24.8366 36.8024
Au 20.4842 26.026 34.3625
Au 20.1217 27.1585 31.8475
Au 20.2034 28.5448 29.0277
Au 19.7767 29.8447 26.2439
Au 19.5324 30.9247 23.5991
Au 19.2238 32.2119 20.9514
Au 18.9713 33.2777 18.2157
Au 18.8272 34.5201 15.4065
Au 18.4322 35.5331 12.8271
Au 23.6225 24.1388 36.4629
Au 23.2074 25.2376 33.7378
Au 23.0954 26.4782 31.0144
Au 22.7543 27.5801 28.2661
Au 22.4988 28.9441 25.6853
Au 22.345 30.1906 23.0938
Au 21.9334 31.3635 20.3136
Au 21.6097 32.3217 17.4772
Au 21.6113 33.6423 14.7855
Au 21.1456 34.7282 12.2098
Au 26.1987 23.3637 35.853
Au 26.0619 24.4652 33.209
Au 25.6515 25.6432 30.5169
Au 25.3989 26.849 27.7863
Au 25.3095 28.291 25.0133
Au 25.0338 29.377 22.3572
Au 24.4978 30.2825 19.6287
Au 24.366 31.8835 16.8555
Au 24.2711 32.955 14.1523
Au 23.7547 34.0919 11.4717
Au 29.1035 22.392 35.1216
Au 28.827 23.6371 32.6617
Au 28.4198 25.0635 29.6189
Au 28.2474 26.1812 26.9892
Au 28.1142 27.6778 24.347
Au 27.8072 28.5876 21.6562
Au 27.494 29.772 18.8964
Au 27.2176 31.1967 16.4404
Au 26.8669 32.2939 13.6452
Au 26.6755 33.2722 11.012
Au 31.7289 21.8996 34.1914
Au 31.6666 22.9772 31.7327
Au 31.1699 24.3547 28.8403
Au 30.8455 25.4672 26.2791
Au 30.6742 26.7108 23.7672
Au 30.4099 27.7169 21.1522
Au 30.1413 29.0406 18.3419
Au 29.8242 30.196 15.684
Au 29.7429 31.4935 13.1705
Au 29.1899 32.5987 10.2753
Au 31.7359 19.2734 33.258
Au 31.5029 20.3083 30.5182
Au 31.1917 21.6291 28.014
Au 30.9594 22.8514 25.2561
Au 30.4965 24.0405 22.552
Au 30.1796 25.1188 19.874
Au 30.2113 26.3273 17.2731
Au 29.9123 27.657 14.5768
Au 29.6785 28.7801 11.6997
Au 29.4186 30.0779 9.13408
Au 31.8103 16.4549 31.9668
Au 31.5828 17.6031 29.3536
Au 31.0348 18.8311 26.7892
Au 30.7003 20.2071 24.0536
Au 30.4671 21.2986 21.5183
Au 30.1898 22.3924 18.6238
Au 30.0963 23.6022 15.9833
Au 29.7369 25.026 13.2082
Au 29.3373 26.2368 10.5971
Au 29.064 27.1632 7.79669
Au 31.6436 13.6559 30.6005
Au 31.2918 15.073 28.121
Au 30.9922 16.1917 25.7293
Au 30.884 17.3809 22.9249
Au 30.4772 18.5125 20.2855
Au 30.0356 19.7379 17.5464
Au 29.8983 20.9503 14.8069
Au 29.6496 22.3847 12.303
Au 29.2108 23.4483 9.42338
Au 29.241 24.5464 6.58258
Au 31.6893 11.0941 29.4622
Au 31.3407 12.2334 27.0502
Au 30.7777 13.491 24.5123
Au 30.5946 14.6379 21.7352
Au 30.4251 15.9087 18.9684
Au 30.1522 16.9461 16.3218
Au 29.7122 18.1852 13.5755
Au 29.459 19.7763 11.0289
Au 29.2281 20.7598 8.28931
Au 29.1698 22.0001 5.65378
Au 31.221 8.84959 28.1799
Au 31.1585 9.72631 25.5314
Au 30.9215 10.9609 23.0062
Au 30.5241 11.9685 20.3237
Au 30.1397 13.2568 17.8278
Au 30.1503 14.3696 15.223
Au 29.9031 15.6408 12.49
Au 29.5091 16.9256 9.86428
Au 29.2322 18.1202 7.15696
Au 29.1061 19.3992 4.70795
Au 28.908 7.63003 28.256
Au 28.3928 8.76311 25.6877
Au 28.1081 10.1454 23.0227
Au 27.8941 11.1952 20.2505
Au 27.5199 12.4089 17.6055
Au 27.2239 13.657 14.964
Au 26.7584 14.8567 12.5831
Au 26.7675 16.0349 9.83913
Au 26.502 17.3242 7.3081
Au 26.2745 18.3379 4.39814
Au 25.9405 6.72807 28.3008
Au 25.5998 7.76911 25.6241
Au 25.2909 9.19467 23.1148
Au 25.0563 10.2393 20.4778
Au 24.7563 11.365 17.5399
Au 24.5504 12.6997 14.8258
Au 24.0885 13.9362 12.2632
Au 24.0587 15.3024 9.59633
Au 23.5575 16.3743 6.95109
Au 23.3646 17.494 4.29751
Au 22.8896 5.79205 28.229
Au 22.7758 6.97328 25.6134
Au 22.5385 8.21649 23.1062
Au 22.1783 9.51264 20.1711
Au 21.9209 10.7577 17.3415
Au 21.6511 11.8346 14.7247
Au 21.4074 13.2323 12.1375
Au 21.1652 14.3276 9.51528
Au 20.8805 15.4753 6.76583
Au 20.7482 16.5174 4.36571
Au 20.3572 5.16897 28.1366
Au 20.0391 6.27332 25.6083
Au 19.7365 7.4337 22.9583
Au 19.2866 8.57755 20.0264
Au 19.2022 9.66392 17.447
Au 18.8873 11.1467 14.6588
Au 18.751 12.2244 12.1392
Au 18.5882 13.3249 9.47342
Au 18.1517 14.6943 6.71623
Au 17.9508 15.7452 4.28396
Au 17.4742 4.35596 28.1522
Au 17.3573 5.46297 25.5183
Au 16.8295 6.72461 22.5462
Au 16.5489 7.76776 19.9032
Au 16.302 8.76436 17.2522
Au 15.9997 10.2365 14.6871
Au 15.8765 11.4897 12.0354
Au 15.5631 12.8833 9.50087
Au 15.3313 13.8994 6.7997
Au 15.2003 14.8669 4.33689
Au 15.9094 6.42162 29.1117
Au 15.6332 7.50756 26.6426
Au 15.2201 8.60313 24.0194
Au 14.9824 9.85376 21.0533
Au 14.7633 11.3449 18.3323
Au 14.5175 12.3328 15.5542
Au 14.2839 13.8071 13.0227
Au 13.9764 14.8972 10.3935
Au 13.8219 16.048 7.82062
Au 13.4707 16.7869 5.16769
Au 14.3469 8.43047 30.2705
Au 13.9212 9.50095 27.7911
Au 13.6181 10.6696 24.8507
Au 13.2563 11.9278 22.1993
Au 13.0237 13.3313 19.7458
Au 12.7883 14.6753 16.6413
Au 12.5374 15.7616 14.1852
Au 12.3127 16.8507 11.7008
Au 12.0542 18.0088 8.94387
Au 11.7967 19.0764 6.29332
Au 12.433 10.6552 31.0996
Au 12.1742 11.7461 28.7438
Au 11.9409 12.7902 25.8946
Au 11.7656 14.2258 23.444
Au 11.6362 15.4118 20.8295
Au 11.16 16.7038 17.9023
Au 10.7457 17.8838 15.4936
Au 10.756 19.0728 12.7594
Au 10.6495 20.251 10.083
Au 9.91943 21.2831 7.48254
Au 10.9296 12.7269 32.4885
Au 10.5264 14.0384 29.7499
Au 10.4457 15.0686 27.1942
Au 10.1258 16.3443 24.4793
Au 9.65848 17.5714 21.9137
Au 9.71537 18.7649 19.2445
Au 9.24292 20.0641 16.4435
Au 8.96351 21.1722 13.7013
Au 8.66444 22.4551 11.0928
Au 8.36087 23.457 8.58679
Au 6.79687 15.3605 32.3447
Au 6.40846 16.6544 29.6833
Au 6.1654 17.8462 26.8363
Au 5.85054 18.9775 24.4058
Au 5.83048 20.2149 21.7593
Au 5.45204 21.4557 19.1597
Au 5.1237 22.7111 16.5156
Au 4.76759 24.08 14.085
Au 4.70694 24.7989 11.4431
Au 8.46851 17.5821 33.2671
Au 8.29882 18.6892 30.7353
Au 7.9338 20.098 27.852
Au 7.64834 21.1343 25.2192
Au 7.57999 22.3897 22.681
Au 7.27574 23.5918 19.9381
Au 6.9764 24.899 17.2631
Au 6.60638 26.1654 14.5622
Au 6.35142 27.2639 12.0804
Au 10.1814 19.7538 33.8951
Au 9.84191 20.9363 31.1986
Au 9.7039 22.1262 28.6437
Au 9.41749 23.2865 25.9578
Au 9.37564 24.5916 23.2423
Au 8.94985 25.7764 20.6684
Au 8.79233 26.9856 17.9392
Au 8.36819 28.2451 15.3601
Au 8.12358 29.2529 12.8176
Au 12.0281 21.9707 34.8299
Au 11.6864 23.1884 32.1849
Au 11.6847 24.202 29.5271
Au 11.2298 25.6547 26.9985
Au 11.1355 26.6204 24.3196
Au 10.6933 27.8792 21.453
Au 10.4938 29.3526 18.7636
Au 10.0373 30.5305 16.1618
Au 9.87734 31.5078 13.5992
Au 13.8626 23.9943 35.5987
Au 13.4317 25.2782 33.1926
Au 13.4392 26.2644 30.3112
Au 13.1145 27.5359 27.7422
Au 12.8443 28.7472 25.0351
Au 12.3984 30.1218 22.3314
Au 12.3261 31.3495 19.6898
Au 11.7791 32.5832 17.0549
Au 11.8847 33.5718 14.5524
Au 15.4808 26.3348 36.1922
Au 15.1192 27.5801 33.4707
Au 14.9619 28.7413 31.0169
Au 14.7651 29.9225 28.2155
Au 14.4486 31.1568 25.737
Au 14.2497 32.3156 22.9552
Au 13.9664 33.4732 20.3108
Au 13.5724 34.7788 17.6699
Au 13.5796 35.5669 15.2572
Au 17.4055 28.4895 36.8908
Au 17.0102 29.715 34.3805
Au 16.7827 31.0037 31.8225
Au 16.3778 32.0599 29.2079
Au 16.1686 33.3061 26.5747
Au 15.8633 34.2974 23.9329
Au 15.6222 35.6696 21.2137
Au 15.3292 36.8166 18.5797
Au 15.0862 37.756 15.9908
Au 20.0412 27.751 36.4788
Au 19.7346 28.8603 33.9033
Au 19.4654 29.947 31.2593
Au 19.1177 31.4422 28.5306
Au 18.8945 32.6419 25.8999
Au 18.631 33.8078 23.2382
Au 18.2829 34.7367 20.4898
Au 18.1911 36.0649 17.8456
Au 17.9403 37.0886 15.2843
Au 22.6928 26.5997 36.0621
Au 22.3803 27.8076 33.4723
Au 22.1878 28.9675 30.758
Au 21.8186 30.5941 27.9889
Au 21.5263 31.9084 25.3299
Au 21.379 32.915 22.7221
Au 21.1726 34.0255 19.5601
Au 20.9091 35.2729 17.1805
Au 20.6354 36.2769 14.5788
Au 25.451 26.054 35.3136
Au 25.1587 27.0442 32.8637
Au 24.9028 28.5368 29.9813
Au 24.7415 29.7561 27.3697
Au 24.4359 31.0536 24.645
Au 24.2082 32.0113 21.9659
Au 23.7885 33.1134 19.2097
Au 23.4347 34.5831 16.6119
Au 23.3081 35.6226 13.9466
Au 28.1245 24.9804 34.9567
Au 28.0629 26.1614 32.2503
Au 27.653 27.8396 29.5427
Au 27.4055 28.8984 26.7732
Au 27.1257 30.1949 24.0942
Au 26.8812 31.2221 21.2602
Au 26.4133 32.4523 18.7566
Au 26.179 33.8764 15.9898
Au 25.8858 35.005 13.2412
Au 31.0553 24.4816 34.1863
Au 30.7201 25.5096 31.3281
Au 30.2733 27.0002 28.8707
Au 30.3216 28.1054 26.1812
Au 29.9684 29.485 23.4094
Au 29.7018 30.4816 20.8534
Au 29.3121 31.7827 18.1581
Au 29.0169 32.9684 15.3413
Au 28.6897 34.0446 12.753
Au 33.6443 24.0237 33.2959
Au 33.4274 24.954 30.5414
Au 33.0621 26.1527 27.9308
Au 33.0092 27.4579 25.3737
Au 32.7742 28.7847 22.7104
Au 32.2453 29.7888 20.198
Au 32.1764 31.161 17.7022
Au 31.703 32.1559 15.0921
Au 31.4247 33.2428 12.3653
Au 33.632 21.0049 32.1696
Au 33.2455 22.3675 29.5955
Au 33.0818 23.2952 26.9206
Au 32.8298 24.7271 24.4572
Au 32.4503 25.9042 21.6984
Au 32.1153 26.9599 19.0495
Au 31.8445 28.5627 16.3419
Au 31.7895 29.5289 13.6126
Au 31.5056 30.6601 10.9374
Au 33.5592 18.5524 31.0583
Au 33.344 19.7172 28.3931
Au 32.8874 20.7922 25.8587
Au 32.7678 22.0692 23.0729
Au 32.2384 23.1477 20.5113
Au 32.0744 24.3039 17.7436
Au 31.7186 25.6397 14.9882
Au 31.6547 26.9657 12.3813
Au 31.3291 27.9657 9.54572
Au 33.5791 15.7675 29.7179
Au 33.2044 17.0137 27.2513
Au 32.8468 18.1156 24.6032
Au 32.5663 19.4657 21.9446
Au 32.2 20.5443 19.2475
Au 31.9433 21.7133 16.5466
Au 31.7062 23.1425 13.8268
Au 31.3765 24.3819 11.1011
Au 31.0958 25.3398 8.49095
Au 33.4664 13.1671 28.7177
Au 33.1099 14.2969 26.1754
Au 32.758 15.3469 23.5444
Au 32.5316 16.4611 20.7051
Au 32.1786 17.883 18.0039
Au 31.8908 19.0619 15.4043
Au 31.6669 20.3198 12.5996
Au 31.4128 21.7372 10.0811
Au 31.2507 22.7993 7.43439
Au 33.5266 10.5348 27.4117
Au 32.9977 11.6691 24.7739
Au 32.7534 12.8561 22.0204
Au 32.4394 14.0803 19.4971
Au 32.2874 15.136 16.8455
Au 31.8703 16.4536 14.1995
Au 31.5327 17.6886 11.594
Au 31.414 18.9844 8.78326
Au 31.1897 20.0137 6.27265
Au 33.2821 7.94455 25.9719
Au 32.974 8.92766 23.4924
Au 32.5626 10.2249 20.9573
Au 32.2922 11.339 18.2831
Au 32.1194 12.5562 15.6619
Au 31.8975 13.6907 12.9141
Au 31.5644 15.1606 10.1853
Au 31.2472 16.1293 7.67122
Au 31.207 17.2987 5.21647
Au 30.49 7.07378 26.1247
Au 30.261 8.00158 23.5214
Au 29.8205 9.25421 20.9573
Au 29.5434 10.5005 18.1697
Au 29.3537 11.7644 15.5678
Au 29.0399 12.9006 12.9303
Au 28.6448 14.1187 10.3624
Au 28.5439 15.378 7.77725
Au 28.123 16.5753 5.00328
Au 27.7442 6.19271 26.0671
Au 27.2437 7.17215 23.3898
Au 27.0609 8.49895 20.8217
Au 26.7245 9.63941 18.2409
Au 26.5856 10.807 15.4937
Au 26.2 12.0053 12.7491
Au 25.9619 13.361 10.1643
Au 25.8751 14.4917 7.48768
Au 25.5301 15.8211 5.22175
Au 24.8608 5.18422 26.231
Au 24.6084 6.43028 23.5008
Au 24.252 7.56313 21.0563
Au 23.974 8.81885 18.081
Au 23.7643 10.0446 15.4645
Au 23.352 11.2864 12.6582
Au 23.2301 12.5222 10.1397
Au 22.8768 13.6324 7.37457
Au 22.9013 14.8993 4.71588
Au 22.1197 4.24621 25.9719
Au 21.958 5.53126 23.4757
Au 21.4555 6.82484 20.7954
Au 21.3226 8.0455 18.008
Au 20.7797 9.13816 15.3481
Au 20.7103 10.3587 12.467
Au 20.5297 11.5521 9.78048
Au 20.018 12.6292 7.20168
Au 20.0012 13.9132 4.71124
Au 19.3165 3.53679 25.8217
Au 18.9795 4.69112 23.2767
Au 18.8162 5.87353 20.6794
Au 18.3468 7.03435 17.8865
Au 18.1284 8.35191 15.1064
Au 17.8653 9.57103 12.5256
Au 17.694 10.6997 9.9937
Au 17.3209 11.924 7.26035
Au 17.0643 13.0151 4.77718
Au 16.6151 2.8853 25.7602
Au 16.3613 3.86159 23.1512
Au 16.0782 4.76551 20.4155
Au 15.6075 6.07856 17.8728
Au 15.3971 7.34525 15.0745
Au 15.1721 8.49063 12.4775
Au 14.855 9.96364 10.1062
Au 14.6517 11.008 7.64155
Au 14.4599 12.0587 5.04345
Au 14.9206 4.74325 26.857
Au 14.8795 5.72108 24.2617
Au 14.3774 6.97137 21.6115
Au 13.8788 8.37309 18.9126
Au 13.814 9.54281 16.2
Au 13.4805 10.7513 13.5157
Au 13.1702 12.1299 10.8083
Au 13.1231 13.0805 8.35555
Au 12.6542 14.1186 5.78727
Au 13.2589 6.61441 27.9284
Au 13.1631 7.90752 25.5763
Au 12.7622 9.16924 22.7712
Au 12.454 10.5935 19.9409
Au 12.3514 11.8799 17.2311
Au 11.831 12.9395 14.5485
Au 11.5261 14.1874 11.8759
Au 11.4313 15.2998 9.33088
Au 11.2285 16.3798 6.87736
Au 11.6584 9.10862 29.1331
Au 11.4974 10.1367 26.5789
Au 11.0521 11.3022 23.9236
Au 10.6707 12.7096 21.196
Au 10.4831 13.7056 18.6308
Au 10.1944 15.0752 15.8255
Au 10.0219 16.46 13.3053
Au 9.79163 17.6258 10.5522
Au 9.50212 18.756 8.01792
Au 9.83379 11.1135 30.3471
Au 9.6718 12.2979 27.5261
Au 9.38217 13.5873 24.8451
Au 9.23184 14.8148 22.2703
Au 9.00475 16.0352 19.6442
Au 8.4827 17.2686 16.9946
Au 8.26398 18.5412 14.4149