1925
 Atoms. Timestep: 50000
Au 1.39166 26.6273 25.2681
Au 2.74285 28.8903 25.9296
Au 4.58642 30.8946 26.7556
Au 6.2959 32.7033 27.9338
Au 8.19699 34.7 28.4761
Au 1.50038 22.9064 23.335
Au 3.29546 25.1044 24.2713
Au 4.84783 27.3991 25.2247
Au 6.74609 29.4774 26.0456
Au 8.44104 31.5352 26.6328
Au 10.2221 33.4582 27.4039
Au 12.2279 35.965 28.1438
Au 2.14833 19.286 21.7453
Au 3.68627 21.6149 22.568
Au 5.51265 23.5401 23.4458
Au 7.34352 25.942 24.0847
Au 9.04829 28.1594 25.0942
Au 10.821 30.2579 25.7611
Au 12.5468 32.1515 26.4075
Au 14.4151 34.27 27.374
Au 15.9705 36.6033 28.2006
Au 2.46209 16.0097 20.0181
Au 4.16753 17.6526 20.8729
Au 5.98938 19.9012 21.6283
Au 7.69558 22.108 22.463
Au 9.68738 24.4579 23.2211
Au 11.2628 26.5548 23.9287
Au 12.9135 28.7364 24.8013
Au 14.9393 30.8112 25.4601
Au 16.6912 32.7714 26.425
Au 18.2969 34.9268 27.3037
Au 20.023 37.1025 28.1633
Au 3.38224 11.997 18.5953
Au 4.93781 14.2719 19.2973
Au 6.63365 16.2926 19.9279
Au 8.35937 18.6094 20.8137
Au 10.0284 20.7098 21.3634
Au 11.769 22.8329 22.3139
Au 13.7418 25.1524 22.989
Au 15.4403 27.2692 23.9364
Au 17.0969 29.2113 24.7776
Au 18.8312 31.3852 25.5038
Au 20.431 33.4785 26.4491
Au 22.3243 35.9225 27.145
Au 24.1294 37.8072 27.6826
Au 3.72863 8.64123 16.8104
Au 5.28235 10.4388 17.7337
Au 7.22418 12.6424 18.4197
Au 9.05069 14.8252 18.9411
Au 10.6994 17.0422 19.75
Au 12.2602 19.2651 20.7235
Au 14.256 21.4991 21.1484
Au 15.8842 23.5458 22.0587
Au 17.5679 25.6763 23.0113
Au 19.406 27.8055 23.9416
Au 21.2769 29.7797 24.5629
Au 22.8803 31.9664 25.517
Au 24.6344 34.2494 25.9597
Au 26.3235 36.2513 26.8445
Au 27.8827 38.3531 27.3018
Au 6.16942 7.08474 15.7139
Au 7.70953 9.0904 16.8364
Au 9.52493 11.3355 17.5861
Au 11.387 13.4438 18.1
Au 12.9169 15.5089 18.8859
Au 14.4916 17.8119 19.6928
Au 16.4036 19.879 20.6118
Au 18.1042 22.0781 21.1871
Au 19.8288 24.08 22.0772
Au 21.6041 26.2441 22.8641
Au 23.4422 28.2745 23.7393
Au 25.1695 30.5968 24.4386
Au 26.9908 32.6511 25.1752
Au 28.6959 34.7493 25.8346
Au 30.1907 36.7807 26.7704
Au 8.11706 5.46121 15.109
Au 9.80013 7.43981 15.7662
Au 11.5812 9.42338 16.4241
Au 13.3622 11.5414 17.1547
Au 15.0863 13.8371 18.1693
Au 16.8771 16.1459 18.9305
Au 18.6509 18.289 19.723
Au 20.4988 20.5577 20.44
Au 22.2259 22.6111 21.3029
Au 23.805 24.6547 21.9383
Au 25.7383 26.7805 22.6533
Au 27.4597 28.9567 23.5155
Au 29.0741 31.0283 24.2308
Au 30.9905 33.3946 24.89
Au 32.3227 35.4855 25.482
Au 10.1288 3.96173 14.0665
Au 11.9086 5.81667 14.7882
Au 13.8275 7.6859 15.5421
Au 15.6782 10.0955 16.3179
Au 17.3438 12.4425 17.0424
Au 19.205 14.5049 17.8686
Au 21.2616 16.9447 18.6767
Au 22.9234 18.8858 19.7489
Au 24.5872 21.1602 20.1979
Au 26.3502 23.2511 21.0171
Au 28.0551 25.3143 21.7368
Au 29.5253 27.6658 22.5056
Au 31.3847 29.649 23.3599
Au 33.074 31.811 24.1535
Au 34.6446 34.0288 24.7545
Au 12.2983 2.69587 13.429
Au 14.1862 4.49215 14.0358
Au 16.1202 6.53284 14.703
Au 17.8072 8.65382 15.3739
Au 19.7533 10.8503 16.2363
Au 21.6204 13.058 16.9239
Au 23.2201 15.224 17.7301
Au 24.9615 17.4166 18.6411
Au 26.6741 19.3813 19.3378
Au 28.3561 21.5604 20.1574
Au 30.2391 23.924 20.8658
Au 31.9026 25.9337 21.8818
Au 33.4698 28.1926 22.5367
Au 35.2287 30.342 23.2135
Au 36.6869 32.3544 23.9915
Au 16.5072 3.20763 12.9585
Au 18.4979 5.03873 13.7955
Au 20.3207 7.31892 14.5303
Au 21.934 9.39923 15.2466
Au 23.8521 11.4919 16.0983
Au 25.6485 13.5867 16.7648
Au 27.363 15.8612 17.5784
Au 29.1063 17.8619 18.3512
Au 30.8523 20.157 19.1005
Au 32.3233 22.2708 20.0919
Au 34.0406 24.6295 20.7936
Au 35.862 26.5546 21.4253
Au 37.548 28.8692 22.3659
Au 20.7233 3.67768 12.8445
Au 22.7051 5.63645 13.7693
Au 24.3364 7.96241 14.4163
Au 26.1314 10.107 15.3037
Au 27.9819 12.1704 15.9409
Au 29.7027 14.3754 16.7482
Au 31.3527 16.5287 17.4712
Au 32.8552 18.4768 18.1865
Au 34.7542 20.7677 19.0734
Au 36.462 22.9757 19.7872
Au 38.0396 25.0014 20.6463
Au 24.8238 3.99857 12.8215
Au 26.5613 6.36828 13.4084
Au 28.147 8.51994 14.48
Au 30.0286 10.4097 15.0341
Au 31.7877 12.6292 15.7966
Au 33.5294 14.6818 16.5955
Au 35.091 16.9145 17.379
Au 36.9585 19.2985 18.1121
Au 38.6472 21.4533 18.8977
Au 28.6441 4.94518 12.7375
Au 30.2933 6.97602 13.4865
Au 32.1556 9.09371 14.1293
Au 34.0643 11.1089 14.8029
Au 35.8414 13.3008 15.7007
Au 37.2848 15.461 16.4712
Au 38.9848 17.8522 17.4604
Au 32.6064 5.59993 12.5336
Au 34.4337 7.79668 13.3043
Au 36.1454 9.78383 13.8829
Au 37.7649 11.8462 14.7523
Au 39.2981 13.8555 15.7101
Au 1.56197 25.7915 22.5708
Au 2.84675 28.1059 23.1394
Au 4.48295 30.0352 24.1666
Au 6.27233 32.1579 25.1238
Au 8.04782 34.1396 25.8634
Au 9.8401 35.9464 26.7104
Au 1.71107 22.263 20.5048
Au 3.20488 24.075 21.4897
Au 4.95462 26.458 22.3999
Au 6.60278 28.5617 23.3377
Au 8.42479 30.6965 23.951
Au 10.1863 32.7696 24.6165
Au 12.1368 34.8645 25.6326
Au 13.9526 37.069 26.483
Au 2.22997 18.673 19.0666
Au 3.84838 20.6133 19.8753
Au 5.64392 22.688 20.754
Au 7.42218 24.875 21.595
Au 9.03936 27.1483 22.2493
Au 10.738 29.1948 22.9238
Au 12.5797 31.2902 23.639
Au 14.4709 33.3761 24.6708
Au 16.0665 35.4615 25.6113
Au 17.8098 37.5811 26.4698
Au 2.80391 14.466 17.5046
Au 4.37071 16.8435 18.0868
Au 6.16689 18.9708 18.9957
Au 7.96632 21.113 19.7054
Au 9.75606 23.4201 20.5373
Au 11.4183 25.7074 21.2252
Au 13.3145 27.8633 22.2517
Au 15.0204 29.8789 22.8784
Au 16.6997 31.9712 23.6294
Au 18.3668 34.0537 24.4814
Au 20.1107 36.2261 25.4778
Au 21.8799 38.391 26.0054
Au 3.37166 11.1925 15.8382
Au 5.12016 13.1 16.5834
Au 6.79272 15.2268 17.3223
Au 8.38776 17.3862 18.0241
Au 10.188 19.6544 18.9158
Au 11.9543 22.0217 19.7762
Au 13.6921 24.1168 20.2747
Au 15.5015 26.2855 21.0691
Au 17.1772 28.3557 22.05
Au 19.0258 30.4892 22.8588
Au 20.8061 32.5502 23.6875
Au 22.3755 34.6061 24.5614
Au 24.0818 36.6939 25.0846
Au 25.8558 38.6784 25.6805
Au 5.60289 9.54747 14.9254
Au 7.32899 11.507 15.6816
Au 9.1482 13.7694 16.3988
Au 10.8446 15.989 16.9898
Au 12.2893 18.0785 17.8847
Au 14.1315 20.3686 18.8026
Au 15.8948 22.5349 19.464
Au 17.7343 24.6223 20.2997
Au 19.4695 26.812 21.0408
Au 21.1953 28.8643 21.8846
Au 23.0034 30.9614 22.7444
Au 24.6524 33.1038 23.4785
Au 26.6175 35.4707 24.2058
Au 28.2589 37.4221 24.7887
Au 7.55202 7.91265 13.7973
Au 9.28257 9.94768 14.6146
Au 11.2361 11.922 15.4727
Au 13.0284 14.4293 16.0963
Au 14.7363 16.696 16.9647
Au 16.3801 18.6519 17.9452
Au 18.1471 21.0859 18.5098
Au 19.9004 23.2234 19.4045
Au 21.6994 25.1994 20.2154
Au 23.3764 27.2768 20.9754
Au 25.1988 29.4969 21.5165
Au 26.9056 31.7147 22.5499
Au 28.7535 33.8894 23.1634
Au 30.4177 35.9927 23.6824
Au 9.69776 6.48628 12.921
Au 11.5916 8.46932 13.6274
Au 13.5769 10.5863 14.4551
Au 15.2909 12.8435 15.4151
Au 16.9122 15.0326 16.2003
Au 18.9249 17.1769 17.2549
Au 20.605 19.4807 17.9254
Au 22.2543 21.6725 18.5824
Au 23.8825 23.7616 19.2547
Au 25.8212 25.9524 20.0216
Au 27.3716 27.9239 20.8419
Au 29.0295 30.2029 21.5938
Au 30.8695 32.541 22.0983
Au 32.4986 34.5549 22.945
Au 11.7979 4.93294 12.0018
Au 13.6092 6.76546 12.7631
Au 15.5746 8.99956 13.5844
Au 17.3621 11.2999 14.4773
Au 19.2488 13.5529 15.2118
Au 21.1379 15.7396 16.0142
Au 22.9947 18.0248 16.784
Au 24.5401 20.077 17.6607
Au 26.3948 22.0706 18.2064
Au 28.0192 24.3002 19.0035
Au 29.8102 26.7516 19.8177
Au 31.3694 28.7365 20.5739
Au 33.1131 30.9405 21.4247
Au 34.6946 33.0009 22.0939
Au 14.1118 3.70853 11.5362
Au 16.0806 5.65319 11.9613
Au 17.9951 7.50346 12.8928
Au 19.6697 9.83488 13.5311
Au 21.6898 12.1248 14.387
Au 23.4795 14.1861 15.0568
Au 25.1236 16.4216 15.8486
Au 26.8101 18.5253 16.6319
Au 28.5725 20.5582 17.5478
Au 30.2731 22.9231 18.3306
Au 32.0079 25.0795 19.1061
Au 33.5944 27.2331 19.7704
Au 35.2445 29.229 20.4939
Au 36.9761 31.3727 21.5941
Au 18.3171 4.23388 11.337
Au 20.3275 6.10581 11.9236
Au 22.078 8.33295 12.5971
Au 23.901 10.4974 13.4785
Au 25.6645 12.5324 14.0082
Au 27.5392 15.002 14.8077
Au 29.0968 17.1052 15.7503
Au 31.0406 19.3735 16.291
Au 32.5857 21.2332 17.2045
Au 34.234 23.2605 18.1611
Au 36.0285 25.5632 18.9314
Au 37.6848 27.6717 19.5509
Au 22.6578 4.86151 10.8484
Au 24.1853 6.89445 11.6008
Au 26.198 9.0426 12.5497
Au 28.009 11.1098 13.2303
Au 29.7005 13.2293 14.0178
Au 31.3143 15.4749 14.7573
Au 33.1398 17.5628 15.355
Au 34.7229 19.6173 16.3683
Au 36.4616 21.8148 17.2253
Au 38.221 24.1247 17.9068
Au 26.2567 5.31391 10.9145
Au 28.3153 7.44558 11.6009
Au 30.179 9.57866 12.1931
Au 31.9254 11.6707 13.1858
Au 33.5919 13.837 13.8569
Au 35.2169 15.9655 14.4813
Au 36.8762 18.127 15.3633
Au 38.8001 20.5811 16.239
Au 30.6198 6.24458 10.7373
Au 32.4734 7.97741 11.5743
Au 34.1575 10.3841 12.0582
Au 35.8755 12.4149 13.0286
Au 37.4812 14.5494 13.671
Au 39.0975 16.5063 14.9639
Au 1.21284 24.8537 19.5825
Au 2.90362 27.0806 20.4789
Au 4.77703 29.1858 21.3456
Au 6.27015 31.2473 22.3011
Au 7.99381 33.2649 23.0326
Au 9.96224 35.3395 23.8777
Au 11.693 37.3292 24.7578
Au 1.68942 21.1548 18.0434
Au 3.40134 23.3192 18.7569
Au 5.1849 25.4112 19.7693
Au 6.88101 27.456 20.3896
Au 8.60561 29.7236 21.1847
Au 10.2366 31.8979 22.1256
Au 12.1285 33.8048 22.7654
Au 13.9696 36.0633 23.868
Au 15.6063 38.1623 24.6011
Au 2.28901 17.1775 16.4126
Au 3.88558 19.5317 17.2583
Au 5.67143 21.6192 18.0034
Au 7.41078 23.7767 18.8145
Au 9.17013 25.9261 19.4286
Au 10.8989 28.199 20.1767
Au 12.569 30.4084 20.9733
Au 14.422 32.4001 21.9025
Au 16.0812 34.5222 22.7631
Au 17.8158 36.7015 23.7485
Au 19.6753 38.7977 24.3334
Au 2.89345 13.6519 14.8255
Au 4.37018 15.7543 15.5238
Au 6.21541 17.8437 16.1929
Au 7.91387 20.0634 17.0266
Au 9.82192 22.349 17.9925
Au 11.5317 24.7397 18.4241
Au 13.1454 26.8601 19.3694
Au 14.8859 28.8075 20.1701
Au 16.7257 30.9799 20.8526
Au 18.5788 33.0441 21.6123
Au 20.1279 35.0375 22.7581
Au 21.854 37.2403 23.446
Au 23.8087 39.1373 24.2064
Au 5.13803 12.1886 14.0172
Au 6.71342 14.3283 14.5784
Au 8.51442 16.3355 15.4314
Au 10.3767 18.6149 16.1431
Au 11.8996 20.7461 17.0298
Au 13.6375 22.8817 17.6403
Au 15.5019 25.0948 18.3635
Au 17.3392 27.275 19.2421
Au 18.922 29.4272 20.1713
Au 20.8273 31.5288 20.8654
Au 22.492 33.7325 21.9081
Au 24.1227 35.988 22.3589
Au 26.0106 37.8583 22.9653
Au 7.24055 10.7015 12.9519
Au 8.96751 12.8394 13.6422
Au 10.9784 14.8586 14.3689
Au 12.7029 17.1174 15.1328
Au 14.182 19.229 16.0557
Au 15.927 21.3304 16.7979
Au 17.6994 23.5107 17.2917
Au 19.6314 25.7377 18.2022
Au 21.1726 27.8491 19.128
Au 22.9097 30.0871 19.7774
Au 24.7133 32.1315 20.8245
Au 26.2969 34.4212 21.4705
Au 28.4462 36.463 21.9585
Au 9.36642 9.35273 11.8814
Au 11.2172 11.2154 12.7069
Au 13.1056 13.1635 13.5644
Au 15.0341 15.4283 14.3101
Au 16.7522 17.7386 15.2348
Au 18.2756 19.8181 16.0025
Au 20.0156 22.0735 16.6863
Au 21.8898 24.2241 17.4003
Au 23.4545 26.4584 18.2326
Au 25.1058 28.4147 18.9654
Au 27.0356 30.8866 19.8283
Au 28.6284 33.0809 20.5815
Au 30.5857 34.9967 21.1041
Au 11.591 7.59547 10.9207
Au 13.2901 9.65337 11.6996
Au 15.2973 11.8707 12.6221
Au 17.2653 13.951 13.343
Au 18.7917 16.2508 14.2256
Au 20.4881 18.3197 15.2044
Au 22.3842 20.5354 15.9548
Au 24.1298 22.6323 16.427
Au 25.8717 24.6843 17.3904
Au 27.3985 27.003 18.075
Au 29.0111 29.243 18.8829
Au 30.7812 31.4584 19.5504
Au 32.8775 33.5389 20.1669
Au 13.7114 6.02686 10.1849
Au 15.4904 8.21876 10.9772
Au 17.4376 10.2775 12.038
Au 19.4632 12.3837 12.5746
Au 21.0637 14.7584 13.403
Au 22.9277 16.8559 14.0576
Au 24.6515 19.0641 14.7985
Au 26.4494 21.2005 15.5938
Au 28.0185 23.3304 16.4715
Au 29.7746 25.6112 17.1128
Au 31.6388 27.9539 17.8911
Au 33.1742 29.9947 18.8204
Au 35.0772 31.8702 19.4646
Au 16.1687 4.7794 9.43805
Au 18.0408 6.70232 10.2625
Au 19.8255 8.89235 10.9374
Au 21.7705 11.0498 11.6779
Au 23.4627 13.093 12.3445
Au 25.2678 15.2038 13.0129
Au 27.0203 17.4981 13.9356
Au 28.6616 19.6768 14.7328
Au 30.2545 21.7876 15.3754
Au 32.133 23.9226 16.3945
Au 33.7796 26.2677 17.1277
Au 35.4879 28.3735 17.9165
Au 37.13 30.4393 19.0726
Au 20.2448 5.47878 9.11149
Au 22.0632 7.46986 9.83887
Au 23.9121 9.59994 10.7769
Au 25.8042 11.7917 11.3986
Au 27.8212 13.8402 12.1899
Au 29.1844 15.94 12.8966
Au 30.6959 18.0605 13.7262
Au 32.6844 20.5124 14.2787
Au 34.2847 22.4313 15.3108
Au 36.0198 24.6344 16.2955
Au 37.6018 26.8559 17.0333
Au 24.362 5.94769 8.92
Au 26.1457 7.91677 9.86538
Au 27.9232 10.1128 10.4548
Au 29.8819 12.3236 11.3802
Au 31.5458 14.4383 11.8995
Au 33.0959 16.4899 12.7504
Au 35.0295 18.594 13.467
Au 36.4831 20.8388 14.5959
Au 38.0377 23.046 15.296
Au 28.4198 7.01621 9.104
Au 30.4077 8.77764 9.70138
Au 31.9874 10.798 10.565
Au 33.6609 12.9304 11.1941
Au 35.4103 15.0351 11.6678
Au 37.1108 17.1746 12.7685
Au 38.5024 19.3502 13.7795
Au 1.32228 23.7237 17.1198
Au 3.20651 25.8491 17.9012
Au 4.76 28.0299 18.6695
Au 6.48304 30.3148 19.4282
Au 8.04662 32.352 20.5277
Au 9.83323 34.532 21.1789
Au 11.6179 36.4051 22.0274
Au 13.6061 38.4664 22.8329
Au 1.78862 19.6849 15.4691
Au 3.47233 22.1108 16.1506
Au 5.30777 24.2764 16.8542
Au 6.99929 26.6446 17.6743
Au 8.65225 28.7172 18.49
Au 10.153 31.0131 19.3222
Au 12.0835 33.0875 20.1456
Au 13.8837 35.2644 21.1974
Au 15.8031 37.2775 22.0355
Au 17.3467 39.3225 22.4556
Au 2.64023 16.3629 13.5901
Au 3.97515 18.4728 14.5422
Au 5.78214 20.4334 15.471
Au 7.55997 22.8299 16.2225
Au 9.24079 25.0545 16.8351
Au 10.8899 27.2528 17.5597
Au 12.5048 29.4194 18.404
Au 14.3982 31.4543 19.1802
Au 16.106 33.5295 19.9631
Au 17.9267 35.6422 20.9734
Au 19.695 37.7304 21.7068
Au 21.4002 39.6978 22.5705
Au 4.62479 14.7422 12.8052
Au 6.27113 16.8654 13.4556
Au 8.15996 18.9158 14.3523
Au 9.69619 21.2318 15.0174
Au 11.4295 23.355 15.8347
Au 13.3099 25.5984 16.4346
Au 14.992 27.8748 17.4238
Au 16.761 29.9516 18.1803
Au 18.535 32.1182 19.1501
Au 20.2677 34.28 19.7948
Au 21.9417 36.2875 20.714
Au 23.7599 38.6471 21.6008
Au 6.96693 13.4099 12.0573
Au 8.68347 15.5051 12.7887
Au 10.3844 17.4515 13.5709
Au 12.0636 19.7493 14.1322
Au 13.8168 21.845 14.9878
Au 15.4584 24.0412 15.6668
Au 17.3619 26.2128 16.5722
Au 19.0172 28.4859 17.3559
Au 20.6907 30.6184 18.2402
Au 22.5854 32.7673 18.8868
Au 24.2771 34.9533 19.6832
Au 25.9876 37.0496 20.4767
Au 9.08769 11.8139 11.0392
Au 10.8809 13.9084 11.8515
Au 12.7269 15.7797 12.5428
Au 14.382 18.0859 13.4568
Au 16.0081 20.3594 14.0604
Au 17.9109 22.4092 14.888
Au 19.6716 24.7468 15.6598
Au 21.3433 26.9618 16.3643
Au 23.0185 29.1274 17.2342
Au 24.8252 31.2501 18.1201
Au 26.52 33.4242 18.7661
Au 28.1838 35.5145 19.4292
Au 11.3037 10.1699 10.008
Au 13.1437 12.4713 10.7579
Au 14.9934 14.508 11.4477
Au 16.6061 16.6035 12.3666
Au 18.4739 18.7712 13.1887
Au 20.0642 20.8532 13.9013
Au 21.84 23.0549 14.8154
Au 23.6737 25.3551 15.5346
Au 25.2704 27.4353 16.3807
Au 26.9167 29.7 17.0509
Au 28.7016 32.0615 17.6349
Au 30.7233 34.1177 18.5412
Au 13.5824 8.89256 9.07722
Au 15.353 10.7579 10.081
Au 17.1352 13.0913 10.6762
Au 18.9272 15.2163 11.6524
Au 20.6054 17.3184 12.4835
Au 22.4794 19.523 13.1522
Au 24.2253 21.5905 13.7667
Au 25.9397 23.8207 14.5682
Au 27.6466 26.2075 15.4062
Au 29.3168 28.3005 16.1826
Au 30.9933 30.6861 16.9108
Au 32.8562 32.4 17.7304
Au 15.9829 7.29668 8.58596
Au 17.6927 9.47041 9.19507
Au 19.4215 11.6639 9.98025
Au 21.1934 13.848 10.6796
Au 23.0293 15.8331 11.4311
Au 24.8321 18.1309 12.0514
Au 26.5478 20.2205 12.8443
Au 28.2072 22.2708 13.6158
Au 30.1356 24.6507 14.4627
Au 31.6825 26.7428 15.2466
Au 33.4698 29.2016 16.0801
Au 35.1422 31.0794 16.8748
Au 18.1035 5.89084 7.63655
Au 19.7299 7.90184 8.36583
Au 21.5973 10.1361 9.09319
Au 23.4541 12.3562 9.64361
Au 25.1617 14.4046 10.3982
Au 26.9978 16.6774 11.1393
Au 28.644 18.7012 11.8528
Au 30.4293 20.789 12.6153
Au 31.991 22.941 13.5163
Au 33.7311 25.0705 14.4197
Au 35.3827 27.2996 15.1189
Au 36.8841 29.4109 16.0437
Au 22.2908 6.58785 7.19521
Au 23.9415 8.53609 8.23603
Au 25.8445 10.5905 8.66166
Au 27.5695 12.8179 9.38136
Au 29.3885 14.9922 10.1078
Au 31.0571 17.0556 10.9705
Au 32.9334 19.3322 11.6374
Au 34.4761 21.5759 12.4169
Au 36.0743 23.8104 13.7307
Au 37.5855 25.8819 14.4741
Au 26.1264 7.55888 7.20977
Au 28.0741 9.44961 7.87371
Au 29.8805 11.4732 8.73082
Au 31.5431 13.4443 9.29043
Au 33.3095 15.5463 9.9712
Au 34.9853 17.7604 10.8652
Au 36.6901 19.8456 11.6453
Au 38.0013 22.1782 12.6529
Au 1.48719 22.267 14.5968
Au 2.9746 24.7162 15.3155
Au 4.80338 26.8284 15.8447
Au 6.49947 29.273 16.7258
Au 8.30842 31.5687 17.4549
Au 9.93091 33.6861 18.4055
Au 11.5391 35.6635 19.2255
Au 13.2899 37.5784 20.2016
Au 15.1203 39.3843 20.4493
Au 2.13952 18.893 12.692
Au 3.59526 20.9106 13.4628
Au 5.36858 23.3507 14.2375
Au 7.04834 25.5147 14.9977
Au 8.61066 27.7222 15.7634
Au 10.2853 29.8973 16.5738
Au 12.1104 32.1624 17.4956
Au 13.9025 34.0461 18.4406
Au 15.4642 36.1153 19.0874
Au 17.3563 38.0657 19.847
Au 19.1722 40.104 20.4785
Au 4.29282 17.6477 11.6508
Au 5.80758 19.5535 12.5705
Au 7.52724 21.7309 13.4531
Au 9.24053 23.7999 14.2055
Au 11.0721 26.1168 14.9939
Au 12.7452 28.3893 15.7021
Au 14.4705 30.4334 16.5131
Au 16.1907 32.7393 17.3317
Au 17.983 34.8053 18.1463
Au 19.7722 36.9577 19.0092
Au 21.5658 38.8631 19.6763
Au 6.38432 15.8898 10.9739
Au 8.05097 18.0794 11.7298
Au 9.81458 20.19 12.2227
Au 11.6753 22.5515 13.2659
Au 13.3747 24.517 13.8548
Au 15.1657 26.8207 14.8561
Au 16.7858 29.0361 15.6091
Au 18.6409 31.1988 16.5074
Au 20.3786 33.352 17.2524
Au 22.2266 35.4001 17.9575
Au 23.7216 37.567 18.7676
Au 8.72443 14.6423 10.1768
Au 10.5118 16.5892 10.6837
Au 12.0244 18.7104 11.5745
Au 13.8313 20.856 12.357
Au 15.6481 22.9644 12.9673
Au 17.3541 25.1605 13.9928
Au 19.0663 27.4154 14.7088
Au 20.7684 29.5528 15.3846
Au 22.5634 31.7207 16.1801
Au 24.3555 33.7962 16.9447
Au 26.0776 35.8955 17.7645
Au 10.9708 12.9714 9.00046
Au 12.6416 15.1244 9.80631
Au 14.2442 17.3234 10.6336
Au 16.2228 19.3721 11.6021
Au 17.8796 21.4432 12.1943
Au 19.5329 23.57 12.9334
Au 21.3614 25.755 13.729
Au 23.1219 28.041 14.6197
Au 24.8521 30.3006 15.4434
Au 26.5763 32.5465 15.9816
Au 28.4179 34.6317 16.743
Au 13.0443 11.4384 8.17452
Au 14.8242 13.4027 8.73474
Au 16.5879 15.668 9.71749
Au 18.4706 17.7471 10.5418
Au 20.0405 19.9736 11.1552
Au 21.8057 22.1187 12.0494
Au 23.5676 24.2188 12.9472
Au 25.3819 26.5044 13.7828
Au 27.0342 28.713 14.3616
Au 28.7319 30.7874 15.013
Au 30.6729 32.9208 15.8686
Au 15.3987 9.82534 7.33389
Au 17.1024 11.8461 7.93492
Au 19.0098 14.1731 8.9099
Au 20.687 16.3796 9.79975
Au 22.4149 18.6678 10.6497
Au 24.3985 20.7137 11.0707
Au 25.8447 23.0383 11.8386
Au 27.7544 25.1788 12.7744
Au 29.3881 27.2769 13.5196
Au 31.1432 29.4733 14.4024
Au 32.9195 31.611 14.9529
Au 17.673 8.71393 6.52312
Au 19.4641 10.6063 7.28178
Au 21.3406 12.7798 7.88757
Au 23.1182 14.9171 8.5778
Au 24.6333 16.9673 9.39499
Au 26.4817 19.3081 10.0606
Au 28.28 21.396 10.8515
Au 29.9649 23.4864 11.582
Au 31.6848 25.7007 12.3953
Au 33.1968 27.9455 13.3721
Au 35.0272 30.1409 14.0698
Au 19.9252 7.08867 5.62672
Au 21.6654 8.98013 6.48153
Au 23.548 10.9901 7.02236
Au 25.3957 13.2498 7.65853
Au 27.1134 15.3937 8.48212
Au 28.8646 17.5435 9.25753
Au 30.6523 19.7936 9.96723
Au 32.3365 22.0029 10.6154
Au 33.9682 24.0059 11.7397
Au 35.3682 26.4147 12.5116
Au 36.9884 28.3938 13.379
Au 24.0135 8.20941 5.32725
Au 25.852 9.99152 5.94254
Au 27.6427 11.8816 6.90735
Au 29.5177 14.0008 7.43966
Au 31.3307 16.2029 8.13684
Au 32.9676 18.1989 9.08809
Au 34.7255 20.3331 9.74341
Au 36.3322 22.7408 10.6751
Au 37.5227 24.8612 11.7614
Au 1.75685 21.6932 11.616
Au 3.13079 23.6225 12.7198
Au 4.74002 25.9928 13.1647
Au 6.43517 28.1156 13.9962
Au 8.1645 30.2682 14.8114
Au 10.0551 32.412 15.5515
Au 11.8232 34.6201 16.3378
Au 13.4808 36.5527 17.0881
Au 15.1099 38.5918 18.032
Au 16.9661 40.4085 18.57
Au 3.88429 20.283 10.8434
Au 5.41564 22.3722 11.5981
Au 7.11422 24.6521 12.292
Au 8.88072 26.746 13.2567
Au 10.5547 28.8549 13.9994
Au 12.2233 31.0191 14.9128
Au 13.9716 33.1461 15.5844
Au 15.6287 35.1929 16.3753
Au 17.5736 37.3286 17.0755
Au 19.1628 39.7458 17.8535
Au 5.85345 18.5592 9.69511
Au 7.50134 20.7248 10.7464
Au 9.20361 22.9252 11.5625
Au 11.131 25.0896 12.3658
Au 12.9218 27.4348 13.0142
Au 14.6012 29.4504 13.8082
Au 16.4427 31.6691 14.6088
Au 18.3269 33.9046 15.3101
Au 19.9213 36.0485 16.3022
Au 21.566 38.1312 16.9756
Au 8.24803 17.0862 9.17563
Au 9.81955 19.2744 9.64912
Au 11.6071 21.4501 10.5793
Au 13.3599 23.5712 11.1676
Au 15.3239 25.7551 12.0501
Au 16.8745 27.7549 12.8842
Au 18.6459 30.0094 13.7881
Au 20.3991 32.2998 14.4583
Au 22.3471 34.4804 15.2623
Au 24.0059 36.388 16.0947
Au 10.3083 15.7256 7.95603
Au 12.2003 17.6181 8.79566
Au 13.9265 19.8462 9.60053
Au 15.643 22.0769 10.312
Au 17.3997 24.1949 11.2344
Au 19.1984 26.2941 11.9833
Au 20.9834 28.5426 12.8674
Au 22.7741 30.7613 13.6376
Au 24.4105 32.9325 14.2287
Au 26.2363 35.1123 15.194
Au 12.7005 13.9858 7.1497
Au 14.5075 16.1568 7.82748
Au 16.1121 18.3075 8.77903
Au 17.9269 20.3187 9.46957
Au 19.736 22.5143 10.2494
Au 21.3599 24.8047 11.0257
Au 23.1217 26.9568 11.8697
Au 24.9206 29.1374 12.6396
Au 26.6216 31.4988 13.335
Au 28.6318 33.4886 14.1381
Au 14.9743 12.655 6.18268
Au 16.9133 14.6607 6.90613
Au 18.4489 16.8663 7.98585
Au 20.2979 18.8979 8.55729
Au 22.1306 21.0105 9.38364
Au 23.66 23.2107 10.1751
Au 25.2044 25.5161 11.0606
Au 27.1027 27.7279 11.6873
Au 28.8521 29.9321 12.302
Au 30.4484 31.9009 13.273
Au 17.1603 10.9229 5.29257
Au 18.8928 13.0467 6.33038
Au 20.6872 15.3222 7.08629
Au 22.5137 17.4291 7.61041
Au 24.3785 19.5642 8.43791
Au 26.0508 21.8829 9.18167
Au 27.7156 24.0861 10.152
Au 29.5281 26.3087 10.7713
Au 31.2829 28.5861 11.5229
Au 32.8607 30.4271 12.1865
Au 19.4737 9.70852 4.70181
Au 21.4281 11.6449 5.3023
Au 23.0882 13.799 6.05388
Au 24.9028 16.0846 6.57658
Au 26.669 18.1098 7.54334
Au 28.3785 20.4041 8.23262
Au 30.0809 22.5718 8.83723
Au 31.8539 24.5724 9.74483
Au 33.62 26.78 10.5541
Au 35.1862 28.9946 11.4589
Au 21.5775 8.59381 3.89878
Au 23.5673 10.3387 4.15386
Au 25.2776 12.4521 5.11419
Au 27.1938 14.5481 5.90553
Au 28.9094 16.5437 6.66983
Au 30.6943 18.6742 7.28077
Au 32.4253 20.8762 8.1661
Au 34.1714 23.0383 8.80596
Au 35.6668 25.305 9.75599
Au 37.1794 27.3825 10.8448
Au 3.37183 22.7769 9.96213
Au 4.8301 24.9554 10.6625
Au 6.57838 27.0358 11.4126
Au 8.30346 29.2327 12.2216
Au 10.0365 31.4923 12.9978
Au 11.8814 33.4665 13.7328
Au 13.6529 35.561 14.3605
Au 15.4167 37.7916 15.1823
Au 16.9796 39.7208 15.9994
Au 5.67392 21.2729 8.96748
Au 7.29119 23.5216 9.69689
Au 8.9578 25.8812 10.5077
Au 10.5541 27.9119 11.3286
Au 12.4413 29.9675 11.9556
Au 14.1973 32.001 13.0691
Au 15.8097 34.2989 13.5926
Au 17.6418 36.5103 14.3978
Au 19.3395 38.4364 15.3367
Au 7.6523 19.6604 8.06309
Au 9.45678 21.8058 8.64686
Au 11.1206 23.9922 9.70312
Au 12.8429 26.0844 10.2265
Au 14.7233 28.4912 11.0623
Au 16.4041 30.57 11.9747
Au 18.2814 32.6993 12.7999
Au 20.1749 34.873 13.6213
Au 21.8873 37.0132 14.2654
Au 9.88733 18.3227 7.14844
Au 11.8424 20.2232 7.84381
Au 13.4185 22.4534 8.63408
Au 15.1544 24.6915 9.27579
Au 17.1022 26.8118 10.1674
Au 18.6298 28.9886 11.0804
Au 20.5624 30.9926 11.9747
Au 22.2661 33.3893 12.5058
Au 24.0741 35.5079 13.2622
Au 12.1887 16.5911 6.31368
Au 13.9589 18.8609 6.8253
Au 15.6439 20.9875 7.59711
Au 17.4861 23.0724 8.46294
Au 19.2055 25.2266 9.33927
Au 20.929 27.5552 10.1321
Au 22.8304 29.6027 10.6773
Au 24.5688 31.8836 11.6677
Au 26.2656 34.0548 12.6073
Au 14.6385 15.1906 5.2125
Au 16.1161 17.288 5.88052
Au 17.8534 19.3277 6.90335
Au 19.799 21.5311 7.49252
Au 21.3683 23.8327 8.49444
Au 23.1505 25.9561 9.04634
Au 25.0056 28.2225 9.8608
Au 26.6267 30.3779 10.7225
Au 28.2584 32.6971 11.4657
Au 16.8716 13.7566 4.36011
Au 18.6171 15.8765 5.09775
Au 20.2993 17.9929 5.93828
Au 21.9698 20.0475 6.73126
Au 23.8945 22.2689 7.41542
Au 25.6558 24.3508 8.22196
Au 27.1862 26.6 8.97094
Au 29.115 28.939 9.75969
Au 30.6984 31.2544 10.5795
Au 19.0724 12.304 3.62146
Au 20.7903 14.2214 4.39217
Au 22.6653 16.4171 4.93158
Au 24.3794 18.5743 5.68295
Au 26.241 20.8956 6.60689
Au 27.8478 23.1164 7.30943
Au 29.5972 25.1384 8.21189
Au 31.1858 27.458 9.02597
Au 32.9723 29.6913 9.64231
Au 21.2036 10.9698 2.6432
Au 23.1383 13.0825 3.30416
Au 24.9116 15.1945 3.98728
Au 26.7761 17.3155 4.93255
Au 28.3814 19.4758 5.60097
Au 30.1305 21.3857 6.38717
Au 31.9595 23.6311 7.21911
Au 33.6869 25.7465 7.86809
Au 35.1947 28.1375 8.89787
Au 5.20813 23.7101 8.00517
Au 6.82711 26.0286 8.72595
Au 8.26232 28.3626 9.37752
Au 10.218 30.3666 10.3044
Au 11.8254 32.6269 11.1167
Au 13.6979 34.5644 11.7603
Au 15.5916 36.7792 12.5692
Au 17.4246 38.9551 13.3888
Au 7.3756 22.3217 7.0408
Au 9.10203 24.5458 7.77463
Au 10.5339 26.7101 8.6526
Au 12.5609 28.679 9.38897
Au 14.2319 31.0445 10.1443
Au 16.0326 33.1 11.008
Au 17.9714 35.455 11.872
Au 19.6413 37.4172 12.6595
Au 9.67826 21.0111 6.06542
Au 11.2698 22.9949 6.77676
Au 12.9112 25.1114 7.6143
Au 14.9676 27.2361 8.4933
Au 16.5477 29.524 9.28833
Au 18.3543 31.6483 10.1272
Au 19.9862 33.8736 10.8877
Au 21.664 35.934 11.5547
Au 11.8953 19.2995 5.05587
Au 13.5398 21.3514 5.80432
Au 15.2692 23.5965 6.71677
Au 17.0679 25.6852 7.40527
Au 18.9206 28.0573 8.29538
Au 20.5229 30.2041 9.10622
Au 22.2506 32.3204 9.92405
Au 24.251 34.318 10.7066
Au 13.9445 17.9014 4.23851
Au 15.8206 19.9223 4.8399
Au 17.5513 22.0763 5.75954
Au 19.0703 24.3517 6.44587
Au 20.9495 26.3527 7.47464
Au 22.6425 28.6213 8.12677
Au 24.4541 31.0424 8.93962
Au 26.3806 33.0187 9.47174
Au 16.3689 16.3621 3.36354
Au 17.9426 18.3917 3.9099
Au 19.7633 20.5482 4.98045
Au 21.4698 22.7628 5.96459
Au 23.2244 24.8223 6.60426
Au 24.9816 27.2148 7.2656
Au 26.6549 29.4845 8.07478
Au 28.569 31.5195 8.79127
Au 18.6947 14.9394 2.47874
Au 20.4054 16.9402 3.23241
Au 22.0575 19.3081 4.0102
Au 23.9147 21.3223 4.78701
Au 25.7835 23.4425 5.47698
Au 27.4245 25.646 6.2645
Au 28.9753 27.8528 7.23879
Au 30.881 30.0208 8.024
Au 21.0231 13.5909 1.85321
Au 22.7512 15.6752 2.28348
Au 24.3939 17.9105 3.15722
Au 26.2365 20.0805 4.02047
Au 28.085 22.0701 4.50074
Au 29.7082 24.1183 5.46242
Au 31.3333 26.3965 6.43266
Au 33.0287 28.2612 7.04476
Au 6.86268 24.9756 6.1281
Au 8.51558 27.1451 6.83757
Au 10.2471 29.1736 7.53903
Au 12.0683 31.3607 8.53253
Au 13.7888 33.6745 9.106
Au 15.5241 35.7292 9.92886
Au 17.4512 37.8319 10.7838
Au 9.0392 23.3756 5.16139
Au 10.9263 25.6173 5.74435
Au 12.5253 28.0061 6.7988
Au 14.4475 29.9282 7.51674
Au 16.0944 32.0405 8.20703
Au 17.7599 34.2326 9.19478
Au 19.4601 36.3776 9.878
Au 11.3433 22.0171 4.24127
Au 13.0903 24.2888 4.94216
Au 14.7273 26.222 5.85378
Au 16.5858 28.3877 6.57577
Au 18.3403 30.6017 7.24088
Au 20.1241 32.7173 8.13723
Au 21.7389 34.9917 9.08268
Au 13.5048 20.5628 3.11045
Au 15.2905 22.6675 4.02077
Au 16.9573 24.8037 4.56664
Au 18.8818 27.2018 5.57131
Au 20.5425 29.1774 6.2398
Au 22.3553 31.3951 7.28825
Au 23.8288 33.6735 8.03309
Au 15.7451 18.992 2.25912
Au 17.781 21.1735 3.19343
Au 19.4074 23.4898 4.02435
Au 21.0828 25.7558 4.61755
Au 22.9782 27.7212 5.49845
Au 24.5445 29.8547 6.23026
Au 26.2938 32.033 6.94483
Au 18.3768 17.4815 1.33408
Au 19.8997 19.5982 2.30307
Au 21.5937 21.9136 3.37399
Au 23.2942 23.9493 3.96625
Au 25.2549 26.1274 4.79643
Au 26.8834 28.3677 5.45851
Au 28.6625 30.5595 6.22453
Au 20.6389 16.3416 0.496975
Au 22.1104 18.1633 1.34963
Au 23.8384 20.1973 2.35679
Au 25.5925 22.4859 2.88905
Au 27.4171 24.6769 3.69443
Au 29.2055 26.8126 4.61504
Au 30.8666 28.9633 5.50196
Au 8.68145 26.1109 4.37005
Au 10.4172 28.2743 4.89424
Au 12.2152 30.4327 5.72802
Au 13.7809 32.401 6.65973
Au 15.7418 34.6449 7.41295
Au 17.4401 36.5783 8.11033
Au 10.7881 24.5871 3.29114
Au 12.6048 26.9548 4.10526
Au 14.5235 28.9573 4.98703
Au 16.131 31.0268 5.64804
Au 18.0857 33.0356 6.61067
Au 19.7515 35.3937 7.2531
Au 13.0868 23.2008 2.6356
Au 14.8502 25.3689 2.95852
Au 16.8423 27.4691 3.76062
Au 18.2125 29.6045 4.36728
Au 20.0859 31.7596 5.39133
Au 21.7095 33.8596 6.13913
Au 15.4447 21.7676 1.59924
Au 17.1398 23.6619 2.1511
Au 19.1004 26.0989 2.9204
Au 20.5518 28.3761 3.67822
Au 22.3112 30.3713 4.56371
Au 24.1727 32.3915 5.46291
Au 17.885 20.2342 0.727001
Au 19.5499 22.3432 1.46011
Au 20.9802 24.5599 2.04222
Au 23.008 26.5555 2.98284
Au 24.8822 28.6427 3.59464
Au 26.4231 30.9947 4.40885
Au 20.1259 18.8902 -0.264849
Au 21.6102 20.9164 0.671422
Au 23.203 23.0775 1.50114
Au 25.0826 25.0439 2.29978
Au 27.1178 27.3368 3.0404
Au 28.6128 29.4221 3.9233
Au 1.72695 24.0488 26.1446
Au 3.21894 26.1678 27.0318
Au 4.95541 28.2179 27.9111
Au 6.8033 30.3508 28.6577
Au 8.62289 32.3432 29.6156
Au 10.5809 34.9059 29.8611
Au 2.10218 20.1571 24.306
Au 3.73968 22.3941 25.2967
Au 5.33376 24.5137 26.2156
Au 7.3148 26.791 26.9144
Au 9.10009 28.9338 27.6732
Au 10.9371 30.8549 28.6324
Au 12.5184 33.0979 29.0085
Au 14.0569 35.2765 29.9771
Au 2.31305 16.6902 22.829
Au 4.24271 18.784 23.3959
Au 5.83183 21.0681 24.3164
Au 7.85334 23.1949 25.0403
Au 9.42442 25.4317 26.0201
Au 11.3146 27.5147 26.709
Au 13.0004 29.5616 27.561
Au 14.975 31.5562 28.3221
Au 16.5555 33.9778 29.149
Au 18.5045 35.9896 30.2653
Au 3.21927 12.9612 21.0441
Au 4.5376 15.173 21.8453
Au 6.51054 17.2326 22.4603
Au 8.19731 19.581 23.4902
Au 10.0447 21.6021 24.2307
Au 11.6759 23.8499 24.9571
Au 13.4146 26.0669 25.7798
Au 15.2314 28.055 26.6391
Au 17.085 30.2055 27.5211
Au 18.8096 32.1819 28.262
Au 20.4515 34.5232 29.1203
Au 22.352 36.4569 29.7924
Au 3.89837 9.29341 19.5794
Au 5.34571 11.5258 20.4217
Au 7.02847 13.8546 21.0073
Au 8.83695 15.8018 21.8343
Au 10.417 17.9876 22.4678
Au 12.3771 20.2247 23.2722
Au 14.0278 22.4734 23.9709
Au 15.662 24.5276 24.9239
Au 17.512 26.6609 25.6287
Au 19.3955 28.8513 26.6564
Au 21.1321 30.8677 27.4249
Au 22.767 33.0416 28.1552
Au 24.5813 35.1103 28.7812
Au 26.2132 36.8936 29.3547
Au 5.88792 7.77068 18.4761
Au 7.59331 10.0324 19.4768
Au 9.36602 12.2265 20.2214
Au 11.1599 14.3922 20.8552
Au 12.7326 16.5773 21.6039
Au 14.6452 18.7662 22.4873
Au 16.208 20.9662 23.1966
Au 18.0473 23.0363 23.9439
Au 19.8338 24.9309 24.8144
Au 21.5638 27.0488 25.599
Au 23.4532 29.5541 26.5328
Au 25.126 31.8064 27.1085
Au 27.0805 33.5529 28.0048
Au 28.5989 35.6568 28.598
Au 8.07825 6.35837 17.7333
Au 9.83783 8.62843 18.4368
Au 11.7024 10.466 19.1991
Au 13.3161 12.8561 19.9582
Au 14.8463 15.0743 20.9836
Au 16.7517 17.2758 21.4318
Au 18.4611 19.249 22.4949
Au 20.2658 21.4436 23.0621
Au 21.9122 23.5855 23.8262
Au 23.7963 25.5862 24.6542
Au 25.5981 27.8724 25.6677
Au 27.5441 30.1566 26.2499
Au 29.3399 32.2259 26.8712
Au 30.9066 34.2173 27.6111
Au 10.0969 4.72467 16.9058