201
 Atoms. Timestep: 50000
Au 14.8196 20.8518 18.4353
Au 18.4629 15.6196 25.6554
Au 18.4626 25.252 25.9524
Au 14.5143 21.297 25.1261
Au 11.9298 19.4284 21.84
Au 19.0463 25.9695 23.1598
Au 14.8221 23.8405 23.8619
Au 17.6955 20.4514 18.1381
Au 20.713 15.0057 24.7858
Au 15.9761 17.917 18.3431
Au 16.6709 24.3084 15.1956
Au 20.8801 18.3182 22.2718
Au 15.6781 16.6728 21.7463
Au 12.626 21.7449 23.2852
Au 15.201 18.9397 26.0331
Au 16.6232 15.3498 19.3199
Au 12.8754 20.8984 16.7908
Au 18.5592 12.0398 16.5892
Au 20.9767 21.301 21.3478
Au 23.0646 25.0455 25.1705
Au 29.2001 23.0473 22.3965
Au 21.8613 26.2591 22.8728
Au 16.2895 13.6672 16.8558
Au 19.0656 18.2563 12.7684
Au 17.6877 12.764 18.9534
Au 20.5384 21.6519 14.4377
Au 23.1671 27.7384 24.9978
Au 25.5378 26.7086 24.1492
Au 25.7603 15.2402 22.9536
Au 23.9774 17.564 22.7096
Au 27.101 18.5852 17.9185
Au 24.4069 28.069 19.5573
Au 26.677 16.0405 18.8121
Au 28.2123 18.7279 20.4504
Au 22.9479 18.7792 20.313
Au 27.1649 24.8641 22.9982
Au 27.9109 24.8905 20.2372
Au 15.0252 21.9857 15.69
Au 19.3768 18.404 24.7213
Au 11.4956 22.3125 20.9507
Au 14.6203 26.1424 22.2282
Au 14.3384 16.7051 24.4511
Au 16.7163 13.8526 21.3976
Au 15.9863 22.905 19.9175
Au 20.0562 21.2292 23.9049
Au 12.0926 20.2579 19.299
Au 15.1887 25.4384 19.5268
Au 12.7311 16.9039 22.1108
Au 14.0373 18.4641 20.2513
Au 21.2998 19.8592 12.3087
Au 18.2842 18.6676 15.2636
Au 21.8949 27.539 18.4871
Au 19.9244 26.6407 20.4832
Au 14.5247 15.9255 17.2237
Au 22.7384 12.541 17.9168
Au 14.7766 17.2024 14.9778
Au 24.4186 22.195 17.5377
Au 25.7776 24.2932 16.3941
Au 28.6908 22.2161 20.0971
Au 23.4962 24.9881 17.9309
Au 25.8543 16.8434 16.4021
Au 24.2112 14.8531 15.8424
Au 23.9591 21.4464 20.9917
Au 24.3326 19.6528 25.2059
Au 17.9733 24.8491 19.3664
Au 26.7688 21.0643 16.8911
Au 25.0723 23.8932 19.899
Au 27.3317 16.3022 21.192
Au 24.611 12.2235 20.0129
Au 16.0036 21.6559 22.6927
Au 16.5991 19.4609 20.4878
Au 13.2468 22.8485 18.8432
Au 12.7822 19.0423 24.3842
Au 18.4595 23.4329 13.467
Au 27.359 23.3935 18.2821
Au 14.8819 19.286 22.9517
Au 17.8559 23.3584 23.9917
Au 21.6604 28.7131 20.9819
Au 20.0359 23.9721 21.5499
Au 16.829 17.6589 24.258
Au 11.6674 17.7645 19.5929
Au 19.1457 27.026 17.577
Au 16.9757 22.9185 17.5506
Au 24.5822 22.2189 23.9931
Au 24.5862 16.512 13.7252
Au 23.6858 19.1948 13.5392
Au 23.0406 26.1587 20.4097
Au 23.6244 24.3506 14.9402
Au 19.8319 19.4534 19.6626
Au 19.5694 15.5544 13.1614
Au 21.1387 18.9581 14.9105
Au 25.1842 22.1535 14.6986
Au 20.1281 20.8308 17.0574
Au 25.56 18.422 20.3933
Au 13.5165 18.322 17.3611
Au 21.0102 24.2418 14.1184
Au 24.1049 27.178 16.8018
Au 18.4014 21.882 21.5909
Au 16.8128 25.9771 17.2382
Au 25.5014 19.4298 15.3311
Au 18.7092 20.9155 12.6519
Au 21.6518 26.0606 16.0934
Au 21.948 23.1281 16.5212
Au 21.7294 17.2201 12.9235
Au 17.1148 16.4116 13.822
Au 24.3892 19.421 17.9678
Au 24.2439 24.8663 22.5603
Au 19.095 26.0555 14.972
Au 26.3932 20.8802 19.5328
Au 22.7865 22.2252 13.3441
Au 15.9467 19.4224 16.1188
Au 16.423 19.2043 13.4507
Au 22.2119 23.4697 19.7618
Au 20.5252 22.7669 11.8632
Au 16.0929 21.909 13.3091
Au 24.0818 28.0825 22.1913
Au 26.2041 26.0131 18.3911
Au 13.9783 19.7592 14.5068
Au 25.8962 26.4008 21.0668
Au 14.7787 24.1808 17.172
Au 18.3754 19.1986 22.3245
Au 17.793 21.38 15.2109
Au 20.9236 28.6057 23.4329
Au 13.8669 21.2325 21.0929
Au 19.0325 22.288 26.4001
Au 16.4052 25.989 24.4691
Au 20.3957 23.9631 24.5476
Au 22.5108 22.3207 25.7246
Au 23.8135 23.724 27.4181
Au 14.1776 14.5655 21.9015
Au 22.9745 20.7163 15.7853
Au 25.0576 17.0268 25.2628
Au 20.8024 16.731 19.7671
Au 27.396 22.2232 24.2991
Au 21.6675 18.4955 17.7326
Au 21.3043 21.6427 28.2291
Au 21.4758 19.8892 25.9059
Au 14.7742 13.5859 19.2207
Au 22.7338 20.1353 23.2489
Au 19.4681 29.0687 19.3978
Au 28.2034 20.4438 22.2527
Au 15.9415 16.0321 26.2607
Au 16.9775 16.3479 16.3352
Au 25.7077 18.8477 27.2993
Au 18.7542 17.7002 17.7801
Au 24.1313 16.8519 18.4482
Au 22.0556 11.7744 20.3999
Au 20.2464 16.5036 15.4933
Au 20.866 13.2884 15.9725
Au 25.6684 20.0894 22.6319
Au 26.934 19.5441 24.9849
Au 16.8994 24.7334 21.8272
Au 19.1604 19.8196 27.3098
Au 21.9304 15.7379 22.3553
Au 22.1939 17.4995 24.7639
Au 17.2826 27.4941 19.6236
Au 18.6132 13.4625 23.1876
Au 19.2351 23.8737 16.4344
Au 18.0923 17.2185 20.3607
Au 24.7462 26.2809 26.6998
Au 22.3151 26.5048 27.423
Au 16.2113 14.7298 23.9442
Au 20.4109 17.1527 26.9444
Au 26.5698 22.8147 21.5636
Au 17.4015 20.3918 24.8171
Au 21.1432 24.239 27.2224
Au 26.9096 17.7636 23.0139
Au 21.1973 13.221 22.6555
Au 19.0352 14.8459 17.7415
Au 18.4899 14.2766 15.1433
Au 24.3406 15.5834 20.8181
Au 13.8831 23.7833 21.3771
Au 13.4848 15.9179 19.6999
Au 23.191 17.4149 15.79
Au 19.406 14.4494 20.7892
Au 18.3755 27.9653 24.5612
Au 16.9171 27.4156 22.3348
Au 18.9634 16.1478 22.9603
Au 16.483 20.6069 27.3425
Au 25.7785 24.2066 25.2622
Au 17.5749 18.0212 26.9618
Au 22.3424 23.0595 22.8509
Au 21.6345 19.2039 28.5803
Au 20.6186 25.0516 18.3262
Au 20.732 26.7056 25.2856
Au 23.6632 20.8033 27.8484
Au 16.3875 23.041 25.9649
Au 22.2246 20.9145 18.8262
Au 22.2296 14.25 20.007
Au 20.329 12.437 18.7944
Au 23.9489 13.2752 22.481
Au 21.9103 15.5347 17.4732
Au 25.6509 21.6385 26.4087
Au 19.7175 22.6072 19.1576
Au 18.9113 29.0458 21.8608
Au 19.2804 11.7628 21.1708
Au 22.1919 15.0741 14.4452
Au 23.3782 17.5916 27.1157
Au 26.5458 13.8009 20.7745
Au 23.4224 14.9995 24.4927
Au 24.9173 14.1574 18.3053
