2057
 Atoms. Timestep: 50000
Au 2.36844 31.8863 27.1314
Au 2.78357 29.034 25.8879
Au 4.56234 30.7649 26.6924
Au 6.13377 33.0907 27.585
Au 3.22847 25.1307 24.4002
Au 4.84078 27.2963 25.098
Au 6.86999 29.4307 25.8304
Au 8.50338 31.707 26.8192
Au 10.3285 33.6138 27.613
Au 3.55406 21.8276 22.8476
Au 5.45836 23.7153 23.3384
Au 7.13595 25.9278 24.0825
Au 8.92143 28.0296 24.9757
Au 10.6407 30.2131 25.9213
Au 12.5874 32.2191 26.6583
Au 13.9709 34.2747 27.5576
Au 4.34282 17.6816 21.4087
Au 5.70784 20.1202 21.819
Au 7.7124 22.1568 22.3705
Au 9.39629 24.4681 23.0861
Au 11.2467 26.402 24.2436
Au 12.9765 28.7658 24.8481
Au 14.7237 30.7352 25.5921
Au 16.4571 32.9869 26.4284
Au 18.3815 34.8018 27.4331
Au 4.97155 13.9409 19.0886
Au 6.4531 16.4604 20.063
Au 8.11634 18.5287 20.9716
Au 10.0181 20.6581 21.5659
Au 11.7765 22.995 22.294
Au 13.6783 24.7892 23.1948
Au 15.2513 27.1479 24.1217
Au 16.9364 29.2403 24.7545
Au 18.7803 31.3022 25.542
Au 20.5567 33.5449 26.4146
Au 22.3063 35.6749 27.258
Au 5.43997 10.5394 17.6323
Au 7.19239 12.6168 18.2269
Au 8.78445 14.706 19.0927
Au 10.4532 16.8756 19.8746
Au 12.2121 18.9713 20.5144
Au 13.9575 21.2654 21.4216
Au 15.807 23.2004 22.2764
Au 17.5403 25.4762 22.9652
Au 19.2154 27.6471 23.8805
Au 21.0596 29.8317 24.6168
Au 22.8182 31.9149 25.2803
Au 24.2906 34.1538 26.2591
Au 26.1553 36.1629 26.7258
Au 5.89215 7.002 16.3189
Au 7.67931 8.99203 16.6651
Au 9.40926 11.0353 17.6096
Au 11.1294 13.2846 18.0798
Au 12.7653 15.4024 18.9117
Au 14.5532 17.6639 19.5684
Au 16.2191 19.8354 20.41
Au 18.2231 21.8986 21.1953
Au 19.9434 24.0858 21.9959
Au 21.7091 26.1813 22.9031
Au 23.4345 28.3699 23.6986
Au 25.2528 30.4411 24.4368
Au 26.9091 32.6011 25.229
Au 28.4701 34.9049 26.1247
Au 30.1956 37.059 26.6202
Au 6.79268 3.4782 14.4545
Au 8.07285 5.6648 15.165
Au 9.95971 7.62317 15.9656
Au 11.601 9.67809 16.5579
Au 13.4049 11.7318 17.2342
Au 15.0304 13.9076 18.0327
Au 16.7341 16.093 18.6405
Au 18.6656 18.0978 19.5433
Au 20.4716 20.3548 20.3768
Au 22.2133 22.6254 21.2631
Au 23.7886 24.738 21.9462
Au 25.7168 26.76 22.8078
Au 27.291 28.8556 23.5431
Au 29.0725 31.0736 24.2201
Au 30.6227 33.2859 25.0742
Au 32.5135 35.5452 25.9265
Au 33.0436 37.8 26.9936
Au 10.2964 4.16331 14.0258
Au 12.1788 6.05029 14.8002
Au 13.9613 8.28706 15.4805
Au 15.6238 10.3025 16.2027
Au 17.4145 12.3677 17.0532
Au 19.0759 14.5884 17.8144
Au 21.0003 16.6805 18.4303
Au 22.6923 18.6939 19.4972
Au 24.5069 20.8662 20.3267
Au 26.1935 23.2795 20.8331
Au 27.987 25.379 21.9189
Au 29.7224 27.3684 22.522
Au 31.4137 29.546 23.4587
Au 33.0931 31.7154 24.1295
Au 34.7416 33.8161 25.1252
Au 14.3338 4.5322 13.8047
Au 16.364 6.59515 14.4256
Au 18.0004 8.80201 15.4232
Au 19.7987 10.9923 16.1273
Au 21.2517 13.0987 17.1315
Au 23.1305 15.1464 17.7284
Au 25.0492 17.471 18.3932
Au 27.0226 19.6188 19.2284
Au 28.639 21.755 20.218
Au 30.3781 23.9914 20.8784
Au 32.0901 25.8708 21.5611
Au 33.5959 28.1396 22.4571
Au 35.3772 30.2618 23.2544
Au 18.6359 5.17291 13.8124
Au 20.3209 7.29193 14.606
Au 22.0363 9.433 15.2458
Au 23.6183 11.4089 16.1836
Au 25.4764 13.7167 16.811
Au 27.0925 15.9062 17.4009
Au 29.1385 17.8669 18.431
Au 30.8223 20.1696 19.3777
Au 32.5309 22.2101 19.9589
Au 34.3032 24.2422 20.6433
Au 35.7019 26.6738 21.5381
Au 22.6149 5.77229 13.6116
Au 24.3445 7.82174 14.4788
Au 25.8221 10.1285 15.1635
Au 27.7111 12.2387 15.7721
Au 29.4843 14.492 16.5316
Au 31.2853 16.4309 17.6712
Au 33.0806 18.541 18.3282
Au 34.8564 20.8129 19.0138
Au 36.5864 22.6798 19.8709
Au 26.5284 6.20434 13.5095
Au 28.0193 8.50033 14.4019
Au 29.7207 10.6934 15.0497
Au 31.5395 12.9827 15.7662
Au 33.5584 15.0066 16.5944
Au 35.4651 17.0658 17.4559
Au 37.1148 19.2167 18.2285
Au 30.4241 7.17376 13.3446
Au 32.076 9.09111 14.144
Au 33.7511 11.2767 14.9124
Au 35.6249 13.353 15.5373
Au 37.297 15.53 16.1657
Au 34.3235 7.61172 13.1524
Au 35.8689 10.0353 13.8912
Au 37.8661 11.9011 14.6532
Au 37.734 8.39113 12.9619
Au 2.32247 31.3704 24.7264
Au 4.00756 33.4989 25.7334
Au 3.07014 27.9811 23.0463
Au 4.6638 30.0149 24.0369
Au 6.24737 32.0987 24.8589
Au 7.95573 34.0662 25.7385
Au 3.16304 24.4155 21.6527
Au 4.98804 26.2566 22.3718
Au 6.71408 28.4757 23.105
Au 8.54798 30.6536 23.9618
Au 10.1381 32.8301 24.7847
Au 11.9868 34.9159 25.629
Au 3.75832 20.5098 19.9558
Au 5.30926 22.6983 20.7413
Au 7.12466 24.7088 21.4125
Au 9.12007 27.0254 22.3301
Au 10.803 29.0287 23.1301
Au 12.595 31.3018 23.8851
Au 14.1685 33.561 24.6702
Au 16.206 35.5735 25.4177
Au 4.41096 16.8959 18.2629
Au 5.73265 18.8999 19.2458
Au 7.68293 20.9845 19.7944
Au 9.63949 23.2774 20.5855
Au 11.5219 25.5563 21.4016
Au 13.1776 27.6633 22.2026
Au 14.7891 29.7922 22.9781
Au 16.7891 31.9231 23.9178
Au 18.2626 34.0813 24.4875
Au 20.1654 35.9311 25.2593
Au 4.98208 12.9447 16.4501
Au 6.51337 15.3062 17.3332
Au 8.32626 17.5398 18.0223
Au 9.89919 19.6289 18.9283
Au 11.7175 21.6342 19.6368
Au 13.5915 23.7962 20.3775
Au 15.3417 25.8623 21.2053
Au 17.0127 28.171 22.1367
Au 18.9234 30.3458 23.0555
Au 20.6994 32.5954 23.632
Au 22.4059 34.8476 24.396
Au 23.998 36.9081 25.4014
Au 5.40703 9.45603 14.8353
Au 7.21653 11.5985 15.7458
Au 8.88741 13.841 16.3542
Au 10.5246 15.9461 17.0904
Au 12.3336 17.9705 17.9059
Au 14.0459 20.3457 18.713
Au 16.0064 22.3191 19.571
Au 17.639 24.5881 20.2673
Au 19.3273 26.5727 21.1373
Au 21.0541 28.8159 21.9884
Au 22.8643 31.0509 22.5545
Au 24.6279 33.0564 23.5355
Au 25.9766 35.2272 24.3669
Au 27.8416 37.5365 24.8466
Au 5.87405 5.9984 13.599
Au 7.59873 8.08605 14.0361
Au 9.55945 10.2001 14.6638
Au 11.082 12.2027 15.5982
Au 12.8973 14.5147 16.2093
Au 14.664 16.5449 16.8624
Au 16.5179 18.8183 17.7439
Au 18.3359 20.9437 18.8173
Au 20.1112 23.0221 19.3178
Au 21.679 25.4083 20.1019
Au 23.3623 27.3665 20.9896
Au 25.1739 29.2788 21.7158
Au 26.9036 31.5443 22.4864
Au 28.3726 33.8701 23.354
Au 30.1501 35.9979 24.1193
Au 31.9363 37.9952 24.6443
Au 8.01287 4.6814 12.3515
Au 9.95396 6.57394 13.0931
Au 11.6675 8.6804 13.8639
Au 13.3707 10.8523 14.6302
Au 15.2248 12.8609 15.1257
Au 16.8994 15.0694 16.0725
Au 18.6714 17.3806 16.7736
Au 20.5058 19.2501 17.6569
Au 22.1802 21.4071 18.5852
Au 23.9564 23.6723 19.2191
Au 25.8279 26.0029 20.1201
Au 27.51 28.1534 20.7045
Au 29.3217 29.9784 21.6081
Au 30.6383 32.2107 22.284
Au 32.4157 34.3271 23.3591
Au 34.1244 36.4499 24.1159
Au 12.1734 5.14079 12.3176
Au 14.0474 7.08325 12.8175
Au 15.6893 9.35132 13.6016
Au 17.5911 11.48 14.2003
Au 19.4596 13.6243 15.2594
Au 21.174 15.7112 15.9367
Au 22.8798 17.9688 16.8134
Au 24.6238 20.0416 17.5335
Au 26.3421 22.0779 18.4443
Au 28.2607 24.2445 19.0545
Au 29.8963 26.5776 19.9546
Au 31.5892 28.6306 20.6998
Au 33.28 30.736 21.3784
Au 34.9571 32.8576 22.333
Au 16.2782 5.5629 12.0409
Au 18.1471 7.71939 12.7851
Au 19.9542 9.87754 13.4258
Au 21.5897 12.2312 14.3868
Au 23.4024 14.1595 15.061
Au 25.0474 16.508 15.7988
Au 26.8965 18.5988 16.5842
Au 28.7616 20.9715 17.2466
Au 30.4879 22.7999 18.183
Au 32.1965 24.823 18.9009
Au 33.7841 27.1111 19.6768
Au 35.5498 29.1746 20.689
Au 20.3714 6.34683 11.8079
Au 22.2094 8.20562 12.3994
Au 23.7891 10.3928 13.2614
Au 25.462 12.6605 14.1228
Au 27.1699 14.9681 14.6484
Au 29.0481 17.1096 15.773
Au 30.9408 19.182 16.7249
Au 32.6397 21.3556 17.0179
Au 34.4422 23.407 18.0725
Au 36.1123 25.4252 19.0174
Au 24.43 6.74394 11.6826
Au 25.9794 8.8489 12.4108
Au 27.7903 11.061 13.1055
Au 29.4339 13.4905 13.93
Au 31.3328 15.5998 14.8927
Au 33.1138 17.7098 15.632
Au 34.9415 19.7278 16.4369
Au 36.5944 21.7487 17.2619
Au 28.2708 7.66631 11.5808
Au 30.0607 9.67511 12.281
Au 31.7287 11.7862 13.0905
Au 33.3018 13.8624 13.8286
Au 35.1738 16.1332 14.5989
Au 36.9178 18.2142 15.2684
Au 32.1554 8.04219 11.3308
Au 33.8449 10.1559 12.0903
Au 35.5757 12.6654 12.8869
Au 37.4794 14.5461 13.6808
Au 35.9853 8.75019 11.2294
Au 37.6011 10.9649 12.16
Au 2.57512 30.7504 22.1712
Au 4.27546 32.5256 22.9871
Au 5.93392 34.5986 23.7784
Au 2.99759 27.0219 20.4816
Au 4.67729 29.1788 21.1515
Au 6.40972 31.2321 21.9483
Au 8.04153 33.403 23.0039
Au 9.81694 35.3176 23.9789
Au 3.27967 23.1778 18.9439
Au 4.7803 25.2829 19.6851
Au 7.0566 27.412 20.5778
Au 8.5182 29.5905 21.4444
Au 10.3694 31.8416 22.1399
Au 12.1718 33.9909 22.7237
Au 13.7891 36.1126 23.6626
Au 4.03547 19.5877 17.3255
Au 5.46596 21.6424 18.1329
Au 7.15749 23.5871 18.784
Au 9.28765 26.0026 19.5001
Au 10.9274 28.1617 20.5187
Au 12.6752 30.3394 21.217
Au 14.5048 32.3584 22.105
Au 15.9878 34.651 22.851
Au 17.805 36.5461 23.4658
Au 4.42415 15.8002 15.5962
Au 6.04128 17.9534 16.3877
Au 7.78728 20.2187 17.1558
Au 9.47935 22.2423 17.8958
Au 11.4431 24.3425 18.6567
Au 13.3288 26.5032 19.463
Au 14.8868 28.7887 20.204
Au 16.7068 30.8724 20.9689
Au 18.5587 32.9901 21.808
Au 20.2719 35.4354 22.6041
Au 22.0498 37.4972 23.4179
Au 5.28677 12.1826 13.7467
Au 6.7132 14.3901 14.755
Au 8.45 16.496 15.3535
Au 10.212 18.6164 16.0335
Au 11.8783 20.8067 17.0995
Au 13.5482 22.9314 17.6377
Au 15.363 24.9156 18.549
Au 17.1884 27.2454 19.3326
Au 18.8704 29.2905 20.2847
Au 20.5273 31.3875 20.934
Au 22.4391 33.4859 21.5861
Au 23.9189 35.8729 22.3252
Au 25.6423 37.7469 23.2911
Au 5.39238 8.76475 12.2837
Au 7.24771 10.6057 12.9281
Au 8.8573 12.798 13.6592
Au 10.7113 14.9797 14.3335
Au 12.5173 17.0051 15.3046
Au 14.2834 19.3025 16.1777
Au 16.0427 21.5395 16.8947
Au 17.9177 23.5599 17.792
Au 19.5579 25.6203 18.4001
Au 21.238 27.8424 19.2269
Au 22.9793 29.9855 19.9127
Au 24.67 32.0224 20.5667
Au 26.1987 34.1453 21.6264
Au 27.8596 36.3483 22.3581
Au 29.7649 38.3254 23.1037
Au 7.51336 7.10902 11.4955
Au 9.62733 8.9955 12.0022
Au 11.3181 11.1719 12.6851
Au 12.838 13.3541 13.6543
Au 14.838 15.4491 14.3461
Au 16.632 17.7466 15.0906
Au 18.2174 20.0908 15.9024
Au 20.1286 21.9438 16.8003
Au 22.0128 24.2824 17.4523
Au 23.6867 26.3381 18.2575
Au 25.3653 28.492 19.0763
Au 27.1759 30.7782 19.5533
Au 28.6977 32.964 20.6253
Au 30.4202 34.9474 21.5005
Au 32.216 36.902 22.0619
Au 10.0086 5.70153 10.5348
Au 11.8037 7.64397 11.0718
Au 13.4561 9.73748 11.7393
Au 15.2135 11.954 12.7206
Au 17.1135 14.097 13.4324
Au 19.0082 16.4048 14.2367
Au 20.682 18.425 15.1805
Au 22.4191 20.5445 15.818
Au 24.137 22.5886 16.5172
Au 25.9511 24.8111 17.5034
Au 27.7665 26.9475 18.1722
Au 29.4064 29.0535 18.8488
Au 30.9183 31.1317 19.6431
Au 32.703 33.3981 20.5874
Au 34.2611 35.2584 21.5217
Au 13.9418 6.09961 10.2711
Au 15.9071 8.18284 10.9704
Au 17.5469 10.4515 11.7781
Au 19.5029 12.6041 12.6385
Au 21.044 14.7865 13.322
Au 22.902 16.9343 14.0299
Au 24.7832 19.1558 14.8686
Au 26.4019 21.2275 15.7897
Au 28.4074 23.4745 16.2355
Au 29.9805 25.4989 17.0287
Au 31.7366 27.6644 18.0183
Au 33.4562 29.8331 18.739
Au 34.9765 31.8377 19.7868
Au 18.1866 6.81893 10.1642
Au 20.1493 8.92102 10.8193
Au 21.688 11.1178 11.7213
Au 23.4681 13.2572 12.3232
Au 24.9505 15.4978 13.1445
Au 27.0042 17.727 13.8948
Au 28.641 19.8453 14.6517
Au 30.5534 21.8349 15.4008
Au 32.2532 24.0792 16.0396
Au 34.1821 26.1157 17.0135
Au 35.5917 28.1936 18.2192
Au 22.3356 7.29797 9.51035
Au 23.8796 9.58423 10.6366
Au 25.6236 11.5789 11.3676
Au 27.3587 13.8343 12.2775
Au 29.3679 16.0855 13.0949
Au 30.7831 18.2784 13.8706
Au 32.6785 20.2425 14.5621
Au 34.7015 22.2838 15.3937
Au 36.2601 24.615 16.2851
Au 26.1736 7.96495 9.77028
Au 27.8496 10.1062 10.3976
Au 29.4929 12.3594 11.31
Au 31.3452 14.631 11.871
Au 33.1935 16.782 12.9608
Au 34.9534 18.9381 13.5128
Au 36.7957 20.9765 14.1738
Au 30.1168 8.53513 9.53636
Au 31.612 10.6726 10.3074
Au 33.4696 12.9299 11.1213
Au 35.2956 15.2708 11.9066
Au 37.064 17.2882 12.7894
Au 33.7964 9.25572 9.62998
Au 35.6092 11.2771 10.2007
Au 37.1835 13.6304 10.8889
Au 2.66854 29.4682 19.4044
Au 4.18906 31.6941 20.0932
Au 5.69063 33.911 20.8456
Au 7.89301 35.7059 21.831
Au 3.00222 25.8652 17.9277
Au 4.74693 27.9569 18.449
Au 6.47252 30.2201 19.2937
Au 8.19205 32.3835 20.3038
Au 10.0841 34.5403 21.1038
Au 11.8506 36.6331 21.8291
Au 3.4972 22.2263 16.21
Au 5.21775 24.295 17.0437
Au 7.05976 26.2945 17.9212
Au 8.6699 28.5941 18.5434
Au 10.3867 30.8561 19.2826
Au 12.187 32.9103 20.2329
Au 14.1272 35.0949 20.8332
Au 15.8053 37.2455 21.7161
Au 4.04501 18.608 14.6908
Au 5.69799 20.5808 15.3262
Au 7.48097 22.9389 15.8626
Au 9.17974 24.9943 16.7101
Au 10.9811 26.8967 17.666
Au 12.7188 29.1993 18.5338
Au 14.5191 31.3536 19.2916
Au 16.2411 33.384 20.0745
Au 18.0655 35.7883 20.926
Au 19.7757 37.7221 21.8443
Au 4.63401 14.8384 12.9044
Au 6.21804 16.8991 13.6238
Au 7.80745 19.1789 14.5105
Au 9.57892 21.1885 15.4346
Au 11.2437 23.3641 15.9838
Au 13.2192 25.602 16.7171
Au 15.0524 27.6324 17.5686
Au 16.7818 29.6579 18.1695
Au 18.5045 31.8833 19.0159
Au 20.13 34.1394 20.009
Au 21.9145 36.1806 20.6166
Au 23.6398 38.3857 21.2578
Au 5.26678 11.26 11.1487
Au 7.00017 13.2198 11.7158
Au 8.41034 15.4857 12.5899
Au 10.2936 17.4724 13.4371
Au 11.9509 19.6885 14.3612
Au 13.486 22.004 14.9629
Au 15.5747 24.0373 15.9795
Au 17.3119 26.1822 16.5619
Au 19.017 28.3111 17.5058
Au 20.8696 30.3709 18.0668
Au 22.4143 32.488 18.8643
Au 24.1645 34.752 19.6707
Au 25.8954 36.8716 20.5565
Au 27.4085 38.9245 21.3943
Au 7.15429 9.54297 10.2647
Au 9.19173 11.6532 10.8414
Au 10.7773 13.9364 11.7334
Au 12.5808 16.0916 12.6317
Au 14.3654 18.3026 13.5038
Au 16.02 20.6138 14.2811
Au 17.7795 22.6626 15.1134
Au 19.7451 24.6243 15.7107
Au 21.3037 26.8023 16.6347
Au 23.1814 28.8533 17.2092
Au 24.7278 31.0138 18.0073
Au 26.5259 33.4203 18.7678
Au 28.2583 35.3576 19.6746
Au 29.7445 37.5506 20.5109
Au 9.57545 8.1346 9.43405
Au 11.3373 10.1692 9.86186
Au 12.8874 12.3292 10.7403
Au 14.7433 14.4167 11.7089
Au 16.6503 16.8532 12.6594
Au 18.3916 18.9427 13.2611
Au 20.1217 21.0959 13.9471
Au 21.9579 23.1867 14.7859
Au 23.6129 25.2529 15.5863
Au 25.6538 27.3082 16.2829
Au 27.1291 29.6191 16.9379
Au 28.9465 31.8978 17.817
Au 30.4451 34.0843 18.7279
Au 32.0914 35.9758 19.5355
Au 11.8981 6.77951 8.49083
Au 13.7673 8.71588 9.22383
Au 15.2427 10.8424 10.098
Au 17.0598 13.1703 10.8972
Au 18.8627 15.3017 11.6256
Au 20.8114 17.4764 12.383
Au 22.5346 19.7094 13.2191
Au 24.3516 21.7213 13.8665
Au 25.9164 23.9721 14.7462
Au 27.7529 26.0085 15.419
Au 29.6039 28.1808 16.1987
Au 31.3436 30.4086 17.0653
Au 32.8932 32.6047 17.9008
Au 34.245 34.6292 18.657
Au 16.0043 7.31832 8.46822
Au 17.8294 9.42915 9.24187
Au 19.4113 11.5598 9.93661
Au 21.2302 13.7256 10.4893
Au 22.8808 15.9199 11.4418
Au 24.6762 18.0785 12.1838
Au 26.6911 20.4349 12.9355
Au 28.1773 22.5524 13.6986
Au 30.0759 24.6022 14.2773
Au 31.7815 26.7349 15.1829
Au 33.7303 28.8086 15.9204
Au 35.12 31.1252 17.0567
Au 19.9569 8.02729 7.98494
Au 21.6698 9.94977 8.84939
Au 23.3359 12.1369 9.50029
Au 25.183 14.3485 10.4038
Au 27.0878 16.4434 11.4434
Au 28.7858 18.7673 11.9446
Au 30.5772 20.8356 12.8059
Au 32.4491 23.0429 13.5576
Au 34.3124 25.1 14.3199
Au 35.8915 27.2839 15.0719
Au 24.1485 8.63178 7.98407
Au 25.7365 10.8056 8.69907
Au 27.532 12.8012 9.50927
Au 29.1922 15.0147 10.1638
Au 30.9657 17.3737 10.956
Au 32.5951 19.3669 11.998
Au 34.5251 21.5351 12.6088
Au 36.3374 23.6181 13.3784
Au 28.0998 9.31477 7.9089
Au 29.7491 11.524 8.59728
Au 31.4941 13.496 9.20542
Au 33.3138 15.4314 9.97008
Au 34.9601 17.8041 10.8747
Au 36.8621 19.8092 11.5123
Au 31.5928 9.83825 7.67092
Au 33.4146 11.7964 8.44403
Au 35.0449 13.8557 9.07807
Au 36.7842 16.1149 9.8877
Au 2.68831 28.4769 16.8251
Au 4.47929 30.5099 17.5575
Au 6.34952 33.1247 18.3986
Au 8.05365 34.9409 19.2209
Au 9.7551 37.0593 19.9455
Au 2.93785 24.6865 15.1498
Au 4.94599 26.7016 16.0384
Au 6.55282 29.1555 16.5517
Au 8.26364 31.2992 17.4546
Au 10.0492 33.1775 18.0445
Au 11.7983 35.7215 19.2117
Au 13.5635 37.5979 19.9841
Au 3.68146 21.2966 13.5701
Au 5.27334 23.2967 14.2414
Au 7.16611 25.385 15.0189
Au 8.85998 27.6816 15.9523
Au 10.6736 29.8988 16.6605
Au 12.4398 31.8376 17.4297
Au 14.1359 34.0177 18.3878
Au 15.9551 36.0574 18.9296
Au 17.5373 38.3022 19.6939
Au 4.08245 17.4967 11.8334
Au 5.69522 19.6418 12.6272
Au 7.62346 21.8705 13.3038
Au 9.33837 24.0205 14.0487
Au 11.0263 26.0465 14.9377
Au 12.8868 28.2372 15.6908
Au 14.6837 30.1635 16.6882
Au 16.2542 32.4169 17.382
Au 18.1844 34.5129 18.0654
Au 19.6603 36.9024 18.9371
Au 21.4006 38.689 19.6224
Au 4.85993 13.7437 10.1955
Au 6.29429 16.0143 10.9263
Au 8.16347 18.1932 11.7782
Au 9.79853 20.2886 12.5067
Au 11.3794 22.406 13.4428
Au 13.3144 24.6006 14.0611
Au 15.1141 26.719 14.866
Au 17.0988 28.8042 15.5347
Au 18.54 30.8412 16.2627
Au 20.358 33.0706 17.0617
Au 22.0639 35.252 17.8487
Au 23.6465 37.5179 18.5627
Au 25.2394 39.4193 19.3892
Au 6.83161 12.1641 9.16773
Au 8.54577 14.3282 10.0411
Au 10.3302 16.6734 10.8248
Au 12.1157 18.7259 11.742
Au 13.8233 21.0819 12.3917
Au 15.6883 23.1937 13.2717
Au 17.3066 25.2678 13.988
Au 19.249 27.1566 14.6683
Au 20.9177 29.359 15.5265
Au 22.8084 31.6992 16.3787
Au 24.3944 33.9414 16.9514
Au 26.0934 35.9749 17.8571
Au 27.4978 37.993 18.681
Au 8.98377 10.6752 8.26482
Au 10.7754 12.7418 8.89325
Au 12.4567 15.0583 9.785
Au 14.5123 17.333 10.8006
Au 16.1125 19.517 11.6449
Au 17.9394 21.5974 12.2935
Au 19.8341 23.7989 13.1367
Au 21.5498 25.9856 13.7585
Au 23.3374 27.9079 14.581
Au 24.9001 30.0467 15.2439
Au 26.7043 32.3483 16.1158
Au 28.3901 34.4688 16.9765
Au 29.9222 36.6924 17.7825
Au 11.3171 9.33515 7.42341
Au 13.1344 11.3574 8.13703
Au 14.7706 13.7917 8.95534
Au 16.7102 15.8267 9.90155
Au 18.4739 18.0157 10.6543
Au 20.2234 20.0366 11.5299
Au 21.8745 22.2352 12.1262
Au 23.8725 24.447 12.9447
Au 25.6661 26.5684 13.5678
Au 27.2965 28.7838 14.3548
Au 29.2038 30.864 15.2774
Au 30.732 33.1378 16.1197
Au 32.256 35.2493 16.6762
Au 13.7478 7.86623 6.74778
Au 15.4629 9.86474 7.51964
Au 17.0483 12.0849 8.31133
Au 18.9188 14.1523 8.83684
Au 20.7961 16.5395 9.67664
Au 22.4652 18.6427 10.5087
Au 24.1862 20.7616 11.259
Au 26.0626 22.9802 11.8818
Au 27.8363 25.1076 12.5074
Au 29.3731 27.2328 13.636
Au 31.4915 29.5067 14.3991
Au 33.0591 31.5949 15.1393
Au 34.4646 33.8188 15.8187
Au 17.7508 8.59877 6.52983
Au 19.3747 10.704 7.28553
Au 21.2654 12.898 7.82728
Au 22.8664 14.9008 8.71271
Au 24.8161 17.0871 9.54559
Au 26.6746 19.2504 10.3487
Au 28.4985 21.4184 11.1606
Au 30.0822 23.6092 11.6187
Au 31.9698 25.8128 12.5691
Au 33.8103 27.8321 13.3845
Au 35.4535 30.0201 14.2759
Au 21.8874 9.0162 6.22438
Au 23.4952 11.3383 6.81891
Au 25.1588 13.4315 7.72144
Au 26.9086 15.613 8.64016
Au 28.7449 17.6832 9.14306
Au 30.5125 19.7404 9.9987
Au 32.305 21.9201 10.8469
Au 34.0736 24.2835 11.5988
Au 36.1087 26.2004 12.53
Au 25.783 9.8413 6.0296
Au 27.5759 11.9326 6.89434
Au 29.2385 14.2391 7.54919
Au 31.0653 16.1582 8.13194
Au 32.7735 18.2244 8.96045
Au 34.3355 20.2336 9.94398
Au 36.0243 22.5094 10.5525
Au 29.7564 10.7307 5.75786
Au 31.4254 12.5133 6.59435
Au 33.1402 14.5619 7.2102
Au 34.8891 16.6579 7.97157
Au 36.4221 18.7141 8.95707
Au 2.74972 27.3433 14.3933
Au 4.27074 29.7164 14.831
Au 6.01231 31.7406 15.7509
Au 8.00303 33.7894 16.1142
Au 9.78072 36.1055 17.2079
Au 11.5158 38.024 17.8808
Au 3.15593 23.919 12.4841
Au 4.90215 25.9155 13.282
Au 6.73287 28.0494 13.8881
Au 8.23431 30.3815 14.7989
Au 10.1911 32.4831 15.4329
Au 11.9667 34.6301 16.5858
Au 13.7584 36.479 17.1215
Au 15.3174 38.6167 17.7096
Au 3.87938 20.351 10.5726
Au 5.41423 22.2359 11.5266
Au 7.14661 24.5148 12.3812
Au 9.0979 26.8188 13.0745
Au 10.6068 28.7878 14.0218
Au 12.4134 30.7715 14.633
Au 14.1992 33.0477 15.5524
Au 16.0052 35.1355 16.2006
Au 17.6669 37.2457 17.0876
Au 19.1873 39.4736 17.6372
Au 4.32617 16.4895 9.20522
Au 5.85608 18.5581 9.98577
Au 7.72941 20.7991 10.7011
Au 9.33002 23.0713 11.4787
Au 11.3823 25.1506 12.2215
Au 12.9234 27.3603 13.015
Au 14.6877 29.3541 13.8375
Au 16.3154 31.5629 14.6222
Au 18.0393 33.5256 15.4992
Au 19.8325 35.8538 16.1926
Au 21.5211 37.8078 16.748
Au 22.9756 40.0268 17.6572
Au 6.49481 14.8731 8.16356
Au 8.18412 17.294 8.93483
Au 9.87806 19.2512 9.67392
Au 11.7891 21.4299 10.7453
Au 13.5157 23.5887 11.5489
Au 15.18 25.8395 12.0749
Au 16.9229 27.8361 12.906
Au 18.6711 29.993 13.5894
Au 20.404 32.0243 14.6383
Au 22.1367 34.197 15.1618
Au 23.797 36.3248 15.9059
Au 25.3568 38.6335 16.5722
Au 8.60443 13.3605 7.48096
Au 10.3149 15.5485 8.21472
Au 12.2605 17.6751 9.03817
Au 13.9869 19.7337 9.81091
Au 15.8224 21.9171 10.5308
Au 17.4349 24.1652 11.2319
Au 19.175 26.4453 12.0682
Au 21.053 28.5343 12.6639
Au 22.719 30.6109 13.6578
Au 24.406 32.8886 14.2873
Au 26.2814 34.9736 15.0728
Au 27.7961 37.0527 16.0561
Au 10.9145 11.6682 6.36203
Au 12.47 13.9288 7.15992
Au 14.3986 16.2865 7.97666
Au 16.2917 18.3808 8.76794
Au 18.1166 20.5821 9.60912
Au 19.7623 22.761 10.3793
Au 21.4745 24.8607 10.8313
Au 23.1504 27.0012 11.8087
Au 24.8655 29.1926 12.6387
Au 26.6799 31.4357 13.4363
Au 28.6052 33.6143 14.1413
Au 30.1134 35.6473 14.8438
Au 13.3367 10.2974 5.51549
Au 14.8527 12.4702 6.32926
Au 16.6916 14.8543 7.1705
Au 18.471 16.7783 8.05594
Au 20.2853 19.1217 8.67651
Au 22.0189 21.1784 9.32807
Au 23.7927 23.3723 10.0122
Au 25.6927 25.4241 10.7736
Au 27.3454 27.7224 11.7027
Au 29.1433 30.0077 12.6046
Au 30.8697 32.0604 13.2174
Au 32.2766 34.2542 14.0319
Au 15.5989 9.17405 4.82289
Au 17.2091 11.1197 5.48906
Au 18.7415 13.2749 6.3499
Au 20.6981 15.4689 7.04134
Au 22.5644 17.5886 7.83106
Au 24.3922 19.7427 8.36281
Au 26.0748 21.9159 9.20441
Au 27.8961 23.9288 9.93502
Au 29.7124 26.2719 10.8942
Au 31.5062 28.3149 11.7085
Au 33.3136 30.2924 12.4245
Au 34.4069 32.6269 13.2881
Au 19.5534 9.55644 4.65158
Au 21.2371 11.6575 5.43996
Au 23.0718 13.9437 5.99533
Au 24.8377 16.2118 6.7328
Au 26.5469 18.2921 7.52539
Au 28.2324 20.4039 8.3474
Au 30.2398 22.5181 8.93841
Au 31.8503 24.7018 9.66078
Au 34.1055 26.9013 10.8243
Au 35.4642 28.9733 11.4919
Au 23.5695 10.2753 4.46336
Au 25.4618 12.5156 5.13755
Au 27.0302 14.7381 6.01806
Au 28.7631 16.7967 6.57197
Au 30.5165 18.9739 7.15622
Au 32.3493 20.8815 7.98256
Au 33.9262 23.0021 8.83984
Au 36.0652 25.1984 9.94297
Au 27.4813 11.1647 4.22603
Au 29.1474 13.2201 4.95077
Au 31.1032 15.2311 5.54262
Au 32.6969 17.5065 6.20114
Au 34.4677 19.3751 7.20991
Au 35.9531 21.409 8.12933
Au 2.82245 26.4731 11.7551
Au 4.41568 28.4407 12.3058
Au 6.14097 30.7348 13.0535
Au 7.78242 32.928 13.6277
Au 9.8858 35.1122 14.5605
Au 11.5138 37.1591 15.1325
Au 13.4797 38.9898 15.7812
Au 3.15705 22.999 9.99044
Au 4.98934 24.928 10.6455
Au 6.63433 27.1444 11.2189
Au 8.4273 29.4146 11.9336
Au 9.96713 31.5068 12.817
Au 12.0691 33.5531 13.6471
Au 13.526 35.8533 14.4069
Au 15.6076 37.7645 15.0776
Au 17.1059 39.8639 15.9424
Au 3.87557 19.099 8.23467
Au 5.49303 21.2329 8.73556
Au 7.25915 23.2855 9.58909
Au 9.07886 25.623 10.5063
Au 10.797 27.8147 11.1039
Au 12.2597 30.0706 11.9953
Au 14.2402 31.9773 12.7405
Au 15.9018 34.1231 13.4648
Au 17.6474 36.2009 14.1566
Au 19.3123 38.3744 15.1541
Au 21.0472 40.3845 15.849
Au 5.95704 17.4751 7.25882
Au 7.80766 19.7602 8.02649
Au 9.66192 21.9205 8.79494
Au 11.3108 24.1359 9.60934
Au 13.0257 26.2264 10.2681
Au 14.6479 28.4605 11.1644
Au 16.4659 30.5975 11.8402
Au 18.1543 32.783 12.7918
Au 19.8422 34.8566 13.4225
Au 21.4837 36.9231 14.0677
Au 23.2866 38.9704 14.8328
Au 8.19012 16.1072 6.36434
Au 10.1933 18.2502 7.1954
Au 11.7867 20.4855 8.11753
Au 13.6214 22.5437 8.70555
Au 15.2265 24.7197 9.57124
Au 17.0175 26.8436 10.2861
Au 18.8511 28.9922 10.8879
Au 20.3687 31.1566 11.6709
Au 22.1184 33.1258 12.4148
Au 23.9501 35.3509 13.1133
Au 25.5949 37.5355 14.0423
Au 10.5263 14.6013 5.62307
Au 12.3558 16.7058 6.20048
Au 14.0961 19.0014 7.16674
Au 15.8567 21.036 7.86945
Au 17.4366 23.0541 8.50713
Au 19.1586 25.3423 9.21302
Au 21.0911 27.622 10.0997
Au 22.8524 29.8547 10.6891
Au 24.5181 31.7564 11.7824
Au 26.294 34.2003 12.398
Au 28.0116 36.3383 13.1669
Au 12.7347 12.8914 4.4659
Au 14.4894 14.9782 5.34048
Au 16.31 17.3479 6.17749
Au 18.2175 19.5725 6.87946
Au 19.8324 21.759 7.61526
Au 21.5766 23.862 8.22947
Au 23.3044 25.9854 9.13045
Au 25.2329 28.2687 9.93891
Au 26.9309 30.4296 10.8816
Au 28.6855 32.366 11.5681
Au 30.2196 34.7704 12.1764
Au 15.172 11.5745 3.54466
Au 16.6717 13.6514 4.43996
Au 18.5592 15.8445 5.19002
Au 20.3977 18.075 6.2216
Au 21.9325 20.4768 6.58885
Au 23.9699 22.524 7.39867
Au 25.5593 24.7346 8.1591
Au 27.3081 26.7614 8.84101
Au 29.17 28.6019 9.88305
Au 30.9517 31.0598 10.6428
Au 32.5025 33.1 11.4148
Au 17.5784 10.0593 3.0601
Au 19.1445 12.0989 3.71461
Au 20.8292 14.3578 4.48061
Au 22.6486 16.8169 5.0931
Au 24.0761 18.951 5.68363
Au 26.0148 20.8379 6.41116
Au 27.7035 23.1219 7.38238
Au 29.5787 25.309 7.99718
Au 31.5678 27.3964 9.09445
Au 33.2207 29.3316 9.75645
Au 34.5896 31.6255 10.5518
Au 21.4806 10.7468 2.82977
Au 23.2037 12.9845 3.30387
Au 24.811 15.0797 4.02064
Au 26.5609 17.4963 4.83562
Au 28.3934 19.4603 5.50672
Au 29.9873 21.6292 6.30574
Au 32.0158 23.7631 7.19884
Au 33.8348 25.9497 8.14921
Au 35.5739 28.0994 8.58347
Au 25.2123 11.6264 2.64999
Au 27.0497 13.6678 3.14975
Au 28.7947 15.9025 4.07985
Au 30.561 17.961 4.60592
Au 32.3089 20.0334 5.28098
Au 34.0305 21.9345 6.12689
Au 35.6663 24.243 7.19687
Au 3.03797 25.3568 8.89513
Au 4.48858 27.6529 9.65591
Au 6.14269 29.9125 10.44
Au 7.82124 31.9272 10.9374
Au 10.0027 33.9714 11.8469
Au 11.3896 36.2075 12.4406
Au 12.935 38.2952 13.1763
Au 14.8706 40.0867 13.6891
Au 3.14135 21.8826 7.38902
Au 5.08942 23.8114 7.9989
Au 6.95649 25.9495 8.7401
Au 8.54749 28.3065 9.35585
Au 10.1755 30.4246 10.0723
Au 12.2578 32.5825 10.7832
Au 13.6238 34.859 11.6682
Au 15.3334 36.9449 12.4145
Au 17.3521 38.7073 13.1529
Au 18.9916 40.9469 13.9518
Au 5.42971 20.2505 6.28092
Au 7.58961 22.3617 6.98038
Au 9.19306 24.5873 7.74789
Au 10.84 26.8253 8.50248
Au 12.7265 28.9332 9.22536
Au 14.5738 31.066 9.95062
Au 16.0971 33.2267 10.6788
Au 17.746 35.4441 11.5607
Au 19.5434 37.4554 12.2494
Au 21.2785 39.6404 13.3147
Au 7.81182 18.642 5.48289
Au 9.85714 20.7102 6.15508
Au 11.284 22.9825 6.74649
Au 13.0398 25.3661 7.49209
Au 14.7759 27.4343 8.44012
Au 16.5683 29.5282 9.02102
Au 18.1322 31.6515 9.93898
Au 19.881 33.8272 10.5691
Au 21.8146 35.8582 11.4195
Au 23.4237 38.0396 12.302
Au 9.93686 17.2514 4.6492
Au 12.0224 19.2446 5.36046
Au 13.738 21.5706 6.00446
Au 15.3572 23.8558 6.82188
Au 16.9683 26.0334 7.58921
Au 18.832 28.0149 8.06428
Au 20.4838 30.1936 8.798
Au 22.2761 32.3427 9.61184
Au 24.1036 34.2816 10.5201
Au 25.8583 36.7395 11.4208
Au 12.4705 15.5738 3.54947
Au 14.074 17.7153 4.4004
Au 15.8552 19.9203 5.11338
Au 17.5504 22.3109 5.82538
Au 19.1953 24.6135 6.56429
Au 21.1292 26.5537 7.45046
Au 22.8057 28.795 7.99138
Au 24.7082 31.0073 8.8284
Au 26.5012 32.9875 9.80585
Au 28.1634 35.2759 10.5909
Au 14.5498 14.0191 2.56315
Au 16.3525 16.3891 3.47972
Au 18.1066 18.4125 4.23485
Au 19.7448 20.7926 4.90763
Au 21.4973 23.0147 5.53723
Au 23.314 25.0257 6.40261
Au 25.0236 27.3913 6.99118
Au 27.0027 29.4842 7.9721
Au 28.749 31.204 8.85846
Au 30.2035 33.5955 9.83435
Au 17.0866 12.6181 1.9267
Au 18.7857 14.8539 2.6331
Au 20.3789 17.1176 3.42016
Au 21.9031 19.2267 4.08059
Au 23.8808 21.533 4.64735
Au 25.4649 23.6122 5.47145
Au 27.2549 25.8602 6.18673
Au 29.3927 27.8276 6.9006
Au 30.9231 29.8173 8.01213
Au 32.6761 32.0595 8.78218
Au 19.351 11.0682 1.23632
Au 20.9673 13.2462 1.76881
Au 22.4869 15.6481 2.42561
Au 24.2853 17.8393 3.10147
Au 26.2303 19.9855 3.82972
Au 27.7834 22.2481 4.68293
Au 29.4863 24.208 5.44423
Au 31.5945 26.3067 6.39968
Au 33.3498 28.4497 7.12987
Au 34.7675 30.4882 7.98593
Au 22.8667 11.8876 0.610139
Au 24.8593 14.1715 1.3853
Au 26.587 16.3078 2.33628
Au 28.3531 18.5402 2.82397
Au 29.9902 20.6619 3.72274
Au 31.8489 22.9009 4.6314
Au 33.732 24.8002 5.23138
Au 35.4109 27.0176 6.14435
Au 3.16098 24.2073 6.28858
Au 4.87344 26.3697 7.1369
Au 6.20796 28.6122 7.85611
Au 8.10329 30.8097 8.52902
Au 9.91098 32.7791 9.3027
Au 11.7146 35.0597 9.75761
Au 13.1248 37.4755 10.5461
Au 15.4071 39.1855 11.1242
Au 16.8572 41.0382 12.1462
Au 5.18748 22.7169 5.49914
Au 7.13017 24.913 6.12818
Au 8.59305 27.2093 6.82494
Au 10.3878 29.258 7.54656
Au 12.3261 31.5114 8.25127
Au 13.9334 33.9085 8.87186
Au 15.3824 36.1611 9.76188
Au 17.5146 37.8917 10.0459
Au 19.0514 39.936 11.3712
Au 7.36012 21.2503 4.76789
Au 9.33372 23.3691 5.11683
Au 10.8838 25.7257 5.8574
Au 12.6341 28.153 6.55544
Au 14.3636 29.982 7.2005
Au 16.1435 32.061 7.97846
Au 17.7304 34.3963 8.88765
Au 19.8493 36.6037 9.57636
Au 21.2727 38.5988 10.5458
Au 9.88095 19.9824 3.62387
Au 11.6029 22.1106 4.18554
Au 13.1493 24.0887 4.73497
Au 14.8066 26.4578 5.69194
Au 16.6351 28.3422 6.447
Au 18.368 30.777 7.13266
Au 19.9036 32.8104 8.10589
Au 21.6982 34.9749 8.92593
Au 23.6272 36.8241 9.74684
Au 11.9028 18.3326 2.95198
Au 13.8038 20.3936 3.34577
Au 15.3511 22.7848 4.24815
Au 17.0783 24.9882 4.91303
Au 18.755 27.0951 5.45847
Au 20.6506 29.0994 6.27741
Au 22.5409 31.3993 7.01854
Au 23.9969 33.4457 7.79908
Au 25.9732 35.3824 8.93572
Au 14.2203 16.6446 1.88934
Au 16.0584 18.9813 2.51639
Au 17.4802 21.1062 3.10932
Au 19.492 23.3849 4.1185
Au 20.9275 25.7453 4.71822
Au 22.8804 27.5692 5.40072
Au 24.7701 29.8995 6.20442
Au 26.5403 32.1213 7.19633
Au 28.2321 34.011 8.08371
Au 16.4909 15.2354 0.998515
Au 18.2923 17.6708 1.63014
Au 19.7431 19.6982 2.26341
Au 21.6496 21.7784 2.8933
Au 23.2463 23.9694 3.57836
Au 25.0107 26.1148 4.28234
Au 26.9958 28.6089 5.45115
Au 28.9202 30.6498 6.20316
Au 30.4445 32.6029 7.08704
Au 18.8144 13.8305 0.0881034
Au 20.4751 16.0474 0.702036
Au 21.976 18.4437 1.567
Au 23.9942 20.4665 2.11652
Au 25.6192 22.6878 2.94514
Au 27.3096 24.8098 3.7086
Au 29 26.8751 4.24465
Au 30.8036 28.6008 4.96338
Au 32.485 30.7646 6.11189
Au 20.7186 12.2892 -0.700829
Au 22.805 14.4559 0.0141566
Au 24.4786 16.7114 0.719492
Au 26.0684 18.9471 1.28853
Au 27.9843 21.1852 2.08666
Au 29.4025 23.3717 3.0238
Au 31.2381 25.4395 3.80047
Au 33.1941 27.4705 4.52391
Au 34.7847 29.5933 5.333
Au 2.76222 29.7499 28.6325
Au 4.27846 31.8556 29.1917
Au 3.09968 26.3354 27.0136
Au 4.91213 28.2526 27.6897
Au 6.67144 30.6374 28.7234
Au 8.41064 32.4459 29.3798
Au 3.68558 22.7424 25.3308
Au 5.34809 24.7689 26.1038
Au 7.09532 26.6552 26.8866
Au 8.83064 28.9347 27.7869
Au 10.6861 30.8812 28.7
Au 12.1734 33.1382 29.5132
Au 4.38617 19.0279 23.737
Au 5.78099 21.1738 24.393
Au 7.60184 23.35 25.0015
Au 9.23638 25.4716 25.8111
Au 11.0661 27.62 26.7405
Au 13.0142 29.5913 27.6819
Au 14.6028 31.9298 28.425
Au 16.4604 33.9108 29.1584
Au 4.90823 14.9951 21.8998
Au 6.58247 17.4207 22.739
Au 8.25037 19.6858 23.4401