2057
 Atoms. Timestep: 50000
Au 22.5347 10.9573 41.2981
Au 22.2906 12.0356 38.7804
Au 22.0319 13.5201 36.1795
Au 21.9096 14.4824 33.5763
Au 21.5397 15.5653 31.0009
Au 21.1586 16.7539 28.4198
Au 21.0277 17.8658 25.7248
Au 20.8182 19.0833 23.1081
Au 20.5 20.2939 20.3372
Au 20.0157 21.6852 17.7275
Au 19.7813 22.6824 14.9687
Au 19.5533 23.8024 12.283
Au 19.2456 25.0592 9.71478
Au 19.0792 26.188 7.15436
Au 18.765 27.6333 4.56732
Au 18.4476 28.7768 1.93308
Au 18.0149 29.6401 -0.68711
Au 19.9247 11.6529 40.2976
Au 19.6477 12.6396 37.8441
Au 19.4494 13.819 35.2533
Au 19.2779 14.953 32.5672
Au 18.9914 16.1354 29.76
Au 18.5349 17.375 27.0955
Au 18.4437 18.4643 24.7124
Au 18.2116 19.6929 21.8361
Au 17.7341 20.9404 19.2272
Au 17.5015 22.1644 16.5464
Au 17.2566 23.372 13.9227
Au 16.9296 24.4218 11.3032
Au 16.5906 25.5993 8.62919
Au 16.5313 26.8231 6.02778
Au 16.2295 28.1233 3.4993
Au 15.9088 29.066 0.98597
Au 21.7117 13.5962 41.0427
Au 21.7187 14.8197 38.6341
Au 21.4725 16.092 35.8784
Au 20.9553 17.2983 33.2897
Au 20.5745 18.4173 30.6259
Au 20.3817 19.6171 27.9382
Au 19.99 20.6437 25.2791
Au 19.7687 21.7687 22.5945
Au 19.4932 22.9441 20.0963
Au 19.2391 24.4573 17.4031
Au 18.8868 25.4644 14.7304
Au 18.676 26.5142 12.0565
Au 18.4252 27.8013 9.45282
Au 18.3461 29.0451 6.87497
Au 17.9355 30.3614 4.28001
Au 17.7181 31.3304 1.5013
Au 24.2732 12.9872 40.3887
Au 24.177 14.3973 37.8136
Au 24.1029 15.3416 35.1236
Au 23.7001 16.4743 32.6278
Au 23.4637 17.6409 30.032
Au 22.9757 18.8216 27.3994
Au 22.7851 19.9362 24.69
Au 22.5484 21.0291 22.095
Au 22.2523 22.4243 19.37
Au 21.8701 23.4756 16.6481
Au 21.5262 24.5856 14.0605
Au 21.4234 26.0091 11.3539
Au 21.2458 27.0136 8.72689
Au 21.0605 28.2865 6.11027
Au 20.6689 29.4547 3.52755
Au 20.3078 30.6152 1.04036
Au 24.2442 10.4687 39.4119
Au 24.0045 11.5286 36.9229
Au 23.8499 12.5469 34.1422
Au 23.6056 13.8037 31.492
Au 23.2803 14.9736 28.7401
Au 23.0826 16.0836 26.4204
Au 22.7413 17.2255 23.6374
Au 22.5503 18.6163 20.9381
Au 22.2847 19.7452 18.3392
Au 21.8664 20.9727 15.5666
Au 21.5991 22.0546 12.7494
Au 21.3715 23.3267 10.3271
Au 21.2135 24.3806 7.84699
Au 20.8732 25.6158 5.18253
Au 20.614 26.599 2.37641
Au 20.1287 28.054 0.0976057
Au 21.505 9.32416 39.1215
Au 21.2199 10.4647 36.7609
Au 21.2284 11.8325 34.1265
Au 20.872 12.8475 31.4576
Au 20.665 13.9828 28.7811
Au 20.3791 15.2434 26.1545
Au 19.929 16.3062 23.5083
Au 19.6356 17.5378 20.7225
Au 19.4509 18.7395 18.163
Au 19.04 20.0488 15.5094
Au 18.9134 21.1747 12.832
Au 18.7283 22.2995 10.2557
Au 18.3798 23.4068 7.57438
Au 18.0769 24.7969 4.79695
Au 17.7658 26.0162 2.3655
Au 17.536 26.9699 -0.0718697
Au 17.2765 12.5502 39.26
Au 17.2258 13.4733 36.8564
Au 16.7947 14.4341 34.2539
Au 16.8425 15.5793 31.5317
Au 16.4207 16.7314 28.9591
Au 15.992 17.9381 26.0965
Au 15.8394 19.0123 23.5211
Au 15.5643 20.3508 20.7562
Au 15.1814 21.5988 18.0496
Au 14.8996 22.7673 15.3429
Au 14.681 24.0344 12.8208
Au 14.2178 25.1332 10.2013
Au 13.9674 26.0685 7.58235
Au 13.7929 27.3773 4.85272
Au 13.7908 28.4613 2.47711
Au 19.3032 14.4241 40.1683
Au 19.1426 15.4778 37.6021
Au 18.5919 16.5006 34.9255
Au 18.322 17.8408 32.2335
Au 18.029 18.9739 29.4532
Au 17.596 20.1823 26.746
Au 17.3011 21.3734 24.0786
Au 17.2004 22.299 21.6307
Au 16.8633 23.6367 19.0458
Au 16.6415 24.7116 16.4735
Au 16.4621 26.1867 13.7008
Au 16.1188 27.2549 11.0248
Au 15.8595 28.3759 8.20464
Au 15.7598 29.8693 5.79725
Au 15.4609 30.8726 3.2542
Au 21.0626 16.4864 40.6621
Au 20.9908 17.4681 38.2658
Au 20.5277 18.8122 35.4696
Au 20.0811 19.92 32.81
Au 19.9074 21.2376 30.1893
Au 19.5546 22.3677 27.5608
Au 19.1633 23.5714 24.8675
Au 19.0713 24.7028 22.3672
Au 18.6967 25.7645 19.8472
Au 18.2327 27.055 17.0867
Au 18.1255 28.1658 14.4965
Au 17.9312 29.2435 11.7139
Au 17.8494 30.5116 9.23031
Au 17.5449 31.7835 6.73803
Au 17.1292 32.987 4.115
Au 23.6638 15.9463 40.2998
Au 23.5716 17.0155 37.788
Au 23.3077 18.0758 35.1262
Au 22.8641 19.0965 32.4103
Au 22.6299 20.408 29.7383
Au 22.0586 21.4952 27.1014
Au 21.8592 22.6044 24.5457
Au 21.755 23.7299 21.5745
Au 21.3322 25.0343 19.0698
Au 20.982 26.2112 16.3966
Au 20.764 27.4707 13.8552
Au 20.6342 28.6177 11.1683
Au 20.4267 29.6446 8.66593
Au 20.1449 30.9449 5.97066
Au 19.7784 32.0766 3.39518
Au 26.3788 14.9983 39.3956
Au 26.3553 16.1866 36.9781
Au 25.9472 17.2204 34.2999
Au 25.6325 18.3632 31.6854
Au 25.2731 19.4516 28.8335
Au 24.9279 20.7692 26.4168
Au 24.6049 21.8119 23.9332
Au 24.4161 23.0632 21.0864
Au 24.1793 24.4439 18.2551
Au 23.7454 25.3606 15.7906
Au 23.4572 26.7175 13.2982
Au 23.2464 27.9302 10.7004
Au 22.994 28.9759 7.86356
Au 22.9361 30.1798 5.24836
Au 22.4728 31.3867 2.76606
Au 26.1645 12.545 38.4341
Au 25.9545 13.3752 35.7323
Au 25.8394 14.602 33.0233
Au 25.3758 15.7187 30.4456
Au 25.2757 17.0222 27.9081
Au 24.7933 18.1677 25.3815
Au 24.6363 19.1109 22.7151
Au 24.468 20.424 20.0892
Au 23.9822 21.7255 17.4151
Au 23.7289 22.8124 14.5139
Au 23.7048 24.0299 11.8843
Au 23.4257 25.3564 9.23152
Au 23.0958 26.4426 6.72244
Au 22.852 27.5449 4.10138
Au 22.3384 28.6869 1.66167
Au 25.9333 9.69347 37.1442
Au 26.0141 10.8539 34.7537
Au 25.7734 11.9451 32.2256
Au 25.4124 12.9871 29.4627
Au 25.3136 14.2245 26.7186
Au 24.8932 15.5622 24.1198
Au 24.5279 16.6176 21.4201
Au 24.4846 17.8259 19.0197
Au 23.7821 18.9717 16.1009
Au 23.7204 20.1893 13.3975
Au 23.5991 21.3543 10.8868
Au 23.4017 22.5515 8.31183
Au 22.8905 23.6828 5.87683
Au 22.589 24.8059 3.08321
Au 22.4901 26.0786 0.616028
Au 23.4883 8.68176 37.4315
Au 23.2546 9.77971 34.8526
Au 23.0499 11.1058 32.034
Au 22.6935 12.2647 29.317
Au 22.5436 13.3134 26.5173
Au 22.1446 14.5197 23.9598
Au 21.9696 15.7417 21.2763
Au 21.4892 16.9896 18.8657
Au 21.1264 18.205 16.0727
Au 20.8313 19.2993 13.4269
Au 20.6982 20.3265 10.6658
Au 20.5268 21.6908 8.07086
Au 20.1572 23.0601 5.41893
Au 19.8634 24.0118 2.72447
Au 19.7028 25.3087 0.0161648
Au 20.6149 7.83646 36.8607
Au 20.4878 9.16296 34.4003
Au 20.1432 10.4149 31.8786
Au 19.8702 11.3062 29.2932
Au 19.6325 12.5076 26.5922
Au 19.3681 13.6372 24.0405
Au 19.1461 14.7759 21.2334
Au 18.8551 15.9092 18.5911
Au 18.4122 17.2908 15.949
Au 18.2386 18.4728 13.1406
Au 17.8929 19.6146 10.526
Au 17.7773 20.8786 7.93974
Au 17.4112 21.9286 5.35498
Au 17.2423 23.0288 2.72935
Au 16.8777 24.3368 0.372246
Au 18.9753 10.0369 38.4108
Au 18.6761 11.092 35.6221
Au 18.5355 12.3252 33.1057
Au 18.2313 13.4203 30.4695
Au 18.1769 14.6009 27.681
Au 17.4104 15.7961 25.0851
Au 17.288 16.9851 22.3564
Au 17.1061 18.1689 19.5343
Au 16.8255 19.4623 17.0897
Au 16.622 20.5549 14.4685
Au 16.2544 21.7896 11.7825
Au 15.9627 22.9987 9.16562
Au 15.8322 24.1721 6.45664
Au 15.5243 25.237 3.97014
Au 15.153 26.3727 1.53158
Au 14.8071 12.9054 38.1048
Au 14.5128 13.9173 35.6289
Au 14.3169 15.0835 33.0564
Au 14.0554 16.1843 30.2004
Au 13.74 17.265 27.4828
Au 13.4264 18.5162 24.9547
Au 13.2801 19.6415 22.3968
Au 12.9759 20.8883 19.6527
Au 12.7169 22.1758 17.0663
Au 12.3329 23.2978 14.4382
Au 12.0487 24.4854 11.9494
Au 11.8023 25.5076 9.04402
Au 11.4725 26.8464 6.60338
Au 11.1911 27.915 4.08194
Au 16.6368 15.1199 39.1195
Au 16.2059 15.9079 36.6125
Au 16.0527 17.2042 33.9086
Au 15.7303 18.3154 31.1183
Au 15.5289 19.3637 28.4765
Au 15.0032 20.5863 25.563
Au 14.9294 21.7886 23.021
Au 14.7864 22.997 20.5142
Au 14.3616 24.1935 17.9345
Au 14.1094 25.4619 15.2168
Au 13.8098 26.5033 12.6379
Au 13.4351 27.7991 9.9253
Au 13.2489 28.9034 7.29078
Au 13.1888 29.9397 4.76378
Au 18.523 17.2059 39.7021
Au 18.1852 18.0876 37.1707
Au 17.7906 19.3186 34.5711
Au 17.4761 20.4224 31.8095
Au 17.2507 21.5552 29.1924
Au 16.8538 22.8244 26.5384
Au 16.6841 24.008 23.8773
Au 16.6314 25.159 21.3745
Au 16.1084 26.4488 18.7905
Au 15.8307 27.527 16.1469
Au 15.6354 28.8092 13.5565
Au 15.3747 29.797 10.5964
Au 15.0138 31.1441 8.0133
Au 14.7448 32.3546 5.49724
Au 20.3619 19.248 40.5076
Au 20.1351 20.0602 37.9556
Au 19.6857 21.3243 35.3174
Au 19.227 22.6139 32.8475
Au 18.9219 23.8269 30.0621
Au 18.7739 24.9456 27.3416
Au 18.7234 26.2346 24.837
Au 18.0399 27.4105 22.2065
Au 17.903 28.6069 19.572
Au 17.7686 29.8533 16.9858
Au 17.4017 30.8943 14.2312
Au 17.2263 32.0675 11.5341
Au 16.807 33.3507 8.97347
Au 16.4303 34.274 6.51953
Au 22.9176 18.6781 39.9976
Au 22.7147 19.7712 37.3835
Au 22.5187 20.6912 34.5556
Au 22.0335 21.8513 31.9413
Au 21.7384 23.0842 29.3021
Au 21.5477 24.3197 26.8302
Au 21.3389 25.4788 23.972
Au 20.9338 26.5651 21.3863
Au 20.5965 27.7268 18.7667
Au 20.264 29.0729 16.0365
Au 20.0131 30.2659 13.5049
Au 19.9563 31.3751 11.0672
Au 19.6412 32.6813 8.19846
Au 19.5429 33.5163 5.7446
Au 25.6825 17.6542 39.4542
Au 25.5967 18.925 36.8982
Au 25.2005 20.0421 34.1871
Au 24.7886 21.0671 31.4541
Au 24.559 22.2895 28.9965
Au 24.035 23.4844 26.2124
Au 23.7961 24.5605 23.6719
Au 23.5141 25.6495 20.7399
Au 23.4037 26.9585 18.2825
Au 22.9098 28.1893 15.6578
Au 22.6731 29.5489 13.038
Au 22.569 30.6335 10.3187
Au 22.2802 31.7575 7.75311
Au 22.1681 32.7933 5.06715
Au 28.4259 17.0497 38.7352
Au 28.3246 17.9377 36.3269
Au 27.6514 19.152 33.2671
Au 27.451 20.1394 30.5508
Au 27.1998 21.4974 28.2816
Au 26.8017 22.6872 25.4722
Au 26.5037 24.0275 22.7783
Au 26.2475 25.0614 20.2449
Au 26.1302 26.16 17.6113
Au 25.6265 27.3269 14.7917
Au 25.3479 28.7581 12.3478
Au 25.1385 29.8304 9.712
Au 25.0721 30.8015 7.13054
Au 24.7652 31.9479 4.278
Au 28.2292 14.1978 37.4656
Au 28.006 15.3139 34.8422
Au 27.7508 16.6051 32.0838
Au 27.5236 17.5648 29.4811
Au 27.1832 18.8774 26.8917
Au 26.7711 20.0809 24.3354
Au 26.471 21.294 21.7126
Au 26.2938 22.5082 19.0955
Au 26.0773 23.5745 16.3364
Au 25.684 24.8381 13.9299
Au 25.4707 26.0699 11.2201
Au 25.3086 27.218 8.50469
Au 25.1391 28.3436 5.75232
Au 24.586 29.5381 3.07453
Au 28.0737 11.5323 36.5795
Au 28.0967 12.6947 33.7496
Au 27.6928 13.7694 31.1639
Au 27.409 14.9143 28.4528
Au 27.0675 16.2354 25.7815
Au 26.9212 17.3289 23.2701
Au 26.4746 18.6764 20.8101
Au 25.9892 19.9759 17.9094
Au 25.7467 21.0366 15.281
Au 25.6824 22.2271 12.5177
Au 25.6152 23.3758 9.88793
Au 25.1759 24.5558 7.14579
Au 24.9419 25.7566 4.53879
Au 24.6208 26.9264 1.95547
Au 27.8173 8.91272 35.2261
Au 27.6998 9.88231 32.687
Au 27.6419 11.1709 29.88
Au 27.1512 12.2675 27.4408
Au 26.944 13.6238 24.7355
Au 26.8089 14.7848 22.0119
Au 26.5289 15.8798 19.5268
Au 26.0551 17.1983 16.8991
Au 25.7182 18.3956 14.1846
Au 25.6719 19.3851 11.4192
Au 25.3718 20.5025 8.62018
Au 24.9596 21.8303 5.92916
Au 24.7756 23.1944 3.51229
Au 24.5932 24.2339 1.03596
Au 25.1843 7.84595 35.1584
Au 25.0591 9.07668 32.5777
Au 24.8238 10.3512 29.922
Au 24.568 11.3861 27.1037
Au 24.2944 12.6798 24.4824
Au 23.9558 13.7807 21.9511
Au 23.6007 15.1011 19.3129
Au 23.2963 16.3069 16.5755
Au 23.0599 17.3841 13.8438
Au 22.6932 18.4866 11.2164
Au 22.6017 19.8447 8.57624
Au 22.4093 20.7647 5.91102
Au 21.8175 22.1098 3.44845
Au 21.8306 23.5426 0.745387
Au 22.4336 7.0432 34.9091
Au 22.3845 8.29274 32.5948
Au 22.1848 9.39175 29.767
Au 21.7429 10.7052 27.2819
Au 21.2905 11.652 24.4697
Au 21.2017 12.9565 21.756
Au 20.8327 14.258 19.1144
Au 20.5506 15.4573 16.4849
Au 20.41 16.5985 13.8256
Au 20.1141 17.5929 11.187
Au 19.6662 18.8948 8.47078
Au 19.6765 20.2716 5.84275
Au 19.297 21.294 3.1821
Au 18.929 22.5989 0.528502
Au 19.3209 6.54561 34.6981
Au 19.5015 7.68688 32.3014
Au 19.2322 8.65925 29.8513
Au 18.9127 9.7856 27.0637
Au 18.6852 11.0222 24.5855
Au 18.4832 11.999 21.7803
Au 18.0709 13.2637 18.9601
Au 17.8514 14.4135 16.3868
Au 17.6428 15.6955 13.8592
Au 17.2208 16.9469 11.0754
Au 16.948 17.8352 8.49121
Au 16.7178 19.2455 5.93301
Au 16.1648 20.3859 3.08061
Au 15.9016 21.6688 0.679335
Au 17.8793 8.43917 36.1422
Au 17.8042 9.48941 33.6287
Au 17.5326 10.8439 30.7847
Au 17.3092 11.976 28.0389
Au 17.0009 13.1841 25.568
Au 16.8346 14.0447 22.8378
Au 16.4586 15.5211 20.0949
Au 16.1215 16.6099 17.5523
Au 16.0134 17.8413 14.9584
Au 15.5877 19.141 12.3047
Au 15.3033 20.1675 9.60778
Au 15.0719 21.3095 7.01247
Au 14.6827 22.6596 4.42851
Au 14.3791 23.8601 1.74183
Au 16.5875 10.7804 37.375
Au 16.1816 11.7148 34.5661
Au 15.8589 12.8205 32.0078
Au 15.7239 14.0142 29.2834
Au 15.466 15.1685 26.8561
Au 15.0642 16.3199 23.7747
Au 14.8621 17.5393 21.2348
Au 14.6216 18.6946 18.6555
Au 14.2023 19.8502 16.1114
Au 13.993 21.1524 13.2935
Au 13.7039 22.4402 10.6287
Au 13.4233 23.4271 7.95303
Au 12.9724 24.8388 5.38276
Au 12.6128 25.8015 2.85057
Au 12.3229 13.3955 37.0348
Au 11.9156 14.5189 34.505
Au 11.7028 15.6093 31.8194
Au 11.4986 16.7177 29.1367
Au 11.1623 17.8496 26.4989
Au 10.9587 19.0076 23.6941
Au 10.6668 20.1791 21.0429
Au 10.4407 21.3803 18.5116
Au 10.0196 22.607 16.0833
Au 9.71354 23.8766 13.3059
Au 9.61607 25.0909 10.704
Au 9.20127 26.3161 8.22083
Au 8.92923 27.2947 5.69125
Au 14.1085 15.5282 38.0871
Au 13.6946 16.6933 35.356
Au 13.4361 17.8105 32.5525
Au 13.1208 18.9286 29.9647
Au 12.9239 19.9993 27.2711
Au 12.6157 21.3531 24.7287
Au 12.3914 22.2047 22.1223
Au 12.0751 23.6363 19.572
Au 11.9162 24.8929 16.7757
Au 11.5511 26.1911 14.3165
Au 11.2765 27.2808 11.5859
Au 10.8757 28.3687 8.94776
Au 10.569 29.3564 6.37066
Au 15.7501 17.8364 39.0474
Au 15.6083 18.5131 36.3015
Au 15.2753 19.9175 33.4951
Au 14.7666 21.1275 30.7534
Au 14.5672 22.2226 28.1661
Au 14.3927 23.4143 25.4743
Au 13.9708 24.6742 22.8924
Au 13.9348 25.7583 20.2634
Au 13.3791 27.0448 17.6311
Au 13.2983 28.2648 14.8608
Au 13.0551 29.4107 12.2267
Au 12.5873 30.532 9.80173
Au 12.3256 31.3829 7.14762
Au 17.6842 19.8484 39.3477
Au 17.3253 20.855 36.8446
Au 17.017 22.0744 34.3646
Au 16.6579 23.2574 31.5233
Au 16.356 24.1676 28.9156
Au 16.1996 25.5705 26.353
Au 15.7613 26.6565 23.961
Au 15.6129 27.9307 21.148
Au 15.3654 29.0656 18.4196
Au 15.0048 30.3774 15.6932
Au 14.8371 31.3754 12.9964
Au 14.5036 32.4595 10.3146
Au 13.9961 33.8014 7.79415
Au 19.2935 21.6825 40.0899
Au 19.0844 22.6934 37.6019
Au 18.7585 24.155 34.9898
Au 18.4315 25.2272 32.4172
Au 18.0612 26.5565 29.7091
Au 17.7884 27.6468 27.2212
Au 17.6476 28.8399 24.5957
Au 17.1619 30.084 21.9152
Au 17.0713 31.2283 19.3057
Au 16.6166 32.3071 16.625
Au 16.5596 33.5939 14.1449
Au 16.3258 34.8063 11.3361
Au 16.0743 35.8796 8.8157
Au 22.1184 21.3119 39.7198
Au 21.7185 22.2453 37.1915
Au 21.6089 23.3612 34.2628
Au 21.1187 24.5688 31.9262
Au 20.7798 25.7137 29.2397
Au 20.6044 26.9894 26.5526
Au 20.3514 28.3852 23.8945
Au 20.0212 29.2561 21.2874
Au 19.8545 30.4052 18.6631
Au 19.7085 31.7854 16.054
Au 19.2874 32.8605 13.3777
Au 19.1132 34.0129 10.6665
Au 18.6196 35.2297 8.18021
Au 24.7468 20.4098 39.2159
Au 24.5969 21.5474 36.5317
Au 24.3236 22.6712 33.5798
Au 23.7868 23.7718 31.1949
Au 23.6005 25.0345 28.5433
Au 23.2467 26.2794 25.8519
Au 22.9426 27.4319 23.1371
Au 22.7821 28.5973 20.653
Au 22.3639 29.6935 18.0562
Au 22.2419 30.9739 15.3632
Au 22.1639 32.237 12.7936
Au 21.7671 33.4016 9.96814
Au 21.6065 34.5679 7.35769
Au 27.5797 19.8738 38.4586
Au 27.3871 20.6874 35.8499
Au 27.0618 21.8429 33.2405
Au 26.5285 23.031 30.6287
Au 26.097 24.2581 27.7974
Au 25.9972 25.4465 25.1952
Au 25.4979 26.6622 22.5831
Au 25.449 27.8081 19.8876
Au 25.0934 28.9478 17.1793
Au 24.7773 30.1641 14.7427
Au 24.7273 31.4279 11.8868
Au 24.5016 32.5923 9.4771
Au 24.3397 33.4224 6.73522
Au 30.3515 18.787 37.6622
Au 30.1342 19.9607 34.9681
Au 29.6695 21.0735 32.4711
Au 29.2988 22.2838 29.7909
Au 28.8957 23.4734 27.0468
Au 28.5944 24.5594 24.5368
Au 28.3631 25.9166 22.1087
Au 28.1714 27.0241 19.3616
Au 27.6599 28.1187 16.6326
Au 27.5747 29.3565 13.9439
Au 27.3008 30.7424 11.3462
Au 27.0993 31.6123 8.72548
Au 26.7957 32.5752 6.1033
Au 30.0939 15.9637 36.4538
Au 29.7139 17.2521 34.0229
Au 29.8992 18.2442 31.2688
Au 29.4409 19.5244 28.501
Au 28.8362 20.7451 25.9133
Au 28.7229 21.9809 23.4222
Au 28.5005 23.1171 20.8914
Au 28.1859 24.4661 18.2133
Au 27.8909 25.4746 15.5108
Au 27.5152 26.7135 12.868
Au 27.3376 28.0807 10.4201
Au 27.1742 28.9342 7.58018
Au 26.7556 30.2265 4.94749
Au 30.0493 13.3678 35.393
Au 29.8124 14.6555 32.8159
Au 29.6261 15.74 30.2218
Au 29.1955 16.9814 27.5001
Au 28.9593 18.1744 24.924
Au 28.7583 19.4098 22.2778
Au 28.1684 20.7141 19.6208
Au 28.1534 21.6434 16.9571
Au 27.8419 22.6793 14.2298
Au 27.5927 24.1639 11.5735
Au 27.3467 25.311 9.04476
Au 27.147 26.3664 6.30251
Au 26.8611 27.8314 3.75293
Au 29.7599 10.7357 34.2476
Au 29.8049 11.9573 31.5916
Au 29.5183 13.1197 28.9616
Au 29.3317 14.3159 26.2698
Au 28.9959 15.6343 23.528
Au 28.61 16.8162 20.9783
Au 28.135 18.2003 18.4772
Au 27.8187 19.1603 15.9403
Au 27.6797 20.2322 13.0998
Au 27.4478 21.4158 10.5545
Au 27.3095 22.4865 7.73001
Au 27.1703 23.5744 5.18351
Au 26.8004 24.9711 2.78474
Au 29.7576 8.03015 33.0164
Au 29.6614 9.2534 30.6713
Au 29.1793 10.4654 27.7871
Au 29.0675 11.6501 25.1947
Au 28.7101 12.9867 22.652
Au 28.492 13.996 19.7497
Au 28.0319 15.2358 17.3212
Au 27.8067 16.4906 14.7723
Au 27.5765 17.5107 12.1088
Au 27.5017 18.5793 9.43859
Au 27.2789 19.8374 6.7566
Au 26.8108 20.9276 3.89352
Au 26.5084 22.3364 1.61199
Au 27.122 7.12905 33.1901
Au 26.9321 8.36093 30.6062
Au 26.5596 9.47944 27.7083
Au 26.5154 10.8294 25.0992
Au 26.0257 12.0682 22.394
Au 25.8329 13.3244 19.7967
Au 25.3096 14.5342 17.2621
Au 25.2331 15.6298 14.5886
Au 24.9218 16.8051 11.921
Au 24.6359 17.6623 9.06019
Au 24.5546 19.0088 6.44569
Au 24.0437 20.1814 3.61034
Au 23.8034 21.5766 1.36762
Au 24.3206 6.35936 32.9459
Au 24.0057 7.47104 30.4865
Au 23.7923 8.67688 27.6152
Au 23.5881 9.93518 25.0957
Au 23.4098 11.1854 22.3265
Au 22.9936 12.4033 19.7386
Au 22.6571 13.5286 17.1212
Au 22.4291 14.4476 14.4037
Au 22.2775 15.6438 11.7001
Au 21.74 17.2006 8.77835
Au 21.629 18.1423 6.33677
Au 21.2695 19.2349 3.6514
Au 20.9423 20.7337 1.05845
Au 21.1824 5.52646 32.8179
Au 21.2969 6.61409 30.221
Au 21.0123 7.84304 27.6043
Au 20.7756 8.92148 25.1527
Au 20.6057 10.2448 22.1782
Au 20.0048 11.5676 19.4562
Au 19.9203 12.5988 16.7912
Au 19.7183 13.8664 14.3111
Au 19.3087 14.9788 11.7674
Au 19.1021 16.0222 8.95643
Au 18.9499 17.4182 6.18415
Au 18.6707 18.6645 3.68991
Au 17.9482 19.8973 1.07355
Au 18.6349 5.00586 32.8317
Au 18.4715 6.00654 30.3054
Au 18.1819 7.0555 27.5554
Au 18.0233 8.33801 24.8728
Au 17.636 9.69233 22.1834
Au 17.3695 10.4954 19.4874
Au 17.1909 11.702 16.7818
Au 16.8923 13.027 14.1876
Au 16.5725 14.2538 11.5578
Au 16.4257 15.2924 8.98936
Au 16.0572 16.2574 6.31298
Au 15.6297 17.7286 3.80128
Au 15.2817 18.8646 1.03933
Au 16.8361 6.97064 33.8714
Au 16.7172 7.90432 31.2068
Au 16.5865 9.22836 28.7758
Au 16.2619 10.2819 26.0623
Au 16.0545 11.5316 23.5825
Au 15.8232 12.628 20.5442
Au 15.5796 13.9219 17.9505
Au 15.201 15.1696 15.2476
Au 14.8985 16.2657 12.6842
Au 14.6965 17.5107 9.99411
Au 14.5244 18.4573 7.48274
Au 14.1183 19.89 4.84907
Au 13.7203 21.0129 2.18662
Au 15.4097 9.25254 35.07
Au 15.3462 10.0394 32.4324
Au 14.9822 11.4672 29.707
Au 14.6491 12.3188 26.8323
Au 14.4089 13.7347 24.3772
Au 14.1444 14.7363 21.6196
Au 13.6977 15.8615 19.1058
Au 13.5386 17.0434 16.5527
Au 13.3802 18.4376 13.8904
Au 13.0746 19.533 11.1487
Au 12.8768 20.6277 8.39731
Au 12.4356 22.019 5.71505
Au 12.2103 22.9564 3.23505
Au 13.7867 11.2253 36.1602
Au 13.4654 12.2255 33.4314
Au 13.3107 13.4931 30.746
Au 13.0463 14.4835 28.1992
Au 12.6584 15.7714 25.48
Au 12.6118 16.9113 22.7773
Au 12.2915 17.9543 20.0977
Au 11.8838 18.9482 17.5546
Au 11.7102 20.481 14.9563
Au 11.4218 21.609 12.1696
Au 11.071 22.8153 9.61045
Au 10.6368 24.1569 7.03093
Au 10.2639 25.3127 4.39181
Au 9.76592 13.8701 35.9702
Au 9.38317 14.8502 33.4285
Au 9.21599 16.1231 30.6716
Au 8.84519 17.3511 28.1509
Au 8.63011 18.5808 25.5008
Au 8.41252 19.556 22.8334
Au 8.16975 20.6191 20.2735
Au 7.66987 22.0753 17.5575
Au 7.54412 23.1396 14.9207
Au 7.23949 24.3499 12.4398
Au 6.95992 25.5069 9.75078
Au 6.49934 26.7036 7.44973
Au 11.4889 15.9788 37.0983
Au 11.2165 17.1544 34.2148
Au 10.9 18.3108 31.5249
Au 10.516 19.5487 28.8285
Au 10.3603 20.3869 26.0863
Au 9.96182 21.6816 23.5305
Au 9.76789 23.015 20.9938
Au 9.38297 24.1169 18.5272
Au 9.29505 25.4764 15.8671
Au 8.98853 26.4774 13.0524
Au 8.60056 27.9445 10.4648
Au 8.24265 29.0895 7.90762
Au 13.1312 18.2525 37.6716
Au 13.0187 19.3805 35.0995
Au 12.7536 20.4793 32.4599
Au 12.2826 21.6798 29.6563
Au 11.9067 22.786 27.0207
Au 11.8081 24.0335 24.5843
Au 11.542 25.1316 21.7947
Au 11.2675 26.2664 19.291
Au 10.9833 27.7276 16.4734
Au 10.6272 28.7765 13.9731
Au 10.4209 29.9616 11.3727
Au 9.81466 30.9615 8.90423
Au 14.9221 20.2253 38.573
Au 14.5924 21.391 35.8871
Au 14.3942 22.5505 33.1195
Au 14.1368 23.9342 30.5339
Au 13.7296 24.9171 27.9519
Au 13.5309 26.2876 25.3725
Au 13.2148 27.2337 22.6416
Au 12.9147 28.39 20.1046
Au 12.642 29.7642 17.3415
Au 12.4309 30.9212 14.5646
Au 12.1475 32.088 12.0792
Au 12.0068 33.2408 9.46581
Au 16.5538 22.4407 39.1072
Au 16.4486 23.6679 36.5081
Au 16.0152 24.7291 33.9533
Au 15.7756 25.963 31.3348
Au 15.3244 27.1456 28.6673
Au 15.2079 28.3012 26.1944
Au 15.0555 29.4267 23.4194
Au 14.5949 30.5302 20.8979
Au 14.4651 31.7405 18.37
Au 14.0991 33.095 15.3119
Au 14.0699 34.1234 12.7115
Au 13.759 35.2887 10.3329
Au 18.6605 24.4502 39.824
Au 18.1193 25.5719 37.5174
Au 17.9741 26.6804 34.662
Au 17.6726 27.8472 32.074
Au 17.2923 29.1692 29.3412
Au 16.9826 30.3915 26.7843
Au 16.8658 31.6635 24.2454
Au 16.4425 32.8423 21.6304
Au 16.2746 33.9482 19.1002
Au 15.861 35.1643 16.377
Au 15.8718 36.2465 13.8561
Au 15.377 37.4123 11.214
Au 21.3603 23.991 39.3404
Au 20.9114 24.867 36.7944
Au 20.6798 26.1156 34.1525
Au 20.4878 27.2602 31.4169
Au 20.0616 28.4845 28.9442
Au 19.8355 29.7308 26.3164
Au 19.4999 30.9948 23.7007
Au 19.1633 32.011 21.1411
Au 18.8741 33.156 18.4288
Au 18.5706 34.4233 15.6324
Au 18.4994 35.5386 13.0118
Au 18.2985 36.6376 10.4195
Au 23.9074 23.1397 38.9433
Au 23.502 24.1403 36.26
Au 23.3222 25.335 33.4533
Au 23.1914 26.5242 30.8908
Au 22.7512 27.7911 28.3282
Au 22.5024 28.9817 25.6088
Au 22.1709 30.1948 23.0772
Au 21.8635 31.2676 20.4264
Au 21.6494 32.496 17.9294
Au 21.3481 33.7696 15.1524
Au 21.0774 34.8396 12.4508
Au 20.8106 36.2351 9.70942
Au 26.7376 22.202 38.1659
Au 26.3654 23.2854 35.4704
Au 26.1139 24.7185 32.8291
Au 25.839 25.7942 30.2594
Au 25.4561 27.152 27.4749
Au 25.1906 28.2206 24.948
Au 24.7731 29.3643 22.2821
Au 24.6033 30.4616 19.7093
Au 24.2586 31.5913 17.1122
Au 24.0966 32.8819 14.5021
Au 23.7077 34.1756 11.871
Au 23.6532 35.2793 8.95425
Au 29.5946 21.4716 37.2722
Au 29.0746 22.7728 34.9192
Au 28.7685 23.7486 32.2622
Au 28.2929 24.983 29.2973
Au 28.0263 26.1674 26.8186
Au 27.8743 27.6069 24.3365
Au 27.4283 28.7188 21.7269
Au 27.3483 29.861 19.1086
Au 27.0376 30.8749 16.5184
Au 26.7899 32.0224 13.9326
Au 26.7123 33.4716 11.0395
Au 26.2586 34.3925 8.46102
Au 32.1311 20.6034 36.7154
Au 31.8712 21.8897 34.1966
Au 31.5201 23.0304 31.3675
Au 31.1784 24.2615 28.9357
Au 30.7103 25.388 26.312
Au 30.4766 26.6233 23.6603
Au 30.2793 27.6903 21.1689
Au 29.95 28.9295 18.6165
Au 29.7768 29.966 15.9265
Au 29.39 31.1382 13.2414
Au 29.2003 32.4357 10.5941
Au 29.0225 33.6666 7.88865
Au 31.9454 18.1098 35.4526
Au 31.8928 18.9967 32.9681
Au 31.4055 20.2864 30.2322
Au 30.9971 21.6631 27.6045
Au 30.8198 22.8789 24.9819
Au 30.4758 24.0347 22.5955
Au 30.16 25.1011 20.0075
Au 30.036 26.3743 17.1393
Au 29.7658 27.5068 14.6282
Au 29.527 28.5838 11.9425
Au 29.2107 29.901 9.31605
Au 28.9362 30.8811 6.64509
Au 31.9549 15.3208 34.5754
Au 31.9064 16.4696 31.8934
Au 31.5021 17.4753 29.0321
Au 31.2857 18.784 26.6488
Au 30.8513 20.0213 24.0525
Au 30.6753 21.2464 21.18
Au 30.2807 22.5684 18.7964
Au 30.0297 23.6172 16.1146
Au 29.6238 24.9377 13.5274
Au 29.3749 26.0628 10.7147
Au 29.2178 27.1837 8.18947
Au 28.9995 28.2875 5.51659
Au 31.6649 12.5955 33.3581
Au 31.7056 13.8661 30.8474
Au 31.5064 15.0256 28.0055
Au 31.0483 16.2392 25.358
Au 30.9003 17.5929 22.6415
Au 30.5115 18.5274 20.1018
Au 30.332 19.7603 17.5901
Au 29.881 20.9933 15.0135
Au 29.6237 21.9778 12.2312
Au 29.3339 23.3045 9.53278
Au 29.0987 24.4619 6.88287
Au 28.8209 25.6808 4.17526
Au 31.8521 10.1015 32.4268
Au 31.5064 11.3259 29.7069
Au 31.2165 12.2727 26.9894
Au 30.8186 13.5884 24.166
Au 30.7542 14.9714 21.5788
Au 30.3785 16.0683 18.9928
Au 29.9504 17.1307 16.6005
Au 29.7327 18.4222 13.9332
Au 29.4423 19.4436 11.1753
Au 29.3098 20.5787 8.51924
Au 28.9448 21.6875 5.70632
Au 28.9036 22.8404 3.1422
Au 31.575 7.45423 30.8678
Au 31.3361 8.74052 28.4422
Au 31.0403 9.78611 25.703
Au 30.6787 10.8501 23.0554
Au 30.6402 12.187 20.5172
Au 30.2044 13.3988 17.7586
Au 29.8558 14.6054 15.3451
Au 29.7267 15.6343 12.6654
Au 29.4382 16.6097 10.0246
Au 29.1649 17.8728 7.36581
Au 28.8058 18.8005 4.60375
Au 28.7809 20.0485 2.05376
Au 28.9703 6.21507 30.9035
Au 28.6381 7.48295 28.4991
Au 28.4069 8.65539 25.6938
Au 28.074 10.2572 22.831
Au 27.7933 11.3057 20.361
Au 27.5035 12.4183 17.6502
Au 27.1315 13.5759 15.1195
Au 26.9677 14.709 12.5682
Au 26.789 15.8915 9.85182
Au 26.6641 16.9931 7.05215
Au 26.1586 18.2463 4.43711
Au 25.885 19.3952 1.74417
Au 26.072 5.61742 30.9839
Au 25.7645 6.84813 28.3352
Au 25.6554 8.11712 25.3264
Au 25.3712 9.28237 22.8204
Au 24.9867 10.3739 20.1863
Au 24.7212 11.6185 17.4793
Au 24.4921 12.6553 14.9372
Au 24.3851 14.0442 12.5898
Au 23.9251 15.2643 9.62185
Au 23.715 16.3159 6.84833
Au 23.4768 17.4382 4.17413
Au 23.1215 18.7376 1.58792
Au 23.1083 4.78368 30.7242
Au 23.1976 6.04732 28.0454
Au 22.816 7.29256 25.3342
Au 22.7337 8.43929 22.6729
Au 22.2058 9.62096 20.0661
Au 21.8518 10.7562 17.4864
Au 21.8188 11.73 14.8919
Au 21.4906 13.1301 12.3986
Au 21.3695 14.3534 9.41735
Au 20.8589 15.3767 6.90545
Au 20.6184 16.5966 4.05715
Au 20.3589 17.8883 1.44791
Au 20.3899 3.9217 30.7198
Au 20.2273 5.16621 28.3054
Au 19.9995 6.30068 25.3555
Au 19.8724 7.75885 22.7483
Au 19.4423 8.80987 19.8681
Au 19.1744 9.87287 17.2641
Au 18.9921 10.9855 14.7132
Au 18.7235 12.2184 12.163
Au 18.5993 13.3187 9.54156
Au 18.2657 14.4381 6.82412
Au 17.7234 15.7441 4.15711
Au 17.5721 17.0377 1.86019
Au 17.5842 3.35385 30.2604
Au 17.3763 4.53447 27.9143
Au 17.2108 5.72537 25.0915
Au 17.1727 6.92777 22.5417
Au 16.8335 7.90349 19.8885
Au 16.591 9.09612 17.1383
Au 16.1325 10.3258 14.6063
Au 15.8155 11.3079 12.0285
Au 15.9085 12.5596 9.4062
Au 15.3466 13.5529 6.66847
Au 14.9726 14.9956 4.2011
Au 14.9503 16.1475 1.67158
Au 16.2086 5.25159 31.7058
Au 15.7923 6.37739 29.0916
Au 15.5332 7.69009 26.4877
Au 15.5195 8.75635 23.7873
Au 14.9906 9.99095 21.0401
Au 14.624 11.0075 18.3345
Au 14.4775 12.2207 15.837
Au 14.3955 13.3924 13.2117
Au 14.1494 14.7364 10.4721
Au 13.562 15.8017 7.92222
Au 13.2464 17.085 5.27641
Au 13.3264 18.1736 2.68146
Au 14.3586 7.64507 32.5827
Au 14.1676 8.82848 30.1759
Au 13.7401 9.73971 27.5366
Au 13.54 11.0052 24.7062
Au 13.4888 12.2719 22.1332
Au 13.1184 13.0594 19.396
Au 12.8946 14.3727 16.7762
Au 12.597 15.6272 14.3288
Au 12.2342 16.9337 11.7875
Au 11.9726 18.0846 8.77822
Au 11.6961 19.3743 6.19687
Au 11.4089 20.4258 3.6217
Au 12.9276 9.66229 33.8677
Au 12.6741 10.8558 31.1588
Au 12.2129 11.779 28.569
Au 12.0934 13.0906 25.9067
Au 11.6642 14.1251 23.228
Au 11.479 15.3056 20.5705
Au 11.0908 16.3001 18.1233
Au 10.817 17.6924 15.3463
Au 10.8333 18.8829 12.7786
Au 10.535 20.0352 10.1452
Au 10.1223 21.2653 7.39876
Au 9.80051 22.5648 4.75367
Au 11.1905 11.9369 34.8777
Au 11.0278 12.8012 32.3536
Au 10.6182 14.1306 29.6622
Au 10.4726 15.1371 26.9178
Au 10.1938 16.2642 24.1292
Au 9.84731 17.4437 21.5923
Au 9.61473 18.4228 18.9735
Au 9.46879 19.8244 16.5092
Au 9.19117 21.1907 13.8091
Au 8.74198 22.407 11.2939
Au 8.39092 23.4815 8.58952
Au 8.05499 24.6282 6.11598
Au 7.20805 14.1856 34.8141
Au 6.80865 15.4889 32.1895
Au 6.47266 16.6484 29.6619
Au 6.22734 17.9913 26.9719
Au 5.98128 19.0043 24.4132
Au 5.71032 20.1805 21.8465
Au 5.34694 21.4491 19.2528
Au 5.26713 22.5834 16.8062
Au 4.9482 23.7078 14.0173
Au 4.59228 24.9426 11.2913
Au 4.32581 26.1293 8.92834
Au 9.081 16.4587 35.5552
Au 8.5555 17.5618 33.1183
Au 8.2086 18.9678 30.4073
Au 7.98513 20.2026 27.7084
Au 7.63271 21.2816 25.0458
Au 7.3252 22.4491 22.4845
Au 7.09465 23.5478 19.9905
Au 6.99308 24.8268 17.2678
Au 6.63566 25.9359 14.6702
Au 6.24372 27.0729 12.1129
Au 5.96752 28.3958 9.52504
Au 10.7975 18.713 36.479
Au 10.4393 19.8807 33.9048
Au 9.95069 20.9856 31.2361
Au 9.73814 22.2595 28.5227
Au 9.43099 23.4044 26.0305
Au 9.31037 24.399 23.193
Au 8.74817 25.7794 20.7562
Au 8.74145 26.8489 18.202
Au 8.29368 28.0227 15.5901
Au 8.10974 29.1522 12.9395
Au 7.71521 30.4726 10.4934
Au 12.3758 20.7921 37.577
Au 11.9294 22.0937 35.0151
Au 11.8501 23.0759 31.9613
Au 11.3714 24.3921 29.477
Au 11.2106 25.5364 26.9311
Au 10.8817 26.496 24.1618
Au 10.6507 27.8108 21.4875
Au 10.3736 28.9845 19.0061
Au 9.8224 30.2999 16.3343
Au 9.72654 31.5507 13.697
Au 9.58874 32.6156 11.3101
Au 13.9095 22.9002 38.1158
Au 13.6909 24.1692 35.6365
Au 13.5574 25.3222 33.0496
Au 13.1025 26.4317 30.2043
Au 12.8379 27.7514 27.6857
Au 12.4753 28.8665 24.9423
Au 12.4655 29.8446 22.4459
Au 12.1281 31.078 19.6009
Au 11.8579 32.3872 16.9486
Au 11.5686 33.8052 14.3754
Au 11.3749 34.8145 11.9041
Au 15.8946 25.0169 38.8368
Au 15.6845 26.4101 36.2435
Au 15.1868 27.4005 33.5451
Au 14.7412 28.643 30.9823
Au 14.4854 29.9966 28.3969
Au 14.4565 30.927 25.7823
Au 14.2887 32.2211 23.2112
Au 13.8002 33.1528 20.6014
Au 13.5541 34.2742 17.8992
Au 13.1422 35.7171 15.3599
Au 13.3285 36.7189 12.9089
Au 17.7543 27.2175 39.819
Au 17.5064 28.3166 37.2334
Au 17.2005 29.448 34.3218
Au 16.8025 30.5637 31.8936
Au 16.5546 31.7948 29.0938
Au 16.0391 33.1343 26.5837
Au 15.9336 34.2428 23.9502
Au 15.4955 35.4164 21.5518
Au 15.3652 36.5207 18.7055
Au 14.9946 37.8357 16.0519
Au 15.0879 38.8732 13.6775
Au 20.3322 26.6333 38.9405
Au 20.04 27.507 36.3562
Au 19.9116 28.853 33.675
Au 19.4686 30.1369 31.2077
Au 19.2438 31.1647 28.5555
Au 19.0307 32.5775 26.0656
Au 18.6683 33.6807 23.2274
Au 18.4597 34.7887 20.7833
Au 17.9331 35.8374 18.1942
Au 17.8649 37.2089 15.4001
Au 17.6245 38.1992 12.7116
Au 23.0937 25.9326 38.3379
Au 23.0339 27.088 35.7477
Au 22.6833 28.2194 33.1187
Au 22.2476 29.4487 30.5708
Au 22.034 30.6995 28.1415
Au 21.8296 31.7795 25.4559
Au 21.5544 32.8784 22.7859
Au 20.9805 34.0555 20.2775
Au 20.6445 34.9865 17.5382
Au 20.4812 36.4898 14.9158
Au 20.287 37.4893 12.1018
Au 25.7273 24.8544 37.59
Au 25.5154 26.2026 35.2095
Au 25.4087 27.4413 32.4971
Au 24.9089 28.67 30.0383
Au 24.5851 29.8603 27.4903
Au 24.2647 30.8677 24.9303