20
 Atoms. Timestep: 50000
Au 21.497 21.2489 17.9793
Au 20.6359 16.4895 19.5815
Au 18.3789 17.7626 20.4559
Au 17.784 20.3966 20.4556
Au 21.9922 19.9991 22.3766
Au 20.2001 24.1315 21.4841
Au 23.0025 20.7169 19.983
Au 22.5842 22.6195 21.602
Au 20.4521 19.2354 19.8948
Au 20.5477 17.4922 22.0517
Au 18.5751 23.1219 19.6601
Au 22.6985 17.9941 20.5437
Au 20.3579 21.5879 20.6214
Au 18.1303 22.4876 22.1691
Au 19.0782 20.5573 18.0528
Au 22.0096 18.7687 18.0427
Au 20.4082 22.0376 23.2861
Au 21.2051 23.537 19.1359
Au 19.1313 17.9213 18.0658
Au 19.2313 19.7944 22.4579
