2057
 Atoms. Timestep: 50000
Au 20.3842 20.3335 20.3157
Au 22.995 21.3419 20.585
Au 20.5973 22.8091 21.4105
Au 20.2907 17.8768 19.3322
Au 17.9617 19.5068 20.3062
Au 20.9294 22.2268 18.5444
Au 21.5572 20.5747 22.7798
Au 19.4237 20.303 17.8184
Au 19.92 18.2614 22.0203
Au 22.2036 19.6594 18.3555
Au 22.527 18.5941 20.9836
Au 18.4166 22.2396 19.8398
Au 18.7646 21.0179 22.6386
Au 25.4655 22.3712 20.76
Au 20.9551 25.4024 22.4628
Au 19.863 15.3594 18.2884
Au 15.436 18.5088 20.1882
Au 21.6291 24.3132 16.8441
Au 22.7185 20.5638 25.3245
Au 18.0823 20.0379 15.4269
Au 18.9741 16.5038 23.7982
Au 23.7751 19.1476 16.2552
Au 24.2841 16.6859 21.4984
Au 16.3887 24.0737 19.2054
Au 17.0836 21.7018 24.5671
Au 23.2111 23.8255 21.7474
Au 23.5609 23.2231 18.8761
Au 21.2518 24.9332 19.7067
Au 24.1222 21.3999 23.2528
Au 21.7353 22.9644 23.9807
Au 24.6954 20.6815 18.5216
Au 22.5963 21.7116 16.4422
Au 25.0573 19.4651 21.1742
Au 23.5647 18.6339 23.4603
Au 24.3208 17.7415 18.8622
Au 18.5843 24.6089 20.9799
Au 19.0176 24.2587 18.0996
Au 19.0691 23.6092 23.4982
Au 19.8094 21.0456 25.0992
Au 16.5887 23.0043 21.9629
Au 17.5075 16.9876 19.2201
Au 19.0705 17.7341 16.8725
Au 16.7697 19.3811 17.7384
Au 19.4914 15.7712 21.055
Au 17.1289 17.4354 21.9297
Au 21.9014 17.1161 17.1838
Au 20.9896 19.5769 15.7772
Au 22.1884 15.9952 19.8913
Au 21.7792 16.4587 22.8729
Au 15.898 21.0955 19.6701
Au 17.3083 22.1794 17.2853
Au 16.1027 20.1804 22.3272
Au 17.8866 18.9473 24.0764
Au 19.9841 22.2897 15.9194
Au 20.8877 18.5117 24.6165
Au 28.0455 23.2768 20.8476
Au 21.3086 27.8562 23.628
Au 19.5131 12.8804 17.2339
Au 12.8371 17.4742 19.846
Au 22.3852 26.3214 15.1312
Au 23.5627 20.7238 27.8603
Au 17.1283 20.0975 12.9909
Au 18.5426 14.4422 25.6035
Au 25.661 18.6455 14.2258
Au 26.2309 15.0488 22.2429
Au 14.4115 25.7705 18.8157
Au 15.3073 22.4609 26.6708
Au 25.6951 24.9119 21.8824
Au 23.6061 26.3763 22.8669
Au 26.1762 24.4355 19.0231
Au 24.1551 25.351 16.9826
Au 21.5702 27.3682 20.7467
Au 21.9951 26.9463 17.9627
Au 23.9878 25.817 19.8743
Au 26.6024 22.4831 23.3096
Au 25.3565 21.7246 25.6655
Au 22.1028 25.4975 25.1269
Au 22.7688 23.1694 26.4185
Au 24.3455 23.9856 24.3996
Au 27.3233 21.6542 18.6785
Au 26.429 20.1333 16.4731
Au 23.2158 23.8096 14.7202
Au 24.6228 21.2605 14.6313
Au 25.27 22.7568 16.8878
Au 27.627 20.5086 21.3105
Au 26.8902 17.8039 21.5813
Au 24.6808 18.8589 26.2816
Au 25.6174 16.9021 24.1162
Au 26.1181 19.6909 23.7601
Au 25.939 17.1577 16.6958
Au 26.1852 16.1435 19.3024
Au 26.6881 18.9373 19.0176
Au 18.8631 27.156 22.0096
Au 16.7097 26.6082 20.3572
Au 19.7279 26.3966 16.3481
Au 17.0016 26.1621 17.4951
Au 19.2018 26.8428 19.1872
Au 19.2422 26.1579 24.7253
Au 17.1259 24.2955 25.519
Au 20.8129 21.2961 27.5752
Au 18.1551 21.8983 27.2319
Au 20.0036 23.6667 26.192
Au 14.6139 24.6785 21.3465
Au 14.8636 23.5238 23.9242
Au 16.9933 25.5769 22.9894
Au 17.2859 14.3615 17.9766
Au 15.066 16.0332 18.9201
Au 18.7236 15.1895 15.7507
Au 17.9669 17.5178 14.2691
Au 14.1212 18.2642 17.472
Au 15.6464 19.1139 15.1893
Au 16.4399 16.7798 16.614
Au 19.1468 13.2215 19.9051
Au 18.9626 13.7612 22.8155
Au 14.7335 16.2041 21.791
Au 16.5074 15.2988 23.6956
Au 16.9386 14.6195 20.8414
Au 21.5318 14.628 16.0719
Au 23.6194 16.5513 15.1093
Au 19.8171 19.368 13.2676
Au 22.6468 19.0185 13.7347
Au 20.7477 16.9043 14.7647
Au 21.9215 13.4663 18.6462
Au 24.3094 14.3223 20.33
Au 20.9918 14.3589 24.4802
Au 23.8021 14.6379 23.3176
Au 21.6396 13.9271 21.3736
Au 23.9316 15.1147 17.5418
Au 13.1905 20.1218 19.4538
Au 13.7497 22.8387 19.2558
Au 16.3014 22.0597 14.8182
Au 15.1822 23.8664 16.8046
Au 14.5621 21.0462 16.9195
Au 13.4518 19.2151 22.1586
Au 14.4995 20.8976 24.3262
Au 17.1618 16.8814 25.9332
Au 16.2089 19.8154 26.4295
Au 15.2309 17.9404 24.0318
Au 14 21.9489 21.7177
Au 20.521 24.4446 14.2241
Au 18.9056 22.1523 13.4833
Au 21.7372 21.6061 13.6899
Au 18.0014 24.2449 15.5678
Au 21.8088 18.4418 27.2114
Au 20.1607 16.4658 26.5096
Au 22.767 16.6013 25.345
Au 18.767 19.0289 26.6973
Au 30.5308 24.2512 20.9346
Au 21.5586 30.4142 24.7265
Au 19.2489 10.3819 16.0903
Au 10.175 16.6644 19.6982
Au 22.9864 28.2976 13.2899
Au 24.6507 20.9009 30.5164
Au 15.952 19.9221 10.3966
Au 17.9358 12.3641 27.2995
Au 27.2205 17.9019 12.1367
Au 28.3586 13.1776 22.7411
Au 12.493 27.6069 18.2836
Au 13.5676 22.9961 28.6795
Au 28.3068 25.9729 21.9951
Au 26.144 27.357 23.0233
Au 23.9692 29.0154 23.8645
Au 28.6955 25.3806 19.3541
Au 26.8338 26.4848 17.2693
Au 25.0241 27.4863 15.3435
Au 21.9691 29.9117 21.7378
Au 22.196 29.6197 18.9973
Au 22.5682 28.8405 16.1476
Au 26.5626 27.0817 20.0475
Au 24.2212 28.396 21.1346
Au 24.575 28.0105 18.2969
Au 29.3146 23.4223 23.2466
Au 27.9065 22.6444 25.8449
Au 26.3315 21.8405 28.1602
Au 22.3614 28.0407 26.1382
Au 23.3209 25.6912 27.4752
Au 24.0343 23.3406 29.0676
Au 27.0016 25.0034 24.4767
Au 24.8717 26.6142 25.3683
Au 25.6041 24.205 26.9453
Au 29.8418 22.5514 18.7824
Au 29.1405 20.9351 16.57
Au 28.228 19.369 14.5118
Au 24.2708 25.8011 13.0551
Au 25.0943 23.1253 12.7888
Au 26.1563 20.6218 12.4009
Au 27.9536 23.7239 16.849
Au 25.9809 24.6404 15.1174
Au 27.2656 22.2406 14.6948
Au 30.0943 21.3244 21.4278
Au 29.7068 18.6735 21.7126
Au 28.9294 15.8586 22.1333
Au 25.7423 18.9531 28.6861
Au 26.8429 17.0869 26.6012
Au 27.6182 15.1156 24.6683
Au 28.745 20.7743 23.9016
Au 27.4021 19.8642 26.2694
Au 28.2046 17.9691 23.95
Au 27.6213 16.5597 14.6404
Au 28.0103 15.2845 17.3513
Au 28.0976 14.1067 19.9051
Au 29.5557 19.7476 19.0706
Au 28.5486 18.1744 17.2116
Au 28.7892 16.8882 19.6713
Au 19.4412 29.8629 23.0982
Au 17.0606 29.1186 21.4377
Au 14.6626 28.2789 19.798
Au 20.3757 28.2219 14.473
Au 17.6241 28.0116 15.7967
Au 15.1144 27.8602 16.8877
Au 19.6063 29.4503 20.2656
Au 19.9104 28.9685 17.3028
Au 17.2372 28.8014 18.457
Au 19.543 28.89 25.6039
Au 17.656 26.8913 26.8848
Au 15.4272 25.1223 27.8214
Au 21.831 21.3948 30.0663
Au 19.1279 21.9165 29.6506
Au 16.4045 22.4162 29.1834
Au 20.3105 26.1651 27.3835
Au 21.3151 23.9888 28.7904
Au 18.3812 24.4302 28.2371
Au 12.5839 26.3998 20.9053
Au 13.0124 25.5296 23.4859
Au 13.3942 24.3582 26.0599
Au 17.3233 28.2452 24.0887
Au 14.7782 27.2232 22.591
Au 15.3384 26.2837 25.1823
Au 16.7591 11.783 16.9563
Au 14.666 13.5209 18.0116
Au 12.4198 14.9004 18.7931
Au 18.3671 12.8111 14.6267
Au 17.62 15.1465 13.0891
Au 16.8648 17.5899 11.7471
Au 11.544 17.2085 17.3808
Au 13.0541 18.0515 14.9565
Au 14.5858 19.1475 12.5988
Au 15.9955 14.3046 15.2774
Au 13.8552 15.7062 16.2529
Au 15.2501 16.5704 13.9728
Au 18.9045 10.7642 18.8022
Au 18.3902 11.2956 21.7072
Au 18.215 11.7684 24.5238
Au 12.0125 15.4251 21.6574
Au 13.9926 14.2823 23.5089
Au 15.8303 13.2518 25.4482
Au 16.5505 12.1247 19.8691
Au 14.1832 13.6667 20.7443
Au 16.1505 12.6253 22.5294
Au 21.4582 12.1613 15.0886
Au 23.3363 13.9589 13.7676
Au 25.3858 16.0217 13.0188
Au 18.8347 19.209 10.6815
Au 21.6776 18.9346 11.1239
Au 24.4455 18.4085 11.6308
Au 20.3322 14.5031 13.5014
Au 19.6437 16.7739 12.0898
Au 22.4701 16.2625 12.5623
Au 21.6565 11.014 17.6719
Au 23.9183 11.6342 19.2661
Au 26.1706 12.4393 21.1111
Au 20.56 12.2786 26.2515
Au 23.1037 12.5406 25.0177
Au 25.7918 12.8406 23.9712
Au 21.2963 11.3609 20.5298
Au 20.8263 11.7844 23.2623
Au 23.5655 11.8604 22.1104
Au 23.7058 12.6542 16.5231
Au 25.7958 14.6493 15.5337
Au 26.0201 13.393 18.2868
Au 10.4586 19.3361 19.2492
Au 11.0908 22.05 19.0583
Au 11.6909 25.0035 18.3611
Au 15.1525 21.8471 12.2395
Au 14.0394 23.6087 14.37
Au 13.4049 25.7872 16.1551
Au 11.9754 20.0411 16.9936
Au 13.5051 21.045 14.5129
Au 12.4639 22.9919 16.7024
Au 10.7867 18.235 21.8432
Au 11.778 19.853 24.2279
Au 12.6469 21.3321 26.3584
Au 16.553 14.893 27.5743
Au 15.5899 17.5504 28.0685
Au 14.3679 20.2768 28.4003
Au 12.7444 17.0686 23.7475
Au 14.5626 16.045 25.8059
Au 13.5782 18.6028 26.1642
Au 11.2717 21.0361 21.5879
Au 11.9144 23.7504 21.1335
Au 12.3099 22.6948 23.8812
Au 21.3773 26.3962 12.4435
Au 19.4015 24.2269 11.6629
Au 17.6774 21.9721 11.0452
Au 22.2157 23.8281 12.1555
Au 20.6261 21.6775 11.2659
Au 23.5048 21.1327 11.6207
Au 18.7156 26.2089 13.602
Au 16.8169 24.0166 13.0363
Au 15.8936 25.8679 14.7898
Au 23.0172 18.6085 29.7616
Au 21.1348 16.3697 29.0393
Au 19.4692 14.3813 28.2083
Au 23.9477 16.6967 27.7962
Au 22.0738 14.6152 26.998
Au 24.9473 14.9186 25.9207
Au 20.1363 19.2797 29.2364
Au 18.2382 17.0468 28.4939
Au 17.3049 19.77 28.922
Au 33.0154 25.3806 21.1408
Au 21.9021 32.8756 25.74
Au 19.0503 7.93205 14.9556
Au 7.33724 15.6852 19.5854
Au 23.7164 30.4621 11.8967
Au 25.6516 20.9491 33.0288
Au 14.9828 19.8659 7.75316
Au 17.1407 10.3054 28.9848
Au 28.8103 16.9812 10.1085
Au 30.4353 11.3956 23.2639
Au 10.2958 29.2243 17.4642
Au 11.9397 23.7634 30.7554
Au 30.9087 26.9586 22.2197
Au 28.5848 28.51 23.255
Au 26.4706 30.0234 24.1795
Au 24.2326 31.5659 24.8878
Au 31.0503 26.502 19.3825
Au 29.4142 27.4582 17.3693
Au 27.4973 28.5371 15.5941
Au 25.6722 29.6338 13.7481
Au 22.0303 32.5042 22.8999
Au 22.4192 32.0861 20.1707
Au 22.958 31.5293 17.2836
Au 23.1845 30.9823 14.5913
Au 29.1411 28.2307 20.4067
Au 26.6898 29.6157 21.045
Au 27.1693 29.1093 18.3639
Au 24.5618 31.1985 22.0562
Au 24.8843 30.6075 19.2733
Au 25.2155 29.9952 16.4308
Au 31.9329 24.5939 23.6471
Au 30.4547 23.6774 25.9467
Au 28.9641 22.733 28.4827
Au 27.1583 21.9019 30.8595
Au 22.755 30.6273 27.1775
Au 23.3741 28.0659 28.7942
Au 24.3362 25.9369 30.1126
Au 24.9593 23.4198 31.7197
Au 29.683 25.9727 24.5136
Au 27.3914 27.4932 25.4789
Au 28.1375 25.2477 27.1368
Au 24.9519 29.1714 26.6514
Au 25.9427 26.7894 27.9717
Au 26.637 24.3405 29.377
Au 32.321 23.7902 19.0941
Au 31.686 22.1146 16.7517
Au 30.8412 20.4176 14.3911
Au 30.0166 18.7479 12.3639
Au 24.8621 27.9545 11.3529
Au 25.8546 25.3445 10.8735
Au 27.0028 22.6898 10.5403
Au 28.1223 20.101 10.4465
Au 30.4993 24.8223 17.09
Au 28.7031 25.7275 14.965
Au 29.9075 23.217 14.5783
Au 26.806 26.9215 13.1635
Au 27.8819 24.3384 12.7844
Au 28.8593 21.5099 12.6813
Au 32.518 22.4967 21.7947
Au 32.3126 19.6792 22.1139
Au 31.7582 16.7114 22.4234
Au 31.0488 14.3031 23.0604
Au 26.8591 19.0625 31.1486
Au 27.8807 17.1861 29.229
Au 28.6071 15.2902 27.1506
Au 29.3648 13.2071 25.2908
Au 31.2901 21.5827 24.2799
Au 30.0387 20.8901 26.6628
Au 30.9468 18.8679 24.3271
Au 28.4306 20.0422 29.0168
Au 29.4914 18.1861 26.7848
Au 30.2008 16.2077 24.863
Au 29.3552 15.9935 12.7593
Au 29.7096 14.737 15.3432
Au 29.9648 13.4479 17.9293
Au 30.1506 12.3746 20.7803
Au 32.0536 20.8653 19.4188
Au 31.2546 19.0274 17.0433
Au 31.4237 18.0552 19.7381
Au 30.2556 17.5155 14.9915
Au 30.6922 16.1413 17.7167
Au 30.8315 15.0714 20.1737
Au 19.4006 32.2902 24.2108
Au 17.2468 31.6008 22.5522
Au 14.873 31.0247 20.9259
Au 12.4093 30.237 19.2521
Au 21.0465 30.4603 12.8704
Au 18.3761 30.0607 14.0715
Au 15.6936 29.902 15.1244
Au 13.1694 29.6911 16.3071
Au 19.7222 32.1903 21.2648
Au 20.0607 31.5694 18.319
Au 17.3302 31.31 19.656
Au 20.6195 31.0265 15.5285
Au 17.9015 30.819 16.6523
Au 15.2582 30.5399 18.0547
Au 19.8423 31.3884 26.93
Au 17.9596 29.351 27.8341
Au 15.7834 27.7205 28.998
Au 13.8562 25.673 29.8626
Au 22.8637 21.526 32.7508
Au 20.2158 21.9337 32.2759
Au 17.4591 22.7265 31.765
Au 14.7258 23.1758 31.3334
Au 20.7435 28.83 28.325
Au 21.5802 26.3585 29.8973
Au 18.6395 26.9938 29.4306
Au 22.3273 23.8375 31.3121
Au 19.4617 24.5905 30.8453
Au 16.759 25.1498 30.46
Au 10.6732 28.2715 20.1958
Au 10.9143 27.3958 22.9537
Au 11.2389 26.2093 25.4862
Au 11.589 24.9082 27.9789
Au 17.3094 30.6209 25.3915
Au 15.1464 29.8347 23.4771
Au 15.5947 28.6828 26.2863
Au 12.9131 29.2118 21.8666
Au 13.2577 28.2002 24.6918
Au 13.4996 27.0359 27.3766
Au 16.6997 9.32404 15.7775
Au 14.2511 10.8684 16.699
Au 12.1784 12.2227 17.7759
Au 10.0034 13.9378 18.6096
Au 18.319 10.3622 13.5704
Au 17.4974 12.5648 12.0519
Au 16.5145 15.1398 10.6006
Au 15.6449 17.5595 9.17717
Au 8.74115 16.3998 17.1252
Au 10.4782 17.0099 14.8585
Au 11.9559 18.0354 12.3756
Au 13.2409 18.8565 9.897
Au 15.6796 11.7834 14.3016
Au 13.4203 13.1639 15.1523
Au 14.8256 14.0296 12.8117
Au 11.1725 14.6168 16.2317
Au 12.603 15.525 13.9237
Au 14.046 16.5597 11.2923
Au 18.8062 8.2029 17.7435
Au 18.2917 8.78428 20.5558
Au 17.8326 9.16453 23.4458
Au 17.5615 9.75586 26.2587
Au 9.36912 14.5073 21.3329
Au 11.3124 13.3482 23.1574
Au 13.0898 12.2904 25.2429
Au 15.2659 11.3082 27.1134
Au 16.3136 9.51658 18.7062
Au 13.9354 11.1986 19.6855
Au 15.851 9.85052 21.5535
Au 11.5063 12.707 20.4731
Au 13.6306 11.5246 22.6001
Au 15.5465 10.5646 24.3536
Au 21.1005 9.52427 13.8246
Au 22.9986 11.3891 12.8986
Au 25.0113 13.2999 11.7473
Au 26.9948 15.2411 11.0125
Au 17.7781 19.1745 8.25932
Au 20.6073 18.7452 8.50412
Au 23.475 18.1784 8.93743
Au 26.2251 17.6217 9.45751
Au 20.4017 11.9669 12.3514
Au 19.268 14.3891 10.9332
Au 22.1675 13.8316 11.3581
Au 18.5366 16.7946 9.51317
Au 21.2234 16.2647 9.92889
Au 24.0461 15.8374 10.3845
Au 21.3916 8.41597 16.3943
Au 23.7224 9.16574 18.2181
Au 25.9435 9.92636 19.9804
Au 28.1763 10.5359 21.5975
Au 20.0308 10.4063 28.145
Au 22.667 10.5909 26.8953
Au 25.1682 10.8471 25.7586
Au 27.8384 10.9645 24.4832
Au 20.8959 8.78223 19.4111
Au 20.5142 9.20991 22.3286
Au 23.3292 9.34794 21.1119
Au 20.2312 9.75148 25.2812
Au 22.8162 9.90804 24.1039
Au 25.5475 10.2123 22.8677
Au 23.5578 10.1181 15.5775
Au 25.3882 11.9473 14.4414
Au 25.8276 10.7777 17.1324
Au 27.2508 13.7675 13.5556
Au 27.6815 12.5686 16.1933
Au 28.1254 11.5948 18.6555
Au 7.86735 18.4344 19.0347
Au 8.42057 21.1525 18.5765
Au 9.03785 23.8117 18.3501
Au 9.45829 26.6671 17.8981
Au 14.0345 21.7037 9.58105
Au 12.9444 23.6582 11.6789
Au 12.3168 25.5567 13.5756
Au 11.3869 27.596 15.4546
Au 9.33005 19.1715 16.7448
Au 10.7786 19.7287 14.3887
Au 9.96883 21.9564 16.3518
Au 12.428 20.7677 11.958
Au 11.2837 22.7095 13.9156
Au 10.5081 24.7131 15.8817
Au 8.3408 17.2405 21.7763
Au 9.24497 18.8945 23.9635
Au 9.89432 20.4928 26.1227
Au 10.9929 21.9509 28.4275
Au 15.9686 12.7967 29.4266
Au 14.8442 15.4861 29.7688
Au 13.8194 18.2096 30.1143
Au 12.7999 20.8975 30.4616
Au 10.1653 16.0342 23.6004
Au 12.0159 15.0235 25.5901
Au 10.8849 17.6557 25.9027
Au 14.05 13.8289 27.4736
Au 12.7584 16.5694 27.917
Au 11.7044 19.2149 28.0985
Au 8.71248 20.0833 21.261
Au 9.13273 22.8721 20.9629
Au 9.62716 21.9128 23.5373
Au 9.84828 25.6416 20.5366
Au 10.2366 24.7182 23.1692
Au 10.5444 23.3741 25.8154
Au 21.805 28.4846 10.8616
Au 20.2298 26.2852 9.97476
Au 18.4894 24.1017 9.07384
Au 16.7383 21.9928 8.56375
Au 22.9812 25.7315 10.3683
Au 21.4152 23.6465 9.50333
Au 24.1312 23.2254 10.13
Au 19.6203 21.4124 8.8755
Au 22.5836 20.8422 9.25838
Au 25.3143 20.2846 9.72269
Au 19.0801 28.3929 11.7974
Au 17.4902 26.0934 11.0907
Au 16.5384 28.0684 13.1821
Au 15.7725 23.9284 10.2877
Au 14.7954 25.6527 12.2481
Au 13.8418 27.883 14.2223
Au 24.1511 18.6525 32.2335
Au 22.561 16.5719 31.4871
Au 20.5441 14.4821 30.9176
Au 18.8348 12.3692 29.9591
Au 25.2935 16.7972 30.564
Au 23.2781 14.4294 29.693
Au 26.0925 14.9789 28.526
Au 21.6445 12.4978 28.927
Au 24.2949 12.7957 27.7925
Au 26.7736 13.0502 26.6557
Au 21.2315 19.1216 31.8683
Au 19.4467 17.1409 31.0391
Au 18.3612 19.8979 31.447
Au 17.5214 14.9248 30.3064
Au 16.5802 17.5944 30.6657
Au 15.6081 20.2934 30.9082
Au 35.6621 26.2744 21.315
Au 21.994 35.4913 26.8484
Au 18.8872 5.45208 13.8692
Au 5.00164 14.6433 19.2824
Au 24.2499 32.5653 10.0877
Au 26.8267 21.2787 35.4362
Au 13.8925 19.5251 5.31391
Au 16.5368 8.08629 30.7558
Au 30.6793 16.4319 8.12765
Au 32.5308 9.59577 24.1495
Au 8.54799 31.4277 16.7847
Au 10.2341 24.0435 32.7382
Au 33.4233 27.8428 22.3565
Au 31.2867 29.4803 23.3049
Au 29.0449 31.0466 24.2584
Au 26.8655 32.6002 25.1753
Au 24.3806 34.1106 26.0695
Au 33.9507 27.3428 19.4998
Au 32.0406 28.6501 17.5707
Au 30.1028 29.4814 15.5727
Au 28.2625 30.6531 13.781
Au 26.2888 31.5979 11.9729
Au 22.3947 34.904 24.0582
Au 22.6383 34.6307 21.2399
Au 23.1782 34.1505 18.4471
Au 23.5888 33.5724 15.6021
Au 23.9419 33.2314 12.7319
Au 31.8177 29.1927 20.4655
Au 29.2785 30.7103 21.3833
Au 29.8927 30.2037 18.6675
Au 27.1407 32.1734 22.3691
Au 27.4074 31.7228 19.3955
Au 27.9277 31.257 16.5527
Au 24.6782 33.6121 23.2215
Au 25.0376 33.3067 20.2982
Au 25.6739 32.8198 17.4973
Au 25.7785 32.0954 14.8265
Au 34.4563 25.6136 23.7107
Au 33.1831 24.5748 26.2309
Au 31.6779 23.6462 28.6548
Au 30.1134 22.838 30.9606
Au 28.4483 22.1109 33.1998
Au 22.8325 33.293 28.3609
Au 23.783 30.673 29.8889
Au 24.6059 28.4625 31.4392
Au 25.3728 26.0053 32.5639
Au 26.1543 23.6474 34.1263
Au 32.3531 26.9762 24.8215
Au 30.0338 28.6224 25.8353
Au 30.8378 26.2374 27.4294
Au 27.656 30.0493 26.6334
Au 28.483 27.7875 28.2873
Au 29.4416 25.4659 29.6348
Au 25.4109 31.7737 27.4298
Au 26.1233 29.3983 29.2209
Au 27.0484 27.0223 30.7013
Au 27.782 24.7307 31.8607
Au 34.9567 24.6577 19.2657
Au 34.2009 22.946 17.1228
Au 33.3753 21.5082 14.6004
Au 32.5397 19.9279 12.3778
Au 31.6009 18.0972 10.2638
Au 25.2033 29.9624 9.62283
Au 26.4591 27.3771 9.14708
Au 27.5458 24.6073 8.84836
Au 28.6761 21.837 8.48548
Au 29.479 19.0468 8.40587
Au 33.3462 25.7043 17.2829
Au 31.1142 26.862 15.4416
Au 32.474 24.127 14.8234
Au 29.4879 27.9347 13.4071
Au 30.5062 25.2573 12.8371
Au 31.5442 22.4724 12.6596
Au 27.4454 29.0256 11.4692
Au 28.5489 26.3362 10.925
Au 29.6796 23.424 10.7054
Au 30.5631 20.799 10.4583
Au 35.1064 23.5202 21.8096
Au 34.8257 20.8007 22.4159
Au 34.3265 17.8894 22.8417
Au 33.7954 15.0959 23.1494
Au 33.0466 12.4643 23.6789
Au 27.8136 19.3004 33.686
Au 28.7874 17.3108 31.7278
Au 29.7539 15.2844 29.8856
Au 30.3888 13.3902 27.9271
Au 31.5741 11.495 26.1585
Au 34.0572 22.5596 24.4328
Au 32.74 21.7556 26.8099
Au 33.5127 19.9308 24.8516
Au 31.1044 20.8784 29.2013
Au 32.0619 19.0369 27.1515
Au 32.9177 17.0044 25.1495
Au 29.5289 19.9707 31.5086
Au 30.4674 17.9719 29.5527
Au 31.3649 16.2046 27.4752
Au 32.2599 14.3255 25.7844
Au 31.0175 15.1778 10.691
Au 31.4377 14.1602 13.2469
Au 31.5352 12.74 15.8249
Au 31.7928 11.6502 18.5734
Au 32.2002 10.5481 21.2761
Au 34.5818 21.9505 19.6067
Au 33.7108 20.0937 17.3224
Au 34.115 18.9908 19.9772
Au 32.9104 18.3772 14.9869
Au 33.5283 17.2188 17.6106
Au 33.5902 16.287 20.4067
Au 32.1209 16.9662 12.8064
Au 32.4482 15.5134 15.3202
Au 32.6821 14.2902 18.1226
Au 32.8362 13.372 20.9207
Au 19.8554 34.812 25.2509
Au 17.3907 34.256 23.7307
Au 15.0881 33.5291 22.0095
Au 13.0362 32.8836 20.0893
Au 10.6391 32.078 18.618
Au 21.6337 32.4461 11.1941
Au 19.04 32.1992 12.2273
Au 16.4688 32.0406 13.4588
Au 13.7165 31.7691 14.3598
Au 10.9869 31.5032 15.8016
Au 19.9688 34.5842 22.4553
Au 20.5035 34.149 19.5756
Au 17.7196 33.9351 20.881
Au 20.9383 33.6588 16.8267
Au 18.1911 33.4568 17.7852
Au 15.5865 33.382 19.0168
Au 21.1892 33.1757 13.9115
Au 18.6073 33.0116 14.997
Au 16.0015 32.6017 16.2102
Au 13.3932 32.2674 17.3869
Au 20.1261 33.7422 28.0566
Au 18.2278 31.9774 29.1553
Au 16.2046 30.077 30.0965
Au 14.0447 28.1874 31.0157
Au 12.1553 26.2837 32.0073
Au 24.055 21.5693 35.2379
Au 21.3063 21.8943 34.8892
Au 18.5511 22.6177 34.3506
Au 15.7943 23.2188 33.954
Au 13.07 23.8018 33.5597
Au 21.0137 31.3015 29.4387
Au 21.8166 28.8904 30.9222
Au 19.0648 29.5789 30.6292
Au 22.5868 26.6225 32.5493
Au 19.5773 26.97 32.1078
Au 16.8205 27.7963 31.5389
Au 23.2547 24.2242 33.804
Au 20.5206 24.511 33.5448
Au 17.5389 25.1856 33.0574
Au 14.8678 25.7547 32.4952
Au 8.85703 30.2482 19.652
Au 8.88832 29.0962 22.3056
Au 9.17424 27.9432 24.9299
Au 9.29415 26.8257 27.4389
Au 9.94317 25.6424 30.2762
Au 17.6111 33.2573 26.4498
Au 15.3524 32.4608 24.6935
Au 15.708 31.2981 27.5964
Au 13.091 31.9609 23.2039
Au 13.3854 30.6049 25.8642
Au 13.5843 29.5357 28.3729
Au 10.9807 31.0371 21.4356
Au 11.0053 29.9545 24.0369
Au 11.3689 28.8196 26.8154
Au 11.6166 27.531 29.2608
Au 16.569 6.73356 14.5426
Au 14.0948 8.3211 15.6993
Au 11.7326 9.75107 16.4394
Au 9.42249 11.2945 17.5457
Au 7.44682 13.1727 18.3032
Au 18.0072 7.70458 12.5246
Au 17.1482 9.99109 10.97
Au 16.3347 12.4562 9.50838
Au 15.3296 14.9255 7.9496
Au 14.5037 17.1938 6.58644
Au 6.17043 15.4877 16.8952
Au 7.82724 16.3969 14.6168
Au 9.43211 16.9677 12.4098
Au 10.6643 17.6682 9.84929
Au 12.1364 18.6279 7.3112
Au 15.6529 9.17124 13.3012
Au 12.973 10.598 13.943
Au 14.784 11.4839 11.629
Au 11.0453 12.1131 14.9646
Au 12.2605 12.9214 12.4668
Au 13.9496 13.89 10.1371
Au 8.53916 13.785 16.0048
Au 10.0311 14.6393 13.6974
Au 11.6113 15.33 11.2814
Au 12.8313 16.2043 8.84106
Au 18.3602 5.64835 16.6444
Au 17.9991 6.18152 19.5476
Au 17.5282 6.59425 22.3405
Au 17.1053 7.25646 25.2824
Au 16.7552 7.61449 27.9197
Au 6.9234 13.4764 21.1373
Au 8.86743 12.2593 23.0654
Au 10.585 11.2753 25.0184
Au 12.6257 10.2532 27.079
Au 14.4987 9.17173 29.0271
Au 16.1051 7.10048 17.5487
Au 13.6052 8.55887 18.3962
Au 15.6737 7.3849 20.4162
Au 11.3103 10.0348 19.2574
Au 13.0442 8.88297 21.2159
Au 15.1602 8.05093 23.4328
Au 9.07541 11.6224 20.3501
Au 10.9728 10.4359 22.1956
Au 12.8328 9.54864 24.1801
Au 14.7131 8.75695 26.2636
Au 20.8213 7.07708 12.9553
Au 22.7977 8.89843 11.6146
Au 24.7722 10.8633 10.7841
Au 26.8886 12.5973 9.84578
Au 28.8454 14.5383 8.93991
Au 16.6021 19.1676 5.57944
Au 19.3642 18.3896 5.97227
Au 22.1947 17.9999 6.48677
Au 25.111 17.3761 6.78461
Au 27.8068 16.9185 7.33862
Au 19.9016 9.39116 11.4436
Au 19.0894 11.8799 9.81952
Au 21.8925 11.2706 10.1311
Au 18.0653 14.3107 8.38346
Au 21.0468 13.6676 8.73074
Au 24.0449 13.081 9.31585
Au 17.2958 16.7035 6.94849
Au 20.3877 16.0012 7.26464
Au 23.0643 15.5756 7.78761
Au 25.9201 14.8965 8.3868
Au 21.1299 5.8178 15.5742
Au 23.3752 6.4571 17.0685
Au 25.6345 7.22812 18.7604
Au 28.0271 7.83841 20.5791
Au 30.1111 8.74339 22.3316
Au 19.0455 8.33859 29.6745
Au 21.9339 8.60179 28.5186
Au 24.4701 8.61872 27.4252
Au 27.3461 8.79039 26.309
Au 29.9676 9.18516 25.0508
Au 20.7735 6.28714 18.2703
Au 20.2517 6.76014 21.1543
Au 22.9611 6.88057 19.9706
Au 19.8457 7.07509 24.1833
Au 22.6168 7.31737 22.9052
Au 25.3542 7.4463 21.8341
Au 19.4898 7.75405 26.9256
Au 22.0571 7.71222 25.6184
Au 24.8363 8.06344 24.7274
Au 27.3235 8.30303 23.578
Au 23.2757 7.63525 14.3239
Au 25.2227 9.34564 13.3869
Au 25.3246 8.07094 16.0397
Au 27.2288 11.1024 12.3562
Au 27.4311 9.83686 15.0953
Au 27.7236 9.02644 17.8961
Au 29.1967 13.2914 11.5399
Au 29.2338 12.0293 14.0686
Au 29.6745 10.7674 16.6634
Au 30.027 9.80932 19.6957
Au 5.27322 17.4725 18.9531
Au 5.6385 20.3422 18.5569
Au 6.50006 23.0102 18.0865
Au 6.98416 25.8552 17.5921
Au 7.54156 28.6093 17.2422
Au 12.8348 21.594 7.05528
Au 11.9945 23.5824 9.10951
Au 11.1279 25.6254 11.0451
Au 10.0973 27.5861 13.0247
Au 9.13414 29.2868 14.9638
Au 6.64767 18.093 16.3997
Au 8.12294 18.9913 13.9846
Au 7.16977 20.9424 15.986
Au 9.7474 19.9252 11.6927
Au 8.78784 21.7546 13.7183
Au 7.8898 23.8609 15.5209
Au 11.2358 20.5849 9.47103
Au 10.4224 22.6911 11.3066
Au 9.32137 24.5835 13.207
Au 8.77851 26.6469 15.3039
Au 5.65489 16.2557 21.6426
Au 6.73018 17.8994 23.9697
Au 7.4148 19.303 26.2057
Au 8.29476 21.0425 28.3544
Au 9.29953 22.733 30.4887
Au 15.3563 10.7385 31.0968
Au 14.1533 13.6344 31.5565
Au 13.1085 16.2336 31.9696
Au 12.2148 18.9678 32.2771
Au 11.1013 21.5966 32.3922
Au 7.3926 15.0245 23.4105
Au 9.2561 13.9203 25.3687
Au 8.35799 16.5873 25.7751
Au 11.3796 13.0299 27.5556
Au 10.2211 15.5386 27.7663
Au 9.18102 18.2604 28.0687
Au 13.3662 11.8103 29.4716
Au 12.2353 14.4981 29.6967
Au 11.3009 17.2481 30.0867
Au 10.0884 19.906 30.2297
Au 6.02554 19.1813 21.2779
Au 6.59261 21.8619 21.0539
Au 6.99476 20.6678 23.4825
Au 7.15628 24.614 20.3955
Au 7.44028 23.5537 23.3417
Au 7.86095 22.2988 25.7932
Au 7.85372 27.507 20.0186
Au 8.11119 26.2424 22.569
Au 8.47794 25.1431 25.2114
Au 8.99991 23.9436 27.9352
Au 22.5075 30.407 9.22743
Au 20.712 28.3473 8.04808
Au 18.9686 26.1337 7.33133
Au 17.2922 23.8624 6.65808
Au 15.4946 21.9551 5.92681
Au 23.3645 27.8098 8.69703
Au 21.9263 25.6977 7.84657
Au 24.661 25.1309 8.20243
Au 20.1987 23.5479 7.04596
Au 23.0414 22.8428 7.3225
Au 25.7997 22.2023 7.99498
Au 18.4105 21.2532 6.21648
Au 21.2605 20.8958 6.67459
Au 24.0764 19.9477 7.01125
Au 26.7195 19.5146 7.59824
Au 19.8894 30.3524 10.1569
Au 18.0757 28.1475 9.34455
Au 17.2247 30.1917 11.4227
Au 16.4518 25.9523 8.51141
Au 15.4426 27.8251 10.6294
Au 14.6433 29.9794 12.3521
Au 14.5718 23.7397 7.78369
Au 13.7102 25.852 9.719
Au 12.8258 27.5979 11.6177
Au 11.9124 29.7342 13.656
Au 25.2174 18.7782 34.8466
Au 23.42 16.5406 34.0079
Au 21.7933 14.4927 33.5597
Au 19.8195 12.4354 32.7337
Au 18.075 10.3717 31.6184
Au 26.2689 16.7471 33.0346
Au 24.5022 14.8304 32.2831
Au 27.1451 14.7515 31.1006
Au 22.5572 12.6435 31.5943
Au 25.2252 12.7615 30.4857
Au 27.9817 12.8864 29.0765
Au 20.6751 10.4966 30.7249
Au 23.5078 10.6169 29.5173
Au 26.1983 10.7336 28.2383
Au 28.8177 10.944 27.2165
Au 22.4743 19.258 34.459
Au 20.3833 17.1152 33.6764
Au 19.5824 19.9379 34.2813
Au 18.6173 15.0414 33.1181
Au 17.6075 17.9871 33.4281
Au 16.6655 20.5719 33.7114
Au 17.0875 12.883 32.1212
Au 15.7403 15.6149 32.498
Au 15.0533 18.5161 32.7492
Au 14.0394 21.0892 33.0889
Au 38.2076 27.4868 21.4064
Au 22.0915 38.1103 27.9843
Au 18.5558 2.78382 12.8751
Au 2.2914 13.535 19.2486
Au 24.9949 34.5353 8.36954
Au 28.2078 21.2988 37.9227
Au 12.728 19.4188 2.77129
Au 15.9935 5.95453 32.4358
Au 32.4575 15.943 5.89819
Au 34.3351 7.5899 24.664
Au 6.60662 33.0178 16.3979
Au 8.39453 24.6688 34.8407
Au 36.1223 29.0679 22.6359
Au 33.7319 30.5955 23.3792
Au 31.5206 32.1374 24.5529
Au 29.3903 33.8875 25.3925
Au 26.88 35.3672 26.2599
Au 24.512 36.7708 27.2686
Au 36.5181 28.5165 19.6675
Au 34.6351 29.4897 17.8932
Au 32.7146 30.6742 15.9943
Au 30.9887 31.5774 13.9377
Au 29.0422 32.4925 11.9764
Au 27.1061 33.627 10.0451
Au 22.6472 37.6161 25.2227
Au 22.7783 37.1229 22.5605
Au 23.6116 36.5592 19.4773
Au 23.9233 36.2834 16.6827
Au 24.2692 35.7207 13.8118
Au 24.6139 35.2588 10.9644
Au 34.3901 30.3883 20.6297
Au 31.9833 31.7322 21.637
Au 32.3527 31.3329 18.6963
Au 29.6994 33.2288 22.6591
Au 30.148 32.8706 19.8428
Au 30.4486 32.3196 16.8244
Au 27.4532 34.9006 23.4701
Au 27.7906 34.3184 20.4987
Au 28.3387 33.7891 17.6192
Au 28.7064 33.2891 14.8106
Au 24.9754 36.3219 24.2868
Au 25.4127 35.8374 21.4347
Au 25.9813 35.3674 18.4529
Au 26.2202 34.8073 15.7672
Au 26.7175 34.2512 12.9594
Au 36.8916 26.7667 23.8133
Au 35.6648 25.677 26.2408
Au 34.2608 24.6078 28.7148
Au 32.6988 24.1147 31.1368
Au 31.234 23.1823 33.4371
Au 29.7845 22.0875 35.6334
Au 22.9952 35.8281 29.4666
Au 24.1664 33.4536 30.9314
Au 24.9389 30.9467 32.4838
Au 26.0379 28.7189 33.8749
Au 26.5192 26.3723 35.1157
Au 27.3938 23.8087 36.6039
Au 34.7807 28.3106 24.9319
Au 32.4147 29.5224 25.9634
Au 33.6524 26.9597 27.3999
Au 30.2556 31.0733 27.0036
Au 31.0627 28.9189 28.4735
Au 32.0714 26.4711 29.8422
Au 27.9555 32.7925 27.6616
Au 28.8481 30.3765 29.3327
Au 29.8221 28.0876 30.8861
Au 30.461 25.6465 32.246
Au 25.5635 34.381 28.8196
Au 26.5797 32.0608 30.0577
Au 27.5477 29.6481 31.665
Au 28.1261 27.3739 33.0705
Au 28.9661 24.7077 34.4469
Au 37.7486 25.7725 19.3254
Au 36.9022 24.1353 17.0852
Au 35.9305 22.4423 14.9617
Au 35.3036 20.807 12.6177
Au 34.3129 18.9311 10.4215
Au 33.2728 17.3864 8.20498
Au 26.1362 31.7958 8.10111
Au 26.9927 29.3526 7.56918
Au 28.3423 26.6272 7.02397
Au 29.3043 23.9044 6.61109
Au 30.4823 21.2357 6.5461
Au 31.404 18.5403 6.36414
Au 35.8034 26.7839 17.4605
Au 33.8357 27.8459 15.4326
Au 35.1416 25.1505 14.977
Au 32.158 28.9796 13.6003
Au 33.1123 26.2 13.2299
Au 34.3314 23.5202 12.8065
Au 30.4219 30.0249 11.6914
Au 31.1814 27.352 11.1343
Au 32.4442 24.4986 10.8164
Au 33.5299 21.9258 10.7742
Au 28.3129 31.0249 9.70103
Au 29.5215 28.4475 9.04569
Au 30.4872 25.6385 8.96283
Au 31.3795 22.9267 8.77552
Au 32.3896 20.2574 8.59806
Au 37.798 24.5173 21.9977
Au 37.2737 21.8416 22.3661
Au 37.001 18.9039 22.8373
Au 36.4554 15.9233 23.3983
Au 35.6999 13.1069 23.7166
Au 35.1067 10.346 24.0435
Au 28.9418 19.4554 36.1104
Au 29.8682 17.3937 34.1267
Au 30.6569 15.3757 32.4393
Au 31.636 13.3973 30.5061
Au 32.5678 11.5513 28.5597
Au 33.4372 9.48415 26.8327
Au 36.6534 23.6079 24.3063
Au 35.322 22.8564 26.8894
Au 36.2647 20.8024 24.8757
Au 33.8391 21.8044 29.3411
Au 34.7227 19.8121 27.4217
Au 35.5073 17.8513 25.3916
Au 32.4576 21.1855 31.7132
Au 33.2216 18.9974 29.7893
Au 34.0695 16.9428 27.7651
Au 34.9463 15.0436 25.833
Au 30.5622 20.2052 33.9495
Au 31.6862 18.3627 32.1239
Au 32.4008 16.1046 30.2739
Au 33.3181 14.1723 28.3194
Au 34.3359 12.0392 26.1529
Au 32.8366 14.5438 8.52343
Au 33.0433 13.3066 10.9601
Au 33.4192 12.1919 13.736
Au 33.5748 11.0456 16.4274
Au 33.8725 9.79559 19.1597
Au 34.0225 8.54988 21.8073
Au 37.2062 22.7825 19.8578
Au 36.553 21.2948 17.5404
Au 36.6532 19.8966 20.1923
Au 35.7211 19.6954 15.1631
Au 35.9953 18.2731 17.9121
Au 36.3256 17.0197 20.8489
Au 34.7543 17.9992 13.0095
Au 35.2125 16.8027 15.5019
Au 35.4454 15.2344 18.1497
Au 35.6316 14.1553 20.7674
Au 33.7149 16.2811 10.8097
Au 34.1265 15.0804 13.2977
Au 34.4754 13.8374 15.9306
Au 34.5638 12.4756 18.678
Au 34.8368 11.4642 21.4336
Au 19.7645 37.5402 26.3621
Au 17.6294 36.8383 24.6253
Au 15.2634 36.2473 23.1534
Au 13.1554 35.3766 21.4137
Au 10.9962 34.7885 19.7098
Au 8.76861 34.0208 18.0114
Au 22.3929 34.4382 9.34908
Au 19.682 34.2484 10.6108
Au 17.2466 34.2507 11.7856
Au 14.3821 33.8625 12.8161
Au 11.5796 33.637 14.0505
Au 9.13882 33.503 15.1051
Au 20.175 37.1269 23.5406
Au 20.7358 36.6674 20.5187
Au 18.0227 36.558 21.8406
Au 21.336 36.3235 17.7852
Au 18.4028 36.203 18.916
Au 15.9109 36.0415 20.2165
Au 21.6388 35.8234 15.0877
Au 18.8601 35.7158 16.0879
Au 15.9991 35.4487 17.1392
Au 13.4877 35.1396 18.4409
Au 21.9062 35.3089 12.0186
Au 19.3227 35.2976 13.2635
Au 16.5963 34.7898 14.4626
Au 13.8425 34.522 15.6183
Au 11.286 34.326 16.9242
Au 20.0837 36.2954 29.1176
Au 18.2818 34.524 30.3122
Au 16.4269 32.5464 31.2203
Au 14.2863 30.644 32.2337
Au 12.1096 28.7732 33.1789
Au 10.2477 26.7573 33.9338
Au 25.3068 21.8938 37.6833
Au 22.3457 22.2476 37.4946
Au 19.6109 22.9138 36.9374
Au 16.8381 23.531 36.3652
Au 13.9228 23.908 36.0188
Au 11.0364 24.38 35.3301
Au 21.0454 33.9529 30.5782
Au 22.1128 31.524 32.1205
Au 19.3145 32.3358 31.7865
Au 22.9093 29.1908 33.4815
Au 20.1193 29.5751 33.2013
Au 17.4871 30.3506 32.7431
Au 23.7679 26.9358 35.061
Au 20.8835 27.1803 34.7039
Au 17.8607 27.8527 34.2415
Au 15.1774 28.4357 33.6143
Au 24.6482 24.4058 36.4121
Au 21.8231 24.866 36.089
Au 18.8018 25.2779 35.614