22
 Atoms. Timestep: 50000
Au 16.9857 18.7225 19.3022
Au 22.0905 18.9076 22.0302
Au 17.8094 19.3047 22.0443
Au 23.3829 21.965 18.7718
Au 21.1521 23.6988 19.62
Au 22.4788 21.3577 23.0134
Au 21.2343 17.0759 20.1857
Au 23.3212 23.1079 21.0384
Au 18.9507 22.6798 18.8138
Au 19.7666 17.6254 22.5432
Au 24.0209 20.3754 20.8232
Au 18.5628 16.9419 20.386
Au 20.94 23.4149 22.3103
Au 22.33 19.2197 19.1791
Au 19.7722 18.2545 18.0146
Au 21.2631 21.2704 20.6493
Au 18.4075 20.3106 17.6053
Au 19.5409 19.4694 20.1238
Au 20.8933 21.0787 17.958
Au 18.7652 22.2157 21.4036
Au 20.0949 20.4853 22.9813
Au 16.927 21.208 19.8923
