23
 Atoms. Timestep: 50000
Au 20.4753 18.8873 23.443
Au 20.0361 21.0769 21.4925
Au 22.544 20.0184 17.3759
Au 18.9659 18.5942 21.4436
Au 17.2932 20.5398 20.9017
Au 19.5978 23.5766 22.9621
Au 18.6452 21.8255 18.9881
Au 22.5296 20.1911 22.1303
Au 22.3009 21.6859 19.8693
Au 21.6295 17.9157 21.2097
Au 20.4874 18.1818 17.1512
Au 20.7076 19.6242 19.3694
Au 19.5318 20.5747 16.8815
Au 18.3326 21.1568 23.3126
Au 17.7248 22.9958 21.319
Au 20.3877 23.3812 20.2876
Au 20.9918 21.306 24.1123
Au 22.032 22.918 22.4235
Au 21.0065 22.1171 17.8743
Au 23.511 19.2611 19.7106
Au 22.2715 17.2396 18.6867
Au 19.8057 16.9804 19.512
Au 18.2772 19.0371 18.6281
