28
 Atoms. Timestep: 50000
Au 23.2062 20.535 18.2437
Au 21.7942 22.9875 18.6615
Au 17.476 19.3398 23.4972
Au 18.4841 20.3266 17.0374
Au 21.7266 18.3142 22.0588
Au 19.5415 17.4155 22.8762
Au 20.3765 20.7239 18.92
Au 22.316 23.9527 21.1747
Au 20.0747 16.7872 20.3817
Au 21.851 18.4309 19.3721
Au 20.0747 20.0244 23.6473
Au 19.3069 19.4385 21.042
Au 19.7863 23.06 20.4818
Au 24.0409 22.3354 19.754
Au 17.5161 17.5361 21.1053
Au 23.9363 22.1542 22.454
Au 17.0248 19.211 18.9787
Au 22.6615 20.4365 23.4831
Au 24.0326 19.6898 20.8194
Au 17.8599 21.7074 19.5487
Au 19.1189 22.8356 17.6851
Au 18.2943 21.5668 22.2785
Au 21.7339 21.1353 21.0608
Au 21.0623 22.5663 23.0504
Au 20.9825 19.0158 17.0344
Au 16.4577 20.0362 21.323
Au 19.0412 17.9766 18.5284
Au 21.2824 21.5207 16.5618
