28
 Atoms. Timestep: 50000
Au 18.9197 22.9344 22.2986
Au 17.2898 21.0204 21.3827
Au 19.3894 19.7439 17.6592
Au 18.9559 23.245 17.837
Au 23.6589 18.8223 20.4323
Au 21.0638 19.1551 19.5496
Au 21.4835 23.3659 21.4702
Au 23.6739 19.8193 18.0664
Au 20.2101 19.0437 24.2558
Au 18.4019 20.9433 24.0042
Au 22.7579 21.4092 19.9514
Au 19.7972 21.7606 19.8763
Au 18.0482 18.9009 20.0243
Au 17.435 23.3092 20.018
Au 22.0976 18.0639 22.5745
Au 19.5085 24.6612 20.0792
Au 19.7228 17.4983 21.4106
Au 20.0588 17.073 18.4342
Au 17.3413 21.0905 18.7511
Au 23.0165 17.4145 18.3327
Au 21.4322 21.4896 17.5081
Au 21.9882 16.5972 20.5104
Au 17.9347 18.657 22.7481
Au 20.0989 20.2019 21.9399
Au 22.7097 20.4519 22.4272
Au 21.5181 23.6799 18.9249
Au 21.7396 18.8789 16.8258
Au 20.8081 21.8289 23.7671
