309
 Atoms. Timestep: 50000
Au 20.3299 20.3691 20.3427
Au 22.96 21.396 20.5851
Au 20.7143 22.8686 21.4045
Au 20.0084 18.0609 19.2775
Au 17.7618 19.4897 19.9879
Au 21.0255 22.478 18.7245
Au 21.4247 20.6031 22.9742
Au 19.2594 20.2909 17.8348
Au 19.4711 18.4612 22.0837
Au 22.1244 19.7956 18.3652
Au 22.1964 18.5095 20.8515
Au 18.4041 22.2485 19.978
Au 18.6929 21.0835 22.4862
Au 25.4823 22.4081 20.6966
Au 20.9014 25.2872 22.614
Au 19.7505 15.4047 18.1552
Au 15.2575 18.478 19.862
Au 21.7429 24.3385 17.0074
Au 22.7257 20.7819 25.3634
Au 18.1442 19.9215 15.3586
Au 19.0884 16.4905 24.0241
Au 23.8781 19.0853 16.5854
Au 23.9877 16.5506 21.6943
Au 16.5587 24.1252 19.4154
Au 16.9966 21.6254 24.5641
Au 23.2849 23.9139 21.6523
Au 23.6011 23.3424 18.8008
Au 21.2683 24.9722 19.7501
Au 24.1715 21.4937 22.9526
Au 21.8255 22.9748 24.1143
Au 24.705 20.6521 18.4996
Au 22.7315 21.8067 16.5557
Au 24.8215 19.3924 21.0237
Au 23.384 18.7409 23.3846
Au 24.1512 17.8017 18.985
Au 18.726 24.768 21.0845
Au 19.0218 24.28 18.0316
Au 18.934 23.6612 23.6156
Au 19.684 21.1078 25.0697
Au 16.5495 22.7449 21.9892
Au 17.4498 16.7974 18.9959
Au 19.2125 17.6327 16.6555
Au 16.7929 19.0445 17.5206
Au 19.2702 15.7484 20.9877
Au 17.0406 17.4134 21.9082
Au 21.8039 17.1478 17.4262
Au 21.119 19.6184 15.8245
Au 22.0508 15.8535 19.8763
Au 21.4711 16.53 22.7116
Au 15.8395 21.2763 19.6643
Au 17.1638 22.0498 17.3312
Au 16.0114 19.8815 22.358
Au 17.9232 19.0312 24.1354
Au 19.8867 22.2611 15.8354
Au 21.0041 18.5915 24.7742
Au 27.976 23.3584 20.9929
Au 21.1597 27.8443 23.7271
Au 19.5614 12.9598 17.1371
Au 12.7219 17.4473 19.6537
Au 22.3312 26.2971 15.2047
Au 23.8755 20.7145 27.8735
Au 17.1911 20.0349 12.8061
Au 18.4074 14.3903 25.6456
Au 25.4622 18.7038 14.2971
Au 26.1873 14.9226 22.0002
Au 14.4442 25.7686 18.8992
Au 15.3449 22.3378 26.5917
Au 25.7845 25.1579 21.8083
Au 23.4389 26.4761 22.6968
Au 26.1439 24.52 18.9188
Au 24.4087 25.4578 17.1168
Au 21.5417 27.411 20.8316
Au 22.083 27.0398 18.0414
Au 24.0009 26.1295 19.9001
Au 26.7971 22.6672 23.2458
Au 25.371 21.8951 25.4513
Au 21.9244 25.4207 25.1189
Au 22.9528 23.1374 26.7047
Au 24.4029 24.2458 24.0614
Au 27.2504 21.7024 18.6041
Au 26.8385 20.107 16.4933
Au 23.4773 23.9692 14.7743
Au 24.7032 21.2525 14.7051
Au 25.4902 22.8851 16.7528
Au 27.3904 20.4412 21.1708
Au 26.9621 17.3846 21.6134
Au 24.6197 18.8551 25.7727
Au 25.4544 16.7979 24.033
Au 26.4175 19.449 23.76
Au 26.1294 17.4341 16.7467
Au 26.2223 16.07 19.3011
Au 26.9205 18.7729 18.9662
Au 18.8825 27.628 22.0499
Au 16.5785 26.6341 20.4833
Au 19.7607 26.2973 16.3465
Au 17.0488 26.2073 17.617
Au 19.3594 26.8887 19.3197
Au 19.2361 26.1142 24.6959
Au 17.3084 24.212 25.6319
Au 20.9663 21.1185 27.5667
Au 18.1686 21.9623 27.3239
Au 20.2671 23.8488 26.2674
Au 14.6714 24.5296 21.3087
Au 14.7491 23.5425 24.0219
Au 16.866 25.4001 22.9867
Au 17.217 14.277 18.0334
Au 14.7911 15.9517 18.819
Au 18.7333 15.0391 15.4929
Au 17.7401 17.4738 14.3017
Au 13.9843 18.2398 17.344
Au 15.3603 19.164 15.103
Au 16.2345 16.5695 16.4768
Au 19.1418 13.1801 19.9215
Au 18.6557 13.9843 22.9108
Au 14.3189 16.5049 21.7035
Au 16.3196 15.2887 23.6966
Au 16.5947 14.7021 20.8258
Au 21.5773 14.6463 15.998
Au 23.683 16.7007 15.4261
Au 20.0082 19.5296 13.3342
Au 22.8644 19.0421 13.7419
Au 20.9212 17.1773 14.6686
Au 21.9013 13.4804 18.7729
Au 24.2651 14.0198 20.3121
Au 21.0647 14.4449 24.5653
Au 23.5923 14.5021 23.2917
Au 21.3837 13.9005 21.6596
Au 24.0836 15.1485 17.7124
Au 13.0821 20.3744 19.3526
Au 13.666 23.0882 19.1443
Au 16.2138 21.9531 14.7533
Au 15.3418 24.0224 16.869
Au 14.5905 20.9447 17.0719
Au 13.5537 18.9654 22.1101
Au 14.3631 20.7005 24.3702
Au 17.3812 16.9979 26.1323
Au 16.1089 19.5805 26.2887
Au 15.1126 17.7956 24.1265
Au 13.8464 21.8431 21.6614
Au 20.672 24.2524 14.2764
Au 18.8832 22.0218 13.5569
Au 21.9299 21.7166 13.7453
Au 17.8937 24.2692 15.4873
Au 22.0273 18.502 27.2896
Au 20.2032 16.3684 26.5789
Au 22.7647 16.4759 25.163
Au 19.2067 19.0657 27.0715
Au 30.384 24.2482 21.0793
Au 21.4588 30.298 24.5781
Au 19.3495 10.5737 16.0676
Au 10.3833 16.5393 19.8236
Au 22.9576 28.376 13.6588
Au 24.8084 20.7952 30.2816
Au 16.0832 19.6202 10.5367
Au 17.7539 12.4097 27.1366
Au 27.2817 18.0683 12.4059
Au 27.9723 13.171 22.6755
Au 12.6238 27.565 18.1485
Au 13.6379 22.7624 28.4543
Au 28.3804 25.8094 21.9718
Au 25.8779 27.4615 23.0291
Au 23.6381 28.9304 23.9632
Au 28.858 25.3247 19.0905
Au 26.9912 26.4685 17.1243
Au 24.9779 27.4116 15.2475
Au 21.6144 29.9885 21.897
Au 22.3941 29.424 19.2734
Au 22.8272 28.8302 16.3262
Au 26.6073 27.0054 19.9757
Au 24.3069 28.638 21.0118
Au 24.9075 27.9956 18.082
Au 29.1879 23.4266 23.4413
Au 27.9791 23.0295 25.8235
Au 26.3154 21.8592 28.1378
Au 22.0702 28.0414 26.1733
Au 22.9906 25.7535 27.6099
Au 24.1636 23.1669 29.0753
Au 27.1518 25.4068 24.3251
Au 24.5188 26.4288 25.427
Au 25.4281 24.1703 26.5845
Au 29.7781 22.7773 19.0078
Au 29.1241 21.3394 16.6069
Au 28.269 19.5533 14.4278
Au 24.0975 26.0676 13.0907
Au 25.0865 23.1653 12.9944
Au 26.1974 20.5738 12.4613
Au 28.039 23.7361 16.6157
Au 26.1055 24.8498 14.9413
Au 27.2903 22.1299 14.6584
Au 29.9161 21.5275 21.5973
Au 29.4098 18.5537 21.7929
Au 29.1004 15.7637 22.2914
Au 25.7947 19.0333 28.2851
Au 26.6608 17.1704 26.1983
Au 27.4023 15.0888 24.389
Au 28.5851 20.5492 23.7644
Au 27.2692 20.1748 26.2725
Au 28.3547 17.7986 24.0864
Au 27.7104 16.8759 14.6675
Au 27.9422 15.4324 17.2865
Au 27.9639 14.3884 20.0694
Au 29.2965 19.8602 19.3527
Au 28.8842 18.2509 17.1392
Au 28.8634 16.9104 19.5578
Au 19.059 30.0336 23.0787
Au 16.6222 29.1415 21.5318
Au 14.8184 28.4034 19.5325
Au 20.4838 28.2604 14.7375
Au 17.8331 28.1283 15.9578
Au 15.183 27.8423 17.0879
Au 19.6259 29.4376 20.3454
Au 20.1832 28.8675 17.5114
Au 17.4823 28.759 18.7544
Au 19.2949 28.637 25.6059
Au 17.4546 26.7161 26.5896
Au 15.4662 24.7351 27.717
Au 22.2607 21.2182 29.9874
Au 19.4008 21.8943 29.5367
Au 16.3172 22.5723 29.2609
Au 20.2559 26.3153 27.3785
Au 21.2055 23.775 28.6855
Au 18.4178 24.3114 28.5703
Au 12.6124 26.5539 20.8683
Au 12.9013 25.4178 23.4402
Au 13.3142 24.3197 26.0721
Au 17.1081 28.1245 24.0102
Au 14.7608 27.1564 22.4275
Au 15.2193 26.1923 25.1266
Au 17.1074 11.9111 16.8032
Au 14.5827 13.411 17.8938
Au 12.1645 14.9693 18.6981
Au 18.3341 12.6927 14.4346
Au 17.629 15.0831 13.0713
Au 16.9648 17.4083 11.6407
Au 11.4545 17.3977 17.2825
Au 13.0587 17.8039 14.8835
Au 14.3603 19.1229 12.6802
Au 15.9748 14.0534 15.3672
Au 13.7207 15.5564 16.4101
Au 15.4023 16.5027 13.8599
Au 18.8473 10.8259 18.7134
Au 18.4262 11.5055 21.7502
Au 18.1991 11.7463 24.3937
Au 11.9282 15.3762 21.4888
Au 13.8276 14.6721 23.502
Au 15.8172 13.2757 25.5196
Au 16.3922 12.2189 19.6896
Au 14.1213 13.7695 20.8379
Au 16.1229 12.6314 22.6982
Au 21.1738 12.2057 14.9548
Au 23.2881 14.2208 14.2442
Au 25.4391 16.0961 13.1527
Au 18.9227 19.1526 10.8275
Au 21.8681 18.7547 11.3061
Au 24.5735 18.2788 11.712
Au 20.429 14.5056 13.3966
Au 19.6596 16.9147 12.2833
Au 22.6448 16.463 12.7137
Au 21.3846 10.9794 17.7564
Au 23.5996 11.5309 19.2753
Au 26.0581 12.2968 20.9443
Au 20.3789 12.3587 26.287
Au 23.2209 12.6615 25.2208
Au 25.6826 12.8104 23.7211
Au 21.2154 11.3541 20.5939
Au 20.8881 11.9817 23.5116
Au 23.5976 12.0691 22.0722
Au 23.5246 12.7059 16.6412
Au 25.9943 14.8357 15.6371
Au 26.0437 13.4322 18.1707
Au 10.4619 19.2391 19.2751
Au 11.1995 22.0442 18.7644
Au 11.9297 24.992 18.5168
Au 15.285 21.7708 12.1953
Au 14.5095 23.9088 14.262
Au 13.3568 25.6775 16.4146
Au 11.9219 20.0777 16.7833
Au 13.5 21.1348 14.6363
Au 12.7172 22.7644 16.6326
Au 11.0884 18.1931 21.8214
Au 11.7228 19.9115 24.1301
Au 12.6968 21.6062 26.2817
Au 16.7248 14.8869 27.8223
Au 15.8438 17.5539 28.1006
Au 14.56 20.3293 28.2774
Au 12.5107 17.1482 24.0236
Au 14.8085 15.9476 25.9542
Au 13.4527 18.7226 26.0482
Au 11.2238 20.9354 21.4844
Au 11.9999 23.8158 21.1759
Au 12.1861 22.6701 23.798
Au 21.0914 26.4889 12.7983
Au 19.4406 24.1171 11.9032
Au 17.7408 21.7924 11.1054
Au 22.3077 23.8265 12.2469
Au 20.6088 21.4934 11.3196
Au 23.5103 21.0838 11.8962
Au 18.4582 26.3722 13.8438
Au 16.8867 23.9494 12.9772
Au 15.9925 26.1002 14.9307
Au 23.1601 18.6389 29.7497
Au 21.4979 16.553 28.9805
Au 19.4073 14.5007 28.2156
Au 24.3335 16.9279 27.7349
Au 22.2118 14.6604 27.0414
Au 24.8337 14.7206 25.8226
Au 20.2935 19.0749 29.586
Au 18.4836 17.1405 28.7526
Au 17.4571 19.9314 28.9567
