309
 Atoms. Timestep: 50000
Au 21.5958 15.7062 30.6546
Au 21.2368 16.9195 28.3517
Au 20.8411 17.8099 25.6353
Au 20.5229 19.0817 23.0489
Au 20.3256 20.3935 20.4704
Au 20.14 21.6737 17.6769
Au 19.8169 22.8243 15.078
Au 19.6576 23.9328 12.4608
Au 19.2965 24.9372 10.0244
Au 18.8385 16.4572 29.8818
Au 18.6301 17.4876 27.2816
Au 18.1098 18.4953 24.5199
Au 17.9932 19.7161 21.8783
Au 17.8112 20.9092 19.4385
Au 17.5665 22.1379 16.7076
Au 17.4821 23.4416 13.8536
Au 17.0027 24.3696 11.4032
Au 20.7418 18.2582 30.5911
Au 20.3447 19.5791 27.8272
Au 20.1495 20.6961 25.3102
Au 19.7413 21.8534 22.8065
Au 19.6706 23.1183 20.1793
Au 19.5425 24.3137 17.4685
Au 18.8255 25.4772 14.8278
Au 18.8242 26.5794 12.1721
Au 23.4102 17.7049 29.9295
Au 23.0975 18.6383 27.1816
Au 22.8192 19.8989 24.5581
Au 22.4337 21.1035 22.0365
Au 22.0696 22.3738 19.3605
Au 22.0701 23.4579 16.867
Au 21.7454 24.6995 14.1646
Au 21.4209 25.6574 11.6186
Au 23.152 14.9354 28.7269
Au 22.8762 15.9568 26.2657
Au 22.5642 17.2291 23.7322
Au 22.4857 18.5613 20.9882
Au 22.1445 19.7324 18.265
Au 21.9703 21.0348 15.6105
Au 21.7798 22.1654 12.9771
Au 21.1701 23.2022 10.2641
Au 20.415 14.129 28.5965
Au 20.2464 15.132 26.1771
Au 19.8211 16.4511 23.5102
Au 19.7422 17.7562 20.8738
Au 19.502 18.9591 18.2211
Au 19.3053 20.0432 15.5615
Au 19.162 21.0658 12.7963
Au 18.7929 22.3258 10.2096
Au 16.2642 16.9671 28.6529
Au 15.9486 17.9949 26.139
Au 15.7201 19.3184 23.429
Au 15.4757 20.6966 20.9261
Au 15.285 21.4908 18.3324
Au 14.9185 22.5025 15.4797
Au 14.5042 23.392 13.1163
Au 18.2506 19.0377 29.5037
Au 17.7853 20.1961 26.9578
Au 17.4684 21.2436 24.1384
Au 17.2638 22.8223 21.6838
Au 16.9646 23.6525 19.092
Au 16.6429 24.6107 16.3341
Au 16.1896 25.7239 13.63
Au 20.0263 21.144 30.0553
Au 19.7246 22.243 27.685
Au 19.434 23.5216 24.96
Au 19.311 24.5892 22.456
Au 18.7692 25.8391 19.9066
Au 18.4062 27.0123 17.3575
Au 18.0625 28.0021 14.7002
Au 22.6127 20.2812 29.4496
Au 22.3093 21.5702 26.974
Au 22.0888 22.6506 24.4444
Au 21.9235 23.7568 21.8798
Au 21.4874 25.1105 19.3808
Au 21.1971 26.4118 16.5596
Au 20.8541 27.537 14.0251
Au 25.0878 19.466 28.8387
Au 24.8085 20.6549 26.1532
Au 24.5563 22.0134 23.7177
Au 24.3939 23.1298 21.1254
Au 24.0478 24.333 18.7197
Au 23.9224 25.4449 15.822
Au 23.4728 26.6263 13.4942
Au 25.103 16.8192 27.6517
Au 24.9265 17.9137 25.205
Au 24.6033 19.3425 22.6612
Au 24.5785 20.3696 19.982
Au 24.1185 21.5619 17.6579
Au 23.9213 22.9195 14.805
Au 23.6308 23.9505 12.3007
Au 25.0104 14.4364 26.5813
Au 24.8341 15.3757 24.0463
Au 24.4879 16.753 21.5131
Au 24.2945 17.855 18.7751
Au 24.0214 19.1896 16.1644
Au 23.7346 20.2115 13.5627
Au 23.351 21.4555 11.0558
Au 22.2599 13.2532 26.7955
Au 22.1895 14.4014 23.8603
Au 21.8306 15.7988 21.3368
Au 21.4537 16.8304 18.7584
Au 21.3959 18.1746 16.1241
Au 21.1374 19.2468 13.4225
Au 20.7619 20.6444 10.7564
Au 19.4378 12.6374 26.4637
Au 19.313 13.8203 23.8077
Au 18.9546 14.9554 21.1417
Au 18.7393 16.3776 18.6721
Au 18.7638 17.4118 15.9969
Au 18.3446 18.488 13.2987
Au 17.9965 19.6779 10.8994
Au 17.9105 14.8122 27.759
Au 17.5547 15.6904 25.1316
Au 17.421 16.9258 22.4241
Au 17.0838 18.4031 19.8179
Au 16.9754 19.3647 17.2627
Au 16.8195 20.6212 14.4466
Au 16.5904 21.7652 11.8186
Au 13.6774 17.6502 27.3787
Au 13.427 18.7818 24.9433
Au 13.1857 20.0016 22.4852
Au 13.0691 21.1323 20.0524
Au 12.8394 21.7468 17.2725
Au 12.2996 22.5672 14.4605
Au 15.5249 19.6853 28.4446
Au 15.1852 21.0712 25.8589
Au 14.8676 22.1434 23.212
Au 14.4115 23.3768 20.7244
Au 14.4073 24.0741 17.9165
Au 14.0103 25.1062 15.1391
Au 17.2645 21.6911 29.1067
Au 17.2546 22.7934 26.5558
Au 16.7011 24.2058 23.9809
Au 16.4054 25.4695 21.4988
Au 16.0123 26.1914 18.581
Au 15.9418 27.3943 15.9656
Au 19.218 23.6265 29.8439
Au 19.0006 25.0128 27.44
Au 18.557 26.093 24.8324
Au 18.3317 27.1878 22.4439
Au 17.7217 28.2058 19.8242
Au 17.5645 29.5181 17.1832
Au 21.8261 23.1396 29.4908
Au 21.5242 24.1044 26.8197
Au 21.349 25.4473 24.2661
Au 21.0599 26.6619 21.6344
Au 20.7144 27.7455 19.0604
Au 20.1971 28.9412 16.4695
Au 24.3147 22.2867 28.7479
Au 24.1751 23.3666 26.2175
Au 23.9996 24.8483 23.6217
Au 23.7125 26.0375 20.9479
Au 23.2481 27.0113 18.1778
Au 23.0123 28.3492 15.6464
Au 26.7335 21.3386 27.9223
Au 26.8613 22.5565 25.3193
Au 26.6199 23.976 22.8544
Au 26.1432 24.9028 20.3759
Au 25.8616 26.1442 17.7023
Au 25.7119 27.4275 15.1646
Au 27.0732 18.8443 26.7924
Au 26.8639 19.9416 24.2859
Au 26.5907 21.1892 21.9926
Au 26.4194 22.299 19.3773
Au 25.9899 23.3705 16.8621
Au 25.7122 24.927 13.8023
Au 27.1016 16.2585 25.7434
Au 26.7129 17.3629 23.1093
Au 26.5523 18.4911 20.6638
Au 26.2047 19.635 17.8654
Au 25.9253 20.9553 15.4683
Au 25.6275 21.9888 12.6912
Au 27.0765 13.7073 24.4826
Au 26.5874 14.8743 21.7635
Au 26.2358 15.9746 19.1677
Au 26.0058 17.0856 16.6946
Au 25.8918 18.4566 14.1121
Au 25.6378 19.5016 11.6191
Au 24.1051 12.6886 24.7435
Au 23.8408 13.8956 21.6219
Au 23.4817 15.0544 19.0931
Au 23.3875 16.1647 16.7447
Au 23.2428 17.5359 13.8066
Au 22.9285 18.772 11.1672
Au 21.3009 11.9972 24.4802
Au 20.8952 13.0631 21.7034
Au 20.5889 13.8665 18.9679
Au 20.5563 15.3409 16.6751
Au 20.5822 16.5715 13.9591
Au 20.1454 17.7931 11.3427
Au 18.49 11.2699 24.2706
Au 18.0542 12.2665 21.7064
Au 17.8527 13.3918 18.9938
Au 17.7265 14.8268 16.5318
Au 17.8217 15.8435 13.9557
Au 17.7194 16.5812 11.249
Au 16.7447 13.1394 25.1749
Au 16.4323 14.3405 22.6008
Au 16.2837 15.5736 20.1196
Au 16.0282 16.7634 17.6615
Au 16.0368 17.7092 14.9831
Au 15.6181 18.5678 12.2863
Au 15.3168 15.4136 26.4784
Au 14.9637 16.6625 23.926
Au 14.7083 17.6826 21.4827
Au 14.3444 18.829 18.8614
Au 14.3604 19.5996 16.0571
Au 14.263 20.552 13.3276
Au 11.3785 18.1896 26.4073
Au 11.0689 19.488 24.0692
Au 10.7509 20.4829 21.5602
Au 10.7273 21.0957 18.9598
Au 10.5067 21.4559 16.2714
Au 13.0347 20.1218 27.3422
Au 12.6465 21.572 24.769
Au 12.1932 22.8738 22.1541
Au 11.8423 23.4397 19.4927
Au 11.996 24.0652 16.6817
Au 14.9371 22.6352 28.0194
Au 14.4081 23.5937 25.4349
Au 14.16 24.9248 23.0519
Au 13.7295 25.8001 20.0712
Au 13.4986 26.4884 17.2317
Au 16.6833 24.4949 28.8828
Au 16.2126 25.3814 26.608
Au 16.1474 26.8246 23.9206
Au 15.4521 27.7776 21.0998
Au 15.2425 28.6418 18.3572
Au 18.5407 26.4359 29.5265
Au 17.8725 27.5163 27.1219
Au 17.9841 28.8143 24.7899
Au 17.1097 29.4666 22.093
Au 16.5734 30.5399 19.6328
Au 20.9245 25.686 28.9923
Au 20.8186 26.936 26.688
Au 20.4028 28.1216 24.0011
Au 19.9659 29.1932 21.2893
Au 19.2813 30.3834 18.9983
Au 23.5819 25.0016 28.4421
Au 23.4768 26.2225 26.1699
Au 22.9755 27.4587 23.3766
Au 22.7375 28.6003 20.7958
Au 22.5065 29.5273 18.1341
Au 26.1374 24.1393 27.9048
Au 26.4558 25.213 25.2456
Au 25.9043 26.6043 22.4639
Au 25.3664 27.9041 19.735
Au 25.1249 28.9724 17.3453
Au 28.5752 23.4964 26.8296
Au 29.028 24.2081 24.2047
Au 28.4142 25.6388 21.9404
Au 27.8976 26.8969 19.3922
Au 27.4176 28.0764 16.9042
Au 28.7921 20.8825 26.0745
Au 28.8957 21.8282 23.2835
Au 28.5162 23.1714 20.8965
Au 28.0838 24.4032 18.3683
Au 27.6986 25.3641 15.855
Au 28.8455 18.041 24.678
Au 28.7225 19.1776 22.2484
Au 28.1244 20.5172 19.5301
Au 28.0861 21.8131 17.1911
Au 27.5536 22.9038 14.7248
Au 28.8105 15.4653 23.2082
Au 28.4689 16.6299 20.9525
Au 28.1709 17.7228 18.2469
Au 28.0338 19.2394 15.7863
Au 27.551 20.4353 13.3422
Au 28.3981 13.0021 22.2395
Au 28.152 14.1426 19.7233
Au 27.8742 15.252 17.294
Au 27.7109 16.5682 14.6813
Au 27.5006 17.7643 12.3345
Au 25.7519 12.2867 22.6642
Au 25.7131 13.0151 19.7884
Au 25.2843 14.1404 17.0297
Au 25.1464 15.5733 14.472
Au 25.0497 16.8889 11.8147
Au 23.0839 11.542 22.3218
Au 22.7466 12.3577 19.6068
Au 22.6565 13.5588 16.9594
Au 22.5052 14.9276 14.5077
Au 22.3305 16.1976 11.791
Au 20.2585 10.585 22.2034
Au 19.8988 11.4971 19.589
Au 19.4106 12.6079 16.8709
Au 19.9442 13.9584 14.3757
Au 19.8249 15.0351 11.775
Au 17.4588 9.78447 22.1821
Au 17.2579 10.9784 19.5431
Au 16.643 12.3013 17.06
Au 17.4793 13.0407 14.6331
Au 17.456 14.0125 12.1353
Au 15.8254 11.7402 23.1341
Au 15.3337 12.9892 20.3553
Au 15.0424 14.2249 17.9755
Au 15.255 15.1028 15.3244
Au 15.3457 15.9754 12.7549
Au 14.2613 13.9256 24.2838
Au 13.8066 14.9833 21.8919
Au 13.6122 16.1704 19.2822
Au 13.5564 16.7626 16.5486
Au 13.5726 18.0524 13.9314
Au 12.8366 16.0483 25.328
Au 12.4231 17.2938 22.8782
Au 12.0501 18.3785 20.447
Au 12.0103 19.1328 17.4383
Au 11.942 19.8069 14.9307
