318
 Atoms. Timestep: 50000
Au 21.3237 16.3743 29.4849
Au 20.9047 17.5007 27.08
Au 21.0548 18.7095 24.3943
Au 20.5465 19.7267 21.6191
Au 20.2608 20.7938 18.9236
Au 20.0137 22.0589 16.5015
Au 19.8962 23.2379 13.8054
Au 19.4855 24.1392 11.3302
Au 18.6606 16.8629 28.5318
Au 18.6559 18.0981 25.9619
Au 18.4745 19.1139 23.2627
Au 18.0403 20.3775 20.4126
Au 17.8134 21.5646 17.9226
Au 17.5138 22.685 15.2461
Au 17.1855 23.7302 12.7162
Au 20.6794 19.1561 29.3587
Au 20.2558 20.2419 26.9421
Au 19.8421 21.2985 24.114
Au 19.8834 22.4568 21.4321
Au 19.459 23.7 18.8644
Au 19.1733 24.6812 16.1404
Au 18.7799 25.8622 13.7064
Au 23.2837 18.2883 28.651
Au 22.9385 19.437 26.2748
Au 22.5252 20.658 23.4825
Au 22.4947 21.6024 20.8077
Au 22.081 22.8879 18.2813
Au 22.0028 24.1674 15.4963
Au 21.6493 25.3454 12.9253
Au 22.8441 15.4981 27.6547
Au 22.8762 16.734 25.0855
Au 22.6934 17.8881 22.1357
Au 22.4962 19.0913 19.4248
Au 22.2375 20.3768 16.8547
Au 21.7728 21.3074 14.2425
Au 21.5752 22.6539 11.7724
Au 20.2512 14.8868 27.3593
Au 20.1657 16.0564 24.8561
Au 19.8538 16.8411 22.1146
Au 19.5942 18.1552 19.4349
Au 19.6255 19.2413 16.7321
Au 19.1581 20.6086 14.2013
Au 18.8524 21.6756 11.5258
Au 16.4635 17.3267 27.1818
Au 16.1937 18.7314 24.7814
Au 15.8338 19.6928 22.126
Au 15.4451 20.9848 19.4461
Au 15.1829 21.9978 16.8201
Au 14.8285 23.0816 14.2171
Au 17.919 19.5682 28.4928
Au 17.8095 20.7842 25.8018
Au 17.5041 21.8786 22.9052
Au 17.3045 23.2027 20.3358
Au 16.8885 24.2789 17.5518
Au 16.5447 25.2233 15.0289
Au 19.4731 21.8051 29.1162
Au 19.4322 23.0584 26.5342
Au 19.265 24.102 23.6299
Au 18.9147 25.6132 21.1129
Au 18.4786 26.2653 18.4337
Au 18.179 27.3111 15.7857
Au 22.4378 21.0247 28.5294
Au 22.0969 22.209 25.8632
Au 21.9931 23.4047 23.2431
Au 21.654 24.4896 20.7053
Au 21.2657 25.6571 17.7935
Au 20.9203 26.7231 15.4351
Au 24.9426 20.2542 27.7068
Au 24.5743 21.2463 25.2895
Au 24.484 22.3869 22.7007
Au 24.2591 23.6557 19.8884
Au 23.9575 25.0052 17.2988
Au 23.6821 26.0302 14.6825
Au 25.0555 17.4029 26.8142
Au 24.6425 18.5591 24.1029
Au 24.3652 19.7901 21.4123
Au 24.4749 21.0767 18.6438
Au 24.0382 22.3361 15.8636
Au 23.7573 23.5779 13.3569
Au 24.904 14.8764 25.3246
Au 24.5126 15.9584 22.931
Au 24.5397 17.137 20.14
Au 24.1088 18.1645 17.2968
Au 23.9537 19.404 14.7387
Au 23.7027 20.8814 12.2824
Au 22.0368 14.0606 25.5391
Au 21.8444 15.328 22.8587
Au 21.6348 16.2213 20.0363
Au 21.4819 17.4978 17.2839
Au 21.2179 18.6557 14.5612
Au 20.9303 19.9266 12.0085
Au 19.2998 13.3142 25.1029
Au 19.1982 14.2174 22.714
Au 18.8184 15.2911 19.9606
Au 18.6098 16.6395 17.1755
Au 18.4081 18.0595 14.454
Au 18.3742 19.1428 11.8736
Au 17.7705 15.1959 26.6715
Au 17.589 16.2595 24.0423
Au 17.3726 17.4657 21.1555
Au 17.255 18.8858 18.2407
Au 16.8963 20.0047 15.6052
Au 16.5696 21.0973 13.0468
Au 13.8639 17.9446 26.2437
Au 13.4246 19.2235 23.7258
Au 12.8849 20.3098 21.0732
Au 12.6705 21.4531 18.4026
Au 12.8841 22.0996 15.7677
Au 15.4258 20.1891 27.0192
Au 15.3612 21.2842 24.4018
Au 14.7516 22.4699 21.8305
Au 14.575 23.5066 19.1092
Au 14.3011 24.6639 16.632
Au 17.1337 22.3887 28.0089
Au 17.009 23.5064 25.3579
Au 16.591 24.5003 22.8141
Au 16.3189 25.7965 20.1091
Au 15.8172 26.9491 17.3267
Au 18.8284 24.3011 28.867
Au 18.6566 25.6503 26.1919
Au 18.2866 26.8476 23.5528
Au 17.9532 28.0562 20.863
Au 17.7318 28.8146 18.1622
Au 21.5488 23.6597 28.226
Au 21.3725 24.7569 25.7134
Au 21.1316 26.0892 22.9593
Au 20.7593 27.2298 20.0663
Au 20.3849 28.554 17.5695
Au 24.3239 23.0531 27.5136
Au 23.9867 24.1092 24.9884
Au 23.8094 25.2502 22.2661
Au 23.5497 26.4809 19.7616
Au 23.0388 27.6327 17.08
Au 26.8278 22.2058 26.7107
Au 26.5647 23.3211 24.2191
Au 26.3519 24.7644 21.5399
Au 26.1702 25.8648 18.8323
Au 25.7552 26.9063 16.2723
Au 26.8337 19.6056 25.7424
Au 26.5724 20.6281 23.3316
Au 26.161 21.7635 20.6261
Au 26.0677 23.2807 17.8799
Au 25.8074 24.3016 14.9741
Au 26.7591 16.9888 24.6589
Au 26.441 17.816 22.0336
Au 26.1624 19.0767 19.1264
Au 25.8143 20.2601 16.4113
Au 25.5354 21.6723 13.778
Au 26.6039 14.2816 23.319
Au 26.5437 15.0333 20.6427
Au 26.109 16.4228 18.0185
Au 26.0603 17.6355 15.1821
Au 25.6124 19.0496 12.6817
Au 23.9987 13.3323 23.1653
Au 23.8124 14.5299 20.6147
Au 23.4415 15.6502 18.0313
Au 23.1941 16.7463 14.9884
Au 22.9936 18.1072 12.5169
Au 21.3674 12.5167 23.3489
Au 20.8977 13.5437 20.6607
Au 20.676 14.7984 17.8064
Au 20.5204 15.9329 14.9205
Au 20.1396 17.2397 12.5576
Au 18.4588 11.702 22.8397
Au 18.2734 12.5965 20.322
Au 17.8174 13.9 17.5154
Au 17.844 14.9341 14.9454
Au 17.5774 16.1747 12.6133
Au 16.805 13.6938 24.2103
Au 16.7674 14.9274 21.7285
Au 16.4016 16.2005 18.6553
Au 16.1077 17.2711 16.011
Au 16.1029 18.4683 13.4116
Au 15.2585 15.6911 25.3033
Au 15.08 17.0372 22.7359
Au 15.0093 18.1424 19.9586
Au 14.5537 19.2963 17.2765
Au 14.3223 20.1994 14.5538
Au 11.225 18.5185 25.0755
Au 10.527 19.7259 22.5234
Au 10.1257 20.7477 19.9864
Au 10.2878 21.7868 17.5238
Au 12.931 20.5206 26.2649
Au 12.6028 21.7434 23.6025
Au 12.4213 23.0033 20.7684
Au 12.0267 23.9336 18.1131
Au 14.7578 22.8898 26.9422
Au 14.3016 23.9508 24.3567
Au 14.0467 25.0199 21.6212
Au 13.7543 26.1388 18.8686
Au 16.3396 24.9385 27.8578
Au 16.048 25.9828 25.0474
Au 15.7043 27.2872 22.4979
Au 15.368 28.4278 19.7344
Au 18.2141 27.1719 28.2093
Au 17.706 28.519 25.7048
Au 17.5292 29.6757 23.2715
Au 17.2972 30.5079 20.2579
Au 20.829 26.2779 27.9094
Au 20.3998 27.3525 25.301
Au 20.304 28.6161 22.5908
Au 20.0016 29.8342 19.8587
Au 23.478 25.6349 27.2113
Au 23.2118 26.8974 24.5431
Au 23.0744 28.0138 22.133
Au 22.7061 29.1996 19.4697
Au 26.3213 24.8683 26.5451
Au 25.9126 26.2026 24.0586
Au 25.6722 27.3229 21.4426
Au 25.2581 28.492 18.7461
Au 28.7901 23.9167 25.7333
Au 28.6085 25.3671 23.2495
Au 28.4204 26.657 20.7904
Au 27.8521 27.7622 18.1173
Au 28.5407 21.4669 24.6439
Au 28.4504 22.7471 22.1928
Au 28.0779 23.9577 19.5601
Au 27.7855 25.1366 16.727
Au 28.593 18.5125 23.3455
Au 28.215 19.9078 20.9758
Au 27.8707 21.287 18.4146
Au 27.6715 22.3572 15.849
Au 28.5067 16.1047 22.4349
Au 28.1915 17.2729 19.8809
Au 27.7989 18.5446 17.2012
Au 27.5469 19.7363 14.3011
Au 28.3258 13.2342 21.1872
Au 28.2401 14.5004 18.5408
Au 27.9238 15.4969 16.0511
Au 27.6619 16.7426 13.3828
Au 25.7492 12.4258 21.1069
Au 25.474 13.7222 18.3865
Au 25.0452 15.0222 15.8127
Au 24.9453 16.1887 13.1088
Au 23.1312 11.7615 20.9582
Au 22.7269 13.0011 18.4403
Au 22.4686 14.0094 15.8067
Au 22.1704 15.2671 12.9582
Au 20.4145 10.7962 21.173
Au 19.9197 12.1965 18.3004
Au 19.687 13.1429 15.7315
Au 19.5953 14.2134 12.8073
Au 17.6256 10.1047 20.711
Au 17.1585 11.2254 17.9911
Au 16.8599 12.4387 15.4245
Au 16.6296 13.5367 12.901
Au 15.9008 12.2279 22.1327
Au 15.8666 13.5768 19.3219
Au 15.3779 14.7908 16.6133
Au 15.1055 15.7082 13.9727
Au 14.3746 14.3369 23.0907
Au 14.1524 15.524 20.4996
Au 13.7918 16.7962 17.7503
Au 13.5018 17.6543 15.2142
Au 12.7813 16.1598 24.2013
Au 12.4228 17.6405 21.5509
Au 12.2961 18.9244 18.9736
Au 11.8878 19.6351 16.2013
Au 10.4308 21.0438 25.0113
Au 10.3871 22.3936 22.4105
Au 10.0385 23.3319 19.8598
Au 12.2269 23.0954 25.9863
Au 11.867 24.4963 23.3634
Au 11.6841 25.5942 20.7181
Au 13.8844 25.4485 26.5257
Au 13.5535 26.7185 23.8688
Au 13.2381 27.7562 21.2922
Au 15.6437 27.5066 27.2594
Au 15.339 28.7856 24.608
Au 15.2208 29.805 21.8128
Au 19.8516 29.051 27.256
Au 19.8014 30.054 24.7185
Au 19.5242 31.2584 22.0195
Au 22.4368 28.2576 26.8751
Au 22.2814 29.5424 24.3261
Au 22.1795 30.5579 21.6999
Au 25.2983 27.6323 26.2082
Au 25.1055 28.7844 23.8692
Au 24.8228 29.9235 21.184
Au 27.9258 26.711 25.5984
Au 27.6416 28.0611 23.2841
Au 27.2833 28.9888 20.4506
Au 30.4196 23.1355 23.768
Au 30.2882 24.3441 21.2143
Au 29.5755 25.6693 18.6828
Au 30.2402 20.7323 22.5548
Au 30.0241 21.7985 20.0739
Au 29.5556 23.0981 17.3959
Au 30.3231 18.0344 21.1266
Au 29.8541 19.4355 18.7782
Au 29.4379 20.3804 16.0638
Au 29.8936 15.4079 20.254
Au 29.5977 16.7059 17.7057
Au 29.2045 17.8201 15.27
Au 27.2552 12.0361 18.9394
Au 26.9026 12.902 16.1765
Au 26.7576 14.2792 13.9991
Au 24.6859 11.0434 19.0274
Au 24.3087 11.9738 16.3575
Au 24.002 13.3424 13.765
Au 21.8996 10.5481 18.7422
Au 21.6833 11.5026 16.2229
Au 21.3292 12.6596 13.7428
Au 19.3338 9.63216 18.8812
Au 19.1201 10.535 16.238
Au 18.6592 11.9582 13.5094
Au 15.1923 11.0438 19.7908
Au 14.846 12.0257 17.1877
Au 14.3323 13.24 14.665
Au 13.4727 12.9434 20.8929
Au 13.3282 14.1685 18.2841
Au 12.6316 15.05 15.8204
Au 11.9076 14.932 21.9483
Au 11.5567 15.9994 19.3222
Au 11.0113 17.1347 17.0559
Au 10.5288 16.9837 23.0133
Au 9.96773 17.8647 20.2633
Au 9.58794 19.041 17.8994
