32
 Atoms. Timestep: 50000
Au 20.0678 23.7319 19.056
Au 17.8614 21.1372 21.8385
Au 17.8012 19.1387 23.6235
Au 16.4143 20.0571 19.8572
Au 23.8754 22.1364 21.4128
Au 19.6993 20.0082 16.8598
Au 19.9441 19.4567 21.8898
Au 21.3166 21.7417 17.7702
Au 19.8962 17.041 20.5257
Au 20.3183 18.9309 24.5401
Au 21.8391 17.6734 22.7545
Au 19.2813 23.4719 21.7561
Au 23.6534 20.9598 18.8753
Au 17.0056 20.5486 17.4046
Au 21.2224 21.8217 20.9017
Au 23.2396 19.5078 21.1655
Au 22.1551 20.6139 23.2412
Au 19.6985 21.674 23.78
Au 19.2062 17.0008 23.1397
Au 21.5411 24.7585 21.1617
Au 21.8931 23.1524 23.056
Au 23.8319 18.3551 18.4393
Au 21.3259 19.365 19.294
Au 22.2372 19.3958 16.7416
Au 17.5494 18.2984 21.2286
Au 22.7826 23.4023 19.4259
Au 18.5441 22.5638 17.1679
Au 22.6025 16.9919 20.3046
Au 18.4037 18.4665 18.5537
Au 19.0121 20.8791 19.3465
Au 20.9284 17.4897 17.8263
Au 17.4922 22.8695 19.7018
