33
 Atoms. Timestep: 50000
Au 22.6081 17.6539 20.9826
Au 18.0665 19.3844 17.579
Au 24.1882 21.6534 22.4648
Au 19.9548 21.3181 19.1143
Au 17.5973 21.9625 18.2624
Au 19.2454 16.9283 17.7327
Au 19.0433 24.2396 19.0467
Au 21.7407 16.6272 18.6622
Au 18.4507 19.5965 24.3549
Au 21.7647 23.6594 19.0441
Au 20.0668 16.4 20.5206
Au 20.9155 18.8593 17.1506
Au 18.9201 22.2308 23.8587
Au 19.7161 23.2511 17.0456
Au 21.9397 20.9072 20.8137
Au 24.8032 19.7089 20.8967
Au 21.8786 21.469 17.621
Au 22.9142 23.6853 21.4341
Au 23.7828 21.9591 19.5379
Au 20.1392 23.2079 21.5271
Au 20.0211 18.7411 19.7336
Au 17.733 22.7203 20.8544
Au 17.9086 18.2536 22.0288
Au 20.8046 20.1525 24.4989
Au 20.4091 17.8558 22.6684
Au 17.4031 20.064 20.1388
Au 16.9888 21.0314 22.5214
Au 19.4961 20.3983 21.9715
Au 21.8167 22.1732 23.3044
Au 17.5806 17.4263 19.5477
Au 22.8979 19.1401 19.0175
Au 22.8199 19.4786 22.9109
Au 19.4196 20.8981 16.189
