33
 Atoms. Timestep: 50000
Au 21.959 17.2716 22.6344
Au 17.9536 19.0476 17.1631
Au 23.2021 18.5514 20.236
Au 19.6976 19.4532 19.1288
Au 17.1587 21.2964 18.7585
Au 20.3773 17.6697 17.1058
Au 20.0948 24.0257 20.5776
Au 21.3368 17.0467 19.5765
Au 17.9017 19.1489 22.1515
Au 21.7116 24.0439 18.461
Au 22.3126 21.9618 17.0305
Au 19.3913 20.7013 23.9519
Au 19.3935 23.3447 23.0983
Au 19.622 22.4891 18.5709
Au 21.748 21.3782 19.5157
Au 22.3557 19.2047 17.8468
Au 20.7653 19.3244 21.5786
Au 23.9328 21.1565 20.9959
Au 24.17 22.8256 18.8275
Au 17.2894 23.1927 20.8524
Au 18.5836 16.9274 18.898
Au 16.154 20.9822 21.0388
Au 16.8544 18.8989 19.5767
Au 21.4562 19.4745 24.3073
Au 19.3535 17.8131 23.7786
Au 24.5098 20.4253 18.5767
Au 17.2064 21.7866 23.1982
Au 19.035 21.2991 21.0076
Au 21.5506 21.7976 22.6776
Au 22.7728 23.5485 20.9167
Au 19.4053 17.0613 21.38
Au 23.4447 19.3383 22.9168
Au 20.3349 20.5483 16.7005
