35
 Atoms. Timestep: 50000
Au 17.3603 18.812 23.0284
Au 19.8651 17.557 16.9403
Au 21.4793 24.2048 18.6907
Au 18.7669 24.1951 19.4441
Au 23.7973 19.9747 17.6228
Au 17.907 23.3398 21.9063
Au 18.2511 19.9761 17.7356
Au 21.0886 19.8937 18.5501
Au 17.9939 17.5991 18.5823
Au 17.6918 16.9796 21.0163
Au 19.5244 19.2478 24.518
Au 19.726 22.2012 17.7118
Au 19.6846 17.5969 22.642
Au 20.2209 17.5181 19.7922
Au 16.4662 21.1986 22.1685
Au 23.8018 19.4726 22.9784
Au 23.2122 21.697 21.9406
Au 16.4153 19.3038 20.0217
Au 17.652 21.6649 19.5997
Au 19.0253 21.1966 22.9302
Au 18.8195 19.6411 20.6922
Au 20.9683 23.1226 23.0216
Au 22.3782 17.3998 21.7292
Au 22.0463 18.5674 16.5025
Au 23.5166 19.5982 20.3038
Au 20.1827 24.8562 21.3671
Au 23.0533 22.0925 19.2874
Au 22.2477 21.8368 16.8429
Au 20.361 22.1947 20.2742
Au 21.7332 20.8512 24.3029
Au 22.6465 23.9602 21.084
Au 21.3483 19.9618 21.783
Au 21.8424 18.2869 24.1277
Au 20.2398 20.2072 15.9078
Au 22.5114 17.6189 18.7786
