35
 Atoms. Timestep: 50000
Au 20.0352 21.659 23.0509
Au 20.2423 22.3005 16.0973
Au 18.6255 18.411 17.4682
Au 16.5776 20.2423 18.1302
Au 22.0779 23.9446 20.1051
Au 23.8678 22.1167 19.6749
Au 22.4375 23.071 22.4157
Au 19.9337 17.57 22.5754
Au 20.7843 19.2225 24.6016
Au 19.1705 19.4851 20.7344
Au 24.0234 21.1296 22.0868
Au 23.8245 19.5253 24.3467
Au 19.8948 23.6752 18.5384
Au 22.3313 21.4379 24.4076
Au 19.4184 16.8275 20.0055
Au 23.1872 19.7002 19.7446
Au 21.6954 19.7516 22.2612
Au 17.7387 22.7513 17.3677
Au 22.5132 17.4066 23.4871
Au 19.793 23.7591 21.5156
Au 17.057 17.9133 19.4715
Au 16.4267 19.9761 21.0521
Au 21.064 21.476 20.2653
Au 17.4373 22.1706 22.4093
Au 18.0754 21.9768 19.9706
Au 21.9706 17.2941 20.8725
Au 19.5761 20.6652 18.2877
Au 18.0802 19.7927 23.1298
Au 17.5791 17.2891 21.8822
Au 20.5901 19.5286 16.0364
Au 24.2579 18.578 21.9357
Au 22.1212 23.3168 17.7709
Au 18.0449 20.5211 15.9166
Au 22.2958 20.8556 17.6839
Au 21.0767 18.484 18.5254
