35
 Atoms. Timestep: 50000
Au 19.8091 19.1928 16.4511
Au 19.7182 16.908 23.794
Au 20.6441 23.7218 22.383
Au 22.1462 16.5106 22.5864
Au 18.8646 24.5501 20.5216
Au 17.9704 17.7648 19.5674
Au 17.7488 17.5599 16.9467
Au 17.1956 20.4638 23.3478
Au 20.253 17.7459 21.0193
Au 24.455 19.0757 19.2768
Au 23.5392 21.4773 18.8691
Au 20.0875 17.2301 18.2478
Au 17.2352 19.8617 17.8954
Au 21.4421 21.2958 17.533
Au 21.5633 18.8959 23.1732
Au 19.6736 21.7653 23.8802
Au 23.8286 18.5662 21.9219
Au 18.948 19.1245 24.5968
Au 22.0757 18.7888 18.1201
Au 18.7966 21.7143 16.8815
Au 21.9923 19.9066 20.5364
Au 24.3105 21.0091 21.3005
Au 21.1413 25.4515 19.7611
Au 19.6285 19.9589 18.9915
Au 20.648 22.4117 20.194
Au 22.2552 23.7483 18.2925
Au 17.9753 18.0661 22.3748
Au 19.4629 20.1935 21.8427
Au 22.5728 17.0532 20.0437
Au 22.8076 23.4158 20.9363
Au 22.124 21.5311 22.6371
Au 17.0364 20.0065 20.7156
Au 17.9725 22.2447 19.2675
Au 18.1227 22.6066 21.9513
Au 19.7801 24.008 17.9668
