35
 Atoms. Timestep: 50000
Au 23.4223 20.4184 18.6109
Au 17.2463 19.462 22.4146
Au 16.5594 20.0136 19.7565
Au 21.5317 23.7545 21.1749
Au 22.9755 23.0375 23.3491
Au 22.8121 23.4532 18.8971
Au 21.9685 20.7807 24.8787
Au 19.1576 20.9291 21.3291
Au 20.3709 22.9582 23.3393
Au 19.041 19.1502 15.8499
Au 24.2092 20.5301 23.3052
Au 22.0858 18.4498 23.4677
Au 23.7186 22.0045 21.0699
Au 22.2492 22.0234 16.9645
Au 19.8968 17.2486 18.1159
Au 18.8829 23.595 21.062
Au 21.7618 20.8426 22.2516
Au 16.9774 20.2588 16.7952
Au 22.5668 16.6875 21.5714
Au 17.9069 22.3779 23.4074
Au 19.0142 19.7535 18.6085
Au 21.1384 21.4372 19.2868
Au 17.3677 17.7876 17.5362
Au 19.62 21.5588 16.7448
Au 20.2621 23.7216 18.5201
Au 17.8973 22.2651 18.8145
Au 19.6453 17.8841 22.7924
Au 19.7221 20.1871 23.9841
Au 16.715 21.9707 21.3075
Au 18.2433 17.9781 20.3949
Au 23.4916 19.0871 20.9895
Au 21.3823 19.3834 17.4517
Au 20.476 16.3028 20.2374
Au 22.6329 17.6517 18.9678
Au 20.876 18.8805 20.5778
