36
 Atoms. Timestep: 50000
Au 23.275 16.9598 18.7921
Au 16.7414 20.9355 22.3802
Au 17.438 18.687 20.4904
Au 22.5445 23.4916 18.6138
Au 22.1799 22.5085 22.7803
Au 19.8911 23.7325 19.4001
Au 20.2857 22.6391 24.5281
Au 19.5341 21.2477 22.3635
Au 19.9693 23.9893 22.0897
Au 19.3205 19.9768 16.7193
Au 22.3218 19.9173 22.4288
Au 20.8251 21.8353 17.6782
Au 23.3347 21.1192 17.935
Au 20.7779 20.1 24.5449
Au 20.2543 18.7936 21.0619
Au 22.4048 24.3101 21.0464
Au 23.9417 19.4839 20.0171
Au 17.1663 19.729 17.9301
Au 20.6476 17.5923 23.3638
Au 18.1903 21.0984 24.7782
Au 19.086 20.6652 19.6573
Au 23.8897 18.6708 17.2585
Au 21.1048 17.2791 16.7922
Au 18.1165 22.2999 18.0001
Au 16.2864 21.1024 19.7452
Au 21.5972 21.6576 20.321
Au 19.1126 16.5079 21.1443
Au 18.3085 18.8442 23.0635
Au 17.8991 23.2042 23.4548
Au 21.8169 19.7225 16.1058
Au 22.6718 17.5728 21.4159
Au 17.6183 22.9698 20.6787
Au 19.1386 17.8424 18.5842
Au 20.9719 16.3628 19.5909
Au 21.5209 19.1415 18.6926
Au 24.0366 22.23 20.7732
