36
 Atoms. Timestep: 50000
Au 22.3426 17.28 18.9047
Au 17.117 19.5409 22.1118
Au 17.8686 18.1782 19.4047
Au 21.7772 23.4887 18.0898
Au 22.3847 22.6625 22.6332
Au 19.5661 23.2386 19.4746
Au 20.3963 22.2985 24.5771
Au 19.932 20.0951 22.4686
Au 21.671 24.2496 20.7161
Au 20.1158 20.053 15.803
Au 22.4088 20.2888 24.0001
Au 21.0234 20.8182 18.1281
Au 24.1917 20.934 21.8718
Au 19.978 19.9463 25.4555
Au 20.947 18.0374 23.7619
Au 23.6836 22.6307 19.8824
Au 23.612 20.0196 19.2573
Au 18.005 20.2451 17.433
Au 20.3749 18.6763 20.0282
Au 18.0388 21.1167 23.9784
Au 18.5392 20.7452 19.9591
Au 21.6387 22.0641 15.8
Au 20.0122 18.0034 17.5192
Au 17.2873 22.5328 18.752
Au 16.1268 20.2271 19.6556
Au 23.8149 21.5372 17.2884
Au 18.9907 17.278 21.8528
Au 18.3043 18.4086 24.2256
Au 19.5134 22.8643 22.1837
Au 22.5748 19.1608 16.9108
Au 21.5063 21.4153 20.7063
Au 17.0378 22.1979 21.5961
Au 19.9858 16.1249 19.6301
Au 21.5497 16.5903 21.4932
Au 19.2159 22.4296 16.9945
Au 22.6876 18.8423 21.672
