36
 Atoms. Timestep: 50000
Au 22.2493 17.2172 18.3811
Au 17.0969 21.0025 21.9208
Au 17.3735 18.4408 20.8941
Au 22.0464 23.7137 19.0879
Au 22.5213 21.8108 22.7933
Au 19.4486 23.7668 20.1022
Au 20.2815 23.0679 24.1763
Au 19.6952 21.5013 21.989
Au 21.1665 24.1246 21.7823
Au 19.2246 19.973 16.2845
Au 22.766 18.9093 23.0229
Au 20.7883 19.4814 18.4584
Au 24.4415 20.8581 21.0393
Au 20.752 20.2932 24.2193
Au 20.6259 19.0959 21.3764
Au 23.8077 23.5468 21.0647
Au 23.7011 19.6464 18.6403
Au 17.9081 18.7178 18.1115
Au 20.8182 17.4311 23.655
Au 18.2599 21.5418 24.2609
Au 18.5752 20.677 19.7781
Au 22.309 21.496 17.3121
Au 20.0799 17.4231 16.7879
Au 17.2096 21.342 17.6243
Au 15.8202 20.027 19.5517
Au 24.3848 22.1824 18.8331
Au 19.2177 16.7795 21.9409
Au 18.4782 19.1496 23.2324
Au 18.2239 23.5096 22.419
Au 22.0411 18.8759 16.3418
Au 23.2957 18.3487 20.7092
Au 16.9811 22.7235 19.8959
Au 19.4434 17.2762 19.466
Au 21.513 16.6317 21.0474
Au 19.7048 22.3537 17.7877
Au 21.9699 21.2839 20.2322
