38
 Atoms. Timestep: 50000
Au 18.0691 21.5051 24.4232
Au 16.6731 17.9757 21.921
Au 21.5961 20.4926 22.0679
Au 17.1877 21.9346 19.3781
Au 24.3894 19.0545 18.9885
Au 20.4431 19.9536 16.7232
Au 17.8009 20.3383 17.2348
Au 20.1319 19.7283 24.3195
Au 23.3269 19.8531 16.6455
Au 19.6048 24.7202 22.3822
Au 20.7427 18.0589 20.4793
Au 24.0544 21.4966 20.7203
Au 20.858 15.8202 19.0003
Au 23.57 18.9026 21.3341
Au 17.4954 19.1264 24.1208
Au 21.7868 17.8456 23.0549
Au 20.441 22.5702 20.3352
Au 22.9151 16.6396 20.4069
Au 19.1608 22.6024 17.7953
Au 22.1718 17.8777 17.8977
Au 20.6991 15.5674 21.7813
Au 22.1562 20.2531 19.1733
Au 21.7673 22.2116 17.2993
Au 16.4452 20.643 21.9239
Au 18.1038 22.686 21.8789
Au 22.3839 23.3506 22.0964
Au 19.2096 17.5148 22.8571
Au 19.5499 20.3507 19.192
Au 19.5593 17.963 17.9938
Au 18.8867 20.0485 21.9623
Au 17.2995 19.0334 19.655
Au 20.0988 22.3322 23.2764
Au 18.7088 24.4317 19.7915
Au 18.453 16.7882 20.2639
Au 21.1324 25.3882 20.8079
Au 22.9201 23.6771 19.4577
Au 24.242 21.7116 18.0236
Au 20.9753 24.5627 18.3472
