38
 Atoms. Timestep: 50000
Au 20.3021 18.1845 24.1951
Au 22.827 23.8822 19.2483
Au 18.0987 20.8708 17.7072
Au 20.0971 22.2613 16.3265
Au 24.1146 17.5217 21.4451
Au 23.1613 19.5335 17.2983
Au 18.8907 17.8025 21.9636
Au 22.4797 22.2516 17.0974
Au 16.515 21.6171 19.893
Au 20.9647 19.8113 22.2976
Au 18.5152 23.31 18.9638
Au 23.8599 20.1182 21.5873
Au 21.5087 17.065 21.8848
Au 20.5571 23.3533 23.0034
Au 21.3442 17.4388 17.2032
Au 22.9052 18.7069 23.7747
Au 18.2791 23.0193 23.8783
Au 18.4448 20.0369 23.4205
Au 23.716 21.2348 19.1853
Au 18.4658 18.1739 17.5617
Au 22.3659 22.4908 21.4019
Au 20.544 24.212 17.7572
Au 22.7851 21.1419 23.7492
Au 19.1349 21.6106 21.439
Au 17.7718 23.7667 21.4794
Au 20.4875 19.8628 17.1383
Au 21.8539 19.1555 19.6255
Au 20.1918 17.082 19.5783
Au 16.5564 21.5634 22.5382
Au 17.4754 17.2443 19.8056
Au 20.8214 21.8862 19.2351
Au 20.3329 24.4015 20.6327
Au 19.0695 19.4967 19.7975
Au 16.1714 19.2808 18.5479
Au 22.9448 16.564 19.3257
Au 20.2205 21.1028 24.7234
Au 24.5411 18.482 19.1463
Au 16.6948 19.4724 21.1541
