38
 Atoms. Timestep: 50000
Au 17.8583 20.0397 17.8239
Au 19.3455 23.4337 22.7646
Au 20.5623 19.2844 22.3805
Au 22.8359 17.8532 21.2888
Au 17.1535 23.6819 21.1495
Au 16.9772 18.4348 19.8201
Au 19.2185 20.9141 24.1243
Au 17.7481 19.439 22.3757
Au 22.0172 23.0506 20.9808
Au 19.3372 17.7215 17.4816
Au 19.7482 19.7666 15.9774
Au 17.7645 22.7133 18.6549
Au 18.908 22.0729 16.3489
Au 21.195 19.3089 25.0584
Au 19.6765 24.1733 20.0861
Au 22.2918 23.8168 18.2765
Au 22.0521 20.3864 20.4433
Au 19.303 21.5627 21.2708
Au 23.1055 19.7049 23.2271
Au 20.2963 16.6762 21.6135
Au 19.1054 17.8268 23.9578
Au 20.3624 21.7523 18.6599
Au 21.5509 22.1141 16.2545
Au 16.883 21.7245 22.8575
Au 24.5945 20.1779 20.617
Au 19.5196 19.0208 19.7445
Au 16.8432 20.8941 20.2734
Au 23.5039 21.2014 18.1269
Au 24.044 22.0745 22.2281
Au 24.5232 22.6587 19.787
Au 21.3454 17.1593 18.8703
Au 19.8972 24.1283 17.4689
Au 23.713 18.6471 18.8798
Au 18.8129 16.204 19.5242
Au 21.5519 21.7688 23.256
Au 21.9702 17.4257 23.69
Au 21.5859 19.3865 17.7741
Au 17.8089 16.8104 21.8934
