38
 Atoms. Timestep: 50000
Au 19.2278 19.7618 16.9598
Au 21.6295 18.3511 16.6391
Au 17.5127 17.3235 20.2193
Au 24.2702 21.3376 21.8341
Au 19.6753 21.799 19.9289
Au 20.8722 24.2099 19.4179
Au 23.5417 19.2123 23.2013
Au 16.9898 18.4261 22.9253
Au 19.1884 20.6323 22.4951
Au 17.5785 21.3378 18.4819
Au 22.6574 22.6414 17.6672
Au 17.2463 22.3081 21.095
Au 22.5478 22.5866 20.3945
Au 20.1148 16.2454 20.3566
Au 18.0891 23.9661 18.7427
Au 19.4441 17.1621 17.9695
Au 18.2549 19.6304 24.6524
Au 20.9465 19.2492 24.0097
Au 19.9936 21.8061 24.8257
Au 16.8974 19.7878 20.6137
Au 17.0593 18.7636 18.1721
Au 23.9079 18.8852 20.6571
Au 24.0984 18.4857 18.035
Au 21.9617 17.1916 21.9751
Au 23.9365 20.6299 16.4738
Au 21.8145 17.8355 19.4033
Au 19.0426 24.5116 21.2577
Au 24.3884 20.972 19.1665
Au 22.4341 21.4829 23.5978
Au 21.8274 20.3912 18.389
Au 21.6589 20.9969 15.7941
Au 19.4524 19.2262 19.6308
Au 19.4728 18.0665 22.0501
Au 16.7052 21.156 23.3951
Au 21.6163 20.0646 21.4073
Au 19.9886 22.3711 17.4282
Au 20.6903 22.9886 22.3831
Au 18.2768 23.2162 23.3641
