38
 Atoms. Timestep: 50000
Au 16.741 20.2913 18.6601
Au 20.1833 24.0968 19.3288
Au 20.5454 20.5276 21.8714
Au 18.3699 21.4582 20.577
Au 15.7876 21.0026 21.4884
Au 19.1783 20.2448 17.422
Au 22.1263 23.4347 20.8562
Au 22.5632 23.7181 18.0669
Au 17.2099 22.8767 22.6088
Au 16.9103 18.56 20.7231
Au 22.4256 19.2654 20.2197
Au 19.2687 21.6738 23.9508
Au 17.6209 19.7574 22.9976
Au 22.8485 17.1805 18.4724
Au 19.4681 19.0429 19.7975
Au 19.7187 23.4156 21.9609
Au 23.8529 21.6913 19.3773
Au 17.7422 24.1469 20.4285
Au 18.2589 16.5061 19.7666
Au 15.9314 22.6652 19.7364
Au 20.5216 22.4911 17.0209
Au 19.1107 17.5903 22.1546
Au 20.1498 19.1208 24.3058
Au 23.7204 17.2336 21.1155
Au 17.4407 18.0609 17.7869
Au 21.6166 19.2485 17.495
Au 20.9804 21.4832 19.3374
Au 24.3995 19.0139 23.0076
Au 24.3147 19.4993 18.21
Au 21.0716 16.6772 20.3348
Au 21.6338 17.8661 22.6848
Au 22.8452 21.4438 16.9759
Au 21.7835 22.6947 23.5149
Au 20.0257 17.1926 17.8716
Au 22.2991 20.1349 23.9623
Au 23.2976 21.3914 21.9049
Au 25.0899 19.6392 20.843
Au 17.9581 22.6726 18.1737
