39
 Atoms. Timestep: 50000
Au 21.0982 23.673 22.8775
Au 20.5512 21.5716 21.392
Au 20.1908 19.1442 19.4197
Au 19.9403 17.0997 17.9243
Au 18.4486 23.1462 22.263
Au 18.1868 20.4838 20.9557
Au 17.6314 18.1578 19.6703
Au 20.1861 23.8172 20.1634
Au 19.2162 21.6101 18.6866
Au 18.3414 19.5361 17.2452
Au 22.7933 22.9902 20.7325
Au 22.0008 21.2057 18.8685
Au 21.2503 19.3819 17.0567
Au 22.9095 21.4495 22.9664
Au 22.5048 19.611 20.8759
Au 22.2728 17.4426 19.3597
Au 20.1112 21.2724 23.9569
Au 20.15 19.1461 22.4353
Au 20.0414 16.8125 20.8643
Au 16.1779 21.9931 21.5597
Au 15.8195 19.4006 21.522
Au 17.5825 23.3496 19.6855
Au 16.3959 20.6159 19.0175
Au 19.0668 23.9369 17.335
Au 17.5139 22.0822 16.7624
Au 21.4927 23.4351 17.9395
Au 20.1217 21.6381 16.2413
Au 24.2046 22.2825 18.4406
Au 22.675 21.607 16.3655
Au 24.8287 20.8801 20.7275
Au 23.7522 19.4005 18.2574
Au 24.1677 19.1671 22.843
Au 24.7367 18.1045 20.439
Au 21.9738 18.9511 24.2697
Au 22.4607 17.179 22.1782
Au 19.1231 18.7701 24.7788
Au 20.1435 16.6469 23.4863
Au 17.5719 20.5222 23.5746
Au 17.7709 17.8909 22.2678
