405
 Atoms. Timestep: 50000
Au 10.1869 24.2877 23.398
Au 11.7097 26.5857 24.17
Au 13.5668 28.3764 24.7272
Au 10.2776 20.6613 21.6253
Au 11.9429 22.6547 22.3409
Au 13.7493 25.0922 23.3466
Au 15.674 27.1061 23.719
Au 16.877 29.4602 24.516
Au 10.7605 17.1692 19.6757
Au 12.3379 19.1386 20.6773
Au 14.1614 21.3984 21.3804
Au 15.9339 23.5131 22.2505
Au 17.5985 25.5593 22.8778
Au 19.2141 27.8855 23.8462
Au 21.002 29.9329 24.571
Au 11.4495 13.4641 18.2111
Au 12.9068 15.4678 19.0432
Au 14.7638 17.6705 19.6826
Au 16.3331 19.7652 20.5544
Au 18.1285 21.9532 21.3489
Au 19.8024 24.0506 22.0739
Au 21.557 26.2493 22.8944
Au 23.2756 28.3325 23.6491
Au 24.828 30.4944 24.1491
Au 13.5226 11.9145 17.512
Au 15.0561 13.993 18.0608
Au 16.8524 16.0306 18.6682
Au 18.6406 18.1919 19.5375
Au 20.3007 20.4744 20.4938
Au 22.0311 22.5904 21.1271
Au 23.9351 24.9443 21.8566
Au 25.5448 27.0387 22.8273
Au 27.1786 28.8738 23.474
Au 15.9132 10.8145 16.4373
Au 17.7719 12.7272 17.1715
Au 19.1487 14.8384 17.9134
Au 20.871 16.7357 18.6886
Au 22.5319 18.7763 19.4807
Au 24.0873 21.0869 20.1089
Au 25.894 23.2489 21.0658
Au 27.6431 25.377 22.0492
Au 29.1408 27.3749 22.5198
Au 20.0346 11.0764 16.2029
Au 21.6086 13.135 16.9808
Au 23.2173 15.1385 17.8363
Au 24.8725 17.2731 18.8508
Au 26.3859 19.4869 19.4197
Au 28.3844 21.6515 20.1208
Au 29.9345 23.8958 21.0401
Au 23.8164 11.5537 16.053
Au 25.3227 13.8866 17.0054
Au 27.2857 15.8938 17.713
Au 28.8803 18.0678 18.5205
Au 30.6792 20.2178 19.0789
Au 27.6452 12.6697 16.0254
Au 29.2882 14.5814 16.7328
Au 30.8182 16.3572 17.7446
Au 10.0854 23.5289 20.774
Au 11.5077 25.712 21.4135
Au 13.2897 27.6639 22.1235
Au 15.0998 29.6157 22.6594
Au 10.1373 19.866 18.9527
Au 11.9892 21.7848 19.6015
Au 13.643 24.1776 20.5995
Au 15.3534 26.178 21.2058
Au 17.3084 28.3516 21.8527
Au 18.915 30.3763 22.7215
Au 10.9384 16.1519 17.3573
Au 12.501 18.2425 18.0058
Au 14.2689 20.134 18.8287
Au 16.109 22.5028 19.7067
Au 17.6441 24.8363 20.1967
Au 19.519 26.7168 21.0335
Au 21.1315 28.8217 21.9342
Au 22.8506 30.9269 22.6952
Au 12.9153 14.5293 16.2266
Au 14.6476 16.4808 16.8099
Au 16.3962 18.643 17.8014
Au 18.0572 20.9705 18.6965
Au 19.8895 22.8955 19.3393
Au 21.6811 25.194 20.173
Au 23.6351 27.3996 20.8552
Au 25.1024 29.6052 21.8127
Au 15.0524 13.0046 15.2741
Au 16.9134 15.035 15.9252
Au 18.686 17.206 16.7088
Au 20.1846 19.3947 17.6574
Au 21.9249 21.4421 18.2756
Au 23.9107 23.9291 19.3278
Au 25.8248 25.9886 19.9934
Au 27.2464 28.1247 20.7093
Au 17.3422 11.8721 14.6435
Au 19.4851 13.5641 15.0527
Au 21.1023 15.6898 15.9794
Au 22.5887 18.0453 16.7318
Au 24.4522 19.8622 17.4103
Au 26.1249 22.1422 18.3813
Au 27.7895 24.286 19.27
Au 29.3645 26.5026 19.9832
Au 21.6681 12.1083 14.3289
Au 23.2399 14.2508 14.9658
Au 24.8294 16.2605 15.8305
Au 26.8436 18.329 16.7251
Au 28.3671 20.6492 17.5785
Au 30.1527 22.8797 18.344
Au 25.4254 12.7143 14.3479
Au 27.0257 14.8967 14.8652
Au 28.9401 16.933 15.6734
Au 30.533 18.8419 16.5659
Au 9.75403 22.3271 17.9124
Au 11.5545 24.5169 18.651
Au 13.0954 26.7676 19.4446
Au 14.7764 28.7864 20.1423
Au 16.7635 30.79 20.8253
Au 10.3512 18.6577 16.4424
Au 11.985 20.8033 16.9637
Au 13.7326 22.8598 17.8485
Au 15.3027 25.1512 18.4782
Au 16.9985 27.3025 19.1665
Au 18.9233 29.298 19.9471
Au 20.7188 31.1689 20.9476
Au 12.4764 16.9008 15.2102
Au 14.1601 19.2774 15.9438
Au 15.9653 21.2635 16.7464
Au 17.6011 23.7513 17.5884
Au 19.5951 25.7908 18.3238
Au 21.3738 27.884 19.0791
Au 22.9302 30.0813 19.908
Au 14.7789 15.618 14.2562
Au 16.4378 17.7221 14.9997
Au 18.0488 19.9584 15.9229
Au 19.8387 22.0677 16.5904
Au 21.7725 24.1799 17.4916
Au 23.5683 26.4672 18.362
Au 25.2796 28.6605 18.9801
Au 17.0414 14.0423 13.1123
Au 18.7009 16.1012 14.013
Au 20.3367 18.3402 14.8682
Au 22.2761 20.4521 15.6558
Au 24.0992 22.6775 16.5792
Au 25.8168 24.8941 17.2419
Au 27.6445 26.9973 17.9804
Au 19.2431 12.5236 12.6022
Au 21.0566 14.6627 13.0994
Au 22.857 16.6537 13.9286
Au 24.5747 18.8977 14.9121
Au 26.2356 20.9759 15.7823
Au 27.9412 23.2288 16.7501
Au 29.5806 25.192 17.3645
Au 23.2093 13.3508 12.4409
Au 25.0115 15.1879 13.0615
Au 27.0508 17.5201 13.7427
Au 28.3673 19.675 14.858
Au 29.9402 21.5847 15.6471
Au 10.1506 21.324 15.367
Au 11.5049 23.4906 16.1521
Au 13.2941 25.6321 16.8381
Au 14.8743 27.8325 17.4327
Au 16.7783 29.8304 18.1678
Au 18.5444 31.6896 19.0763
Au 11.9085 19.6229 14.2888
Au 13.781 21.8744 15.0374
Au 15.453 24.075 15.7634
Au 17.0409 26.3867 16.6056
Au 19.01 28.2756 17.2218
Au 20.8339 30.5031 18.0214
Au 14.3121 18.1368 13.2638
Au 15.8573 20.3789 13.9528
Au 17.7174 22.4757 14.9636
Au 19.5825 24.5825 15.6937
Au 21.4004 26.8947 16.387
Au 23.0567 29.0488 17.287
Au 16.4609 16.7126 12.4498
Au 18.1231 18.9441 13.1261
Au 20.0822 20.8472 14.0959
Au 21.9855 23.0507 14.8116
Au 23.709 25.3662 15.5759
Au 25.4284 27.4184 16.2907
Au 18.7799 15.0706 11.5768
Au 20.6592 17.2463 12.2831
Au 22.6118 19.3134 12.9494
Au 24.2448 21.6251 13.8587
Au 26.0236 23.7573 14.6097
Au 27.5878 26.0815 15.3848
Au 21.1333 13.6331 10.8014
Au 23.0185 15.7412 11.2775
Au 24.8323 17.9239 12.1403
Au 26.2241 20.1339 12.8434
Au 27.9528 22.1223 13.6663
Au 29.1939 24.0581 14.7623
Au 11.6723 22.2463 13.4922
Au 13.4041 24.5505 14.1715
Au 14.7779 26.8823 14.8405
Au 16.5727 28.9467 15.5408
Au 18.4151 31.014 16.4996
Au 13.7402 20.6802 12.2984
Au 15.6706 23.1561 13.2113
Au 17.2135 25.3572 13.903
Au 19.0607 27.3404 14.7971
Au 20.7891 29.609 15.5472
Au 16.0393 19.2399 11.3681
Au 17.9188 21.4666 12.3019
Au 19.6329 23.5811 13.1831
Au 21.4888 25.7676 13.9012
Au 23.185 27.8861 14.6606
Au 18.6217 17.8365 10.6715
Au 20.3431 19.9725 11.3917
Au 21.9112 22.2095 12.2395
Au 23.8828 24.2569 13.0266
Au 25.3967 26.7429 13.6249
Au 20.7871 16.1451 9.83047
Au 22.4694 18.3728 10.4242
Au 24.0807 20.7051 11.1316
Au 25.9674 22.7185 11.8515
Au 27.4237 24.8337 12.7551
Au 13.5744 23.3833 11.8216
Au 14.9838 25.7417 12.3952
Au 17.1781 27.7469 12.7592
Au 18.7421 29.7963 13.7528
Au 15.9259 21.8448 10.9151
Au 17.4392 24.2419 11.5017
Au 19.1903 26.2966 12.0486
Au 20.8424 28.2915 12.9275
Au 17.9895 20.2147 9.86267
Au 19.8665 22.602 10.55
Au 21.5133 24.9683 11.416
Au 23.3697 26.797 12.1337
Au 20.2827 18.8955 8.88742
Au 21.8648 21.1709 9.60114
Au 23.4857 23.2598 10.2747
Au 25.2605 25.2227 11.038
Au 10.2746 21.7373 24.2681
Au 11.9908 23.946 25.1551
Au 13.7303 26.1093 26.0152
Au 15.6154 28.0735 26.4663
Au 10.6247 18.1438 22.6466
Au 12.4222 20.1401 23.3845
Au 14.086 22.5681 24.2051
Au 15.835 24.4456 25.2803
Au 17.4291 26.6781 25.7098
Au 19.0146 28.8443 26.4205
Au 11.1979 14.5674 20.7729
Au 12.7785 16.6672 21.4926
Au 14.754 18.7024 22.3517
Au 16.1866 20.871 23.2203
Au 18.0007 22.8149 24.2029
Au 19.7626 25.1821 24.849
Au 21.4926 27.4116 25.4737
Au 23.3198 29.2389 26.0893
Au 13.6873 12.8007 20.1153
Au 14.989 14.9252 20.8827
Au 16.985 17.0431 21.345
Au 18.5741 19.4577 22.4362
Au 20.3757 21.6004 23.2233
Au 22.2177 23.7693 23.9953
Au 23.822 25.879 24.6042
Au 25.4443 27.9955 25.5515
Au 15.9239 11.2933 19.0045
Au 17.3631 13.4178 19.8761
Au 19.0492 15.4622 20.5982
Au 20.7144 17.8213 21.3493
Au 22.5192 19.8844 22.1802
Au 24.3246 22.058 22.9339
Au 25.9516 24.1773 23.8658
Au 27.4914 26.2922 24.6588
Au 18.169 9.98894 17.8965
Au 19.8041 11.9769 18.9621
Au 21.2726 14.1521 19.6349
Au 23.031 15.9282 20.544
Au 24.6978 18.431 21.3517
Au 26.4114 20.6434 22.0323
Au 28.3732 22.8148 22.928
Au 29.7322 24.9168 23.6202
Au 22.1255 10.5829 18.0737
Au 23.6799 12.5132 18.9438
Au 25.5477 14.7361 19.6709
Au 27.184 16.6903 20.394
Au 28.7068 19.0123 21.0906
Au 30.3139 21.2065 21.7339
Au 25.8598 11.3874 17.9037
Au 27.6142 13.3661 18.7559
Au 29.4348 15.3325 19.5632
Au 31.0091 17.8529 20.2778
Au 10.7945 18.9777 25.4334
Au 12.4861 21.1701 25.8965
Au 13.9776 23.2404 26.9741
Au 15.8807 25.5153 27.8167
Au 17.5899 27.5547 28.4614
Au 11.31 15.394 23.5716
Au 12.838 17.4906 24.1854
Au 14.4876 19.61 25.0546
Au 16.2078 21.8176 26.0064
Au 18.0027 23.9389 27.0074
Au 19.8086 26.0842 27.4824
Au 21.5644 28.0885 28.1875
Au 13.3367 13.8285 22.7231
Au 15.1773 15.8667 23.2601
Au 16.6558 18.2633 24.2978
Au 18.4626 20.3129 25.0165
Au 20.0766 22.5652 25.7952
Au 22.1355 24.824 26.6801
Au 23.8568 26.7718 27.4023
Au 15.8759 11.946 21.7546
Au 17.2998 14.1554 22.5052
Au 18.9354 16.6226 23.2462
Au 20.751 18.8413 23.9705
Au 22.5057 21.1469 24.8795
Au 24.3976 23.1696 25.9738
Au 26.011 25.1161 26.7092
Au 17.8983 10.4993 20.6396
Au 19.3959 12.7702 21.6553
Au 21.1452 14.8792 22.4191
Au 23.058 17.1736 23.0534
Au 24.7119 19.4529 23.9036
Au 26.5978 21.6195 24.7541
Au 28.3428 23.5759 25.8222
Au 20.2737 9.47711 19.8444
Au 21.972 11.3484 20.7514
Au 23.7251 13.5041 21.5572
Au 25.3713 15.6025 22.2812
Au 27.0599 17.6931 23.0747
Au 28.6438 19.9672 23.8369
Au 30.2869 21.9487 24.6802
Au 24.168 10.1478 19.9212
Au 25.9855 12.1452 20.6904
Au 27.5083 14.1152 21.6615
Au 29.4303 16.4495 22.0927
Au 30.8353 18.5337 22.8742
Au 11.7839 16.3162 26.1417
Au 12.8583 18.5159 27.1607
Au 14.4665 20.6039 27.8016
Au 16.0917 22.8173 28.6238
Au 17.8686 24.9001 29.516
Au 19.9539 27.0111 29.9328
Au 13.7266 14.5201 25.3333
Au 14.932 16.823 26.109
Au 16.4609 19.0724 26.9616
Au 18.3398 21.1736 27.6435
Au 20.2321 23.2466 28.6544
Au 21.966 25.3752 29.2978
Au 15.5783 13.0742 24.3597
Au 17.1285 15.3668 25.2027
Au 18.7537 17.7151 25.7011
Au 20.7671 19.8379 26.5775
Au 22.392 22.0617 27.4841
Au 24.3299 24.0657 28.4192
Au 17.7984 11.6581 23.488
Au 19.4199 13.739 24.2848
Au 21.3056 16.1601 24.9576
Au 23.0098 18.3299 25.6478
Au 24.745 20.4531 26.6225
Au 26.5948 22.4663 27.5759
Au 20.0059 10.1771 22.5586
Au 21.7846 12.3091 23.4761
Au 23.5904 14.6056 24.1025
Au 25.165 16.5833 24.676
Au 26.996 18.717 25.5433
Au 28.7123 20.7827 26.5657
Au 22.2674 8.9033 21.7441
Au 24.2213 10.8161 22.4701
Au 25.735 13.0887 23.446
Au 27.5632 15.1294 24.2596
Au 29.2165 17.2393 24.8297
Au 30.8161 19.401 25.3227
Au 13.6694 15.7292 27.9886
Au 15.0089 17.8592 28.9157
Au 16.6209 20.1256 29.5051
Au 18.0502 22.238 30.3356
Au 20.0841 24.3194 31.0777
Au 15.5094 13.8836 27.3262
Au 17.1924 16.3066 27.8537
Au 18.8258 18.5745 28.4912
Au 20.7252 20.471 29.1084
Au 22.2767 22.5869 30.2034
Au 17.7222 12.6718 26.3609
Au 19.5467 14.9028 26.7622
Au 20.9886 17.1663 27.6925
Au 23.1102 19.2058 28.4084
Au 24.7254 21.4669 29.452
Au 19.9548 11.3091 25.2756
Au 21.7995 13.4878 25.9185
Au 23.33 15.6049 26.8216
Au 25.1045 17.5696 27.4427
Au 26.6788 19.6797 28.248
Au 22.2224 9.78573 24.2666
Au 24.0928 11.8426 24.9781
Au 25.545 14.0376 26.1023
Au 27.3279 16.0223 26.8207
Au 28.9273 18.3089 27.3597
Au 15.4949 15.4045 29.5446
Au 17.3352 17.5487 30.3737
Au 18.8626 19.7362 31.0282
Au 20.4167 21.8003 31.7464
Au 17.9442 13.9599 28.8501
Au 19.3105 15.9654 29.8259
Au 20.9791 18.1119 30.3134
Au 22.7926 20.1324 30.8875
Au 20.1156 12.4302 28.0033
Au 21.2744 14.5196 28.7456
Au 23.2097 16.6733 29.3357
Au 25.1186 18.7276 30.212
Au 22.2456 11.1286 26.8459
Au 23.4249 13.0974 28.0501
Au 25.3936 15.0563 28.5292
Au 26.891 17.1593 29.3129
