40
 Atoms. Timestep: 50000
Au 16.0049 20.1634 18.9466
Au 23.7585 21.5687 20.3065
Au 21.7682 19.5846 20.0099
Au 23.0666 23.9614 21.2471
Au 17.7222 22.1779 18.6057
Au 23.3658 17.1272 21.7424
Au 23.7705 17.7577 17.7078
Au 20.1963 21.0487 18.3698
Au 18.2435 19.563 17.6407
Au 21.919 19.8878 25.0434
Au 18.3458 19.9411 20.4873
Au 18.5136 23.6444 20.7324
Au 24.398 18.9245 19.8402
Au 20.855 22.3103 20.7292
Au 16.3934 21.582 21.2424
Au 20.9547 24.7706 20.3008
Au 15.8787 18.9737 21.425
Au 17.9525 17.2261 21.6809
Au 20.563 17.5336 21.55
Au 23.1607 20.6001 18.0581
Au 22.1094 16.8175 19.4452
Au 20.8321 22.5369 24.8508
Au 18.8358 22.1053 16.3053
Au 22.0308 17.5981 23.9033
Au 21.6768 21.9921 16.175
Au 19.9548 23.7123 18.0991
Au 22.3786 21.9887 23.0511
Au 22.4316 23.2558 18.7183
Au 16.691 17.7205 19.1531
Au 17.3222 19.9063 23.3349
Au 22.6048 19.5182 15.6838
Au 19.1962 18.1219 23.8571
Au 18.8553 21.9461 22.6129
Au 21.0927 18.4625 17.3658
Au 19.3623 17.7036 19.39
Au 20.4557 24.0205 22.7018
Au 19.9708 20.1031 15.5167
Au 19.4307 20.3578 24.9571
Au 23.2258 19.5876 22.4396
Au 20.5116 19.9984 22.5726
