40
 Atoms. Timestep: 50000
Au 18.2151 21.5696 23.837
Au 21.9794 18.8629 23.4081
Au 19.9322 17.3595 23.3404
Au 16.8544 21.1077 17.4887
Au 22.1348 20.6994 21.1811
Au 20.4142 22.5261 19.8727
Au 18.7841 19.3273 17.3793
Au 18.712 20.3459 19.9735
Au 20.0686 23.3622 22.4683
Au 21.3046 20.2783 18.4395
Au 20.5844 18.4619 20.3843
Au 16.5794 20.1772 22.0368
Au 23.219 19.2836 16.5086
Au 16.6053 19.0819 19.2352
Au 22.2716 16.8209 21.4542
Au 24.8685 21.5365 21.1342
Au 22.3489 22.1928 17.2235
Au 21.1581 15.9152 19.1086
Au 17.8163 17.685 21.4809
Au 17.6591 23.3218 18.9056
Au 19.5876 19.9889 22.4055
Au 19.5931 22.2498 17.2126
Au 19.6569 15.908 21.2215
Au 17.7013 18.8559 24.0499
Au 17.6487 22.7862 21.6849
Au 21.5708 24.9731 20.6606
Au 18.7183 17.318 19.0076
Au 22.9093 17.7554 18.9782
Au 19.8296 19.5493 25.0458
Au 20.8239 20.3142 15.7972
Au 23.7773 20.6405 23.3059
Au 24.1412 18.8331 21.1593
Au 16.08 21.645 19.7982
Au 21.0565 17.7921 17.1034
Au 20.7612 24.4933 18.2212
Au 24.0439 20.3079 18.9085
Au 19.0918 25.0786 20.326
Au 23.2231 22.8546 19.6721
Au 22.7294 22.9997 22.3519
Au 21.3461 21.5408 24.029
