42
 Atoms. Timestep: 50000
Au 20.4562 17.0099 23.8786
Au 19.7828 22.2932 16.1848
Au 18.94 20.0243 20.7173
Au 23.0293 20.0456 17.8891
Au 24.025 17.6819 19.1161
Au 18.694 20.131 15.0734
Au 17.59 18.4538 17.1795
Au 20.9529 23.8149 18.6679
Au 20.0112 22.1339 22.2948
Au 22.1284 17.6549 17.227
Au 19.7536 19.9247 17.8477
Au 16.9111 20.269 18.9883
Au 19.564 17.207 18.4224
Au 22.0098 21.1591 24.6623
Au 17.8622 23.4787 23.0407
Au 20.0706 17.0347 21.2246
Au 16.2859 19.6159 21.622
Au 21.3506 21.557 19.8533
Au 23.1151 22.0774 22.2062
Au 19.9463 25.0426 23.0527
Au 22.2399 22.2746 17.025
Au 23.7781 19.6712 22.907
Au 21.8749 24.1065 21.1768
Au 19.6047 22.6825 24.7465
Au 17.5523 17.9391 20.0501
Au 19.2519 24.1711 20.7734
Au 18.8898 22.3194 18.7737
Au 17.2727 22.0638 20.9346
Au 19.892 19.8127 24.8085
Au 23.8248 20.1013 20.3663
Au 22.2292 18.4554 24.5729
Au 18.3654 18.2834 22.9978
Au 21.4008 20.0528 15.6941
Au 17.934 20.7581 23.4219
Au 23.5121 22.6296 19.2886
Au 22.6281 17.3712 21.8841
Au 19.947 17.9437 15.8863
Au 21.4964 18.7024 19.6851
Au 21.2326 19.6276 22.4136
Au 21.9793 23.6738 23.8861
Au 21.9953 16.0784 19.4876
Au 17.2096 21.2618 16.6613
