42
 Atoms. Timestep: 50000
Au 23.173 18.043 22.4896
Au 17.2345 19.2406 24.3169
Au 19.6725 19.2627 15.6988
Au 24.3384 20.3213 22.0941
Au 21.9535 18.2622 15.8191
Au 19.6881 20.2493 25.1981
Au 17.7164 20.5 17.3163
Au 17.8843 21.7687 23.7665
Au 18.6969 24.2597 22.7472
Au 22.3526 24.0601 19.9596
Au 21.2302 24.4559 22.4262
Au 19.9628 21.5906 16.7885
Au 19.503 17.5719 20.1934
Au 21.8766 20.6733 23.364
Au 20.7575 24.1516 17.8066
Au 22.1269 17.1957 19.9361
Au 19.6036 24.3577 20.2616
Au 19.9955 22.0885 21.7723
Au 20.8318 21.9315 19.2014
Au 23.7357 21.5938 19.6809
Au 22.9649 22.5938 22.1669
Au 18.7175 20.2821 19.9482
Au 23.7122 20.2345 17.3793
Au 17.4742 17.631 22.0243
Au 22.8912 22.6538 17.4844
Au 20.7593 17.0348 22.38
Au 21.5588 19.736 20.887
Au 16.2131 21.1982 19.3372
Au 17.4217 22.6138 21.1271
Au 18.6679 18.1434 17.7696
Au 21.3013 19.3042 18.1342
Au 20.5167 22.7744 24.3423
Au 16.7283 18.4652 19.7806
Au 19.1398 17.5072 24.5078
Au 20.8561 16.7203 17.6849
Au 21.5485 18.335 24.5542
Au 18.3559 22.7666 18.4908
Au 23.9569 18.9377 19.842
Au 19.424 19.4471 22.6993
Au 23.4714 17.4837 17.7412
Au 21.9913 20.9811 15.582
Au 16.5852 20.1679 21.8896
