434
 Atoms. Timestep: 50000
Au 21.2923 16.0876 30.7386
Au 21.1696 16.9657 28.2588
Au 20.8747 18.0455 25.6384
Au 20.757 19.1481 23.0561
Au 20.4084 20.3381 20.4055
Au 20.1793 21.3131 17.8458
Au 19.7063 22.6629 15.3868
Au 19.5428 23.8718 12.5308
Au 19.1963 25.2007 10.1642
Au 18.8076 16.2152 29.7167
Au 18.5939 17.5655 27.2137
Au 18.397 18.5571 24.4847
Au 17.9567 19.7937 22.0507
Au 17.6699 20.6906 19.1903
Au 17.5385 22.0473 16.6856
Au 17.3481 23.2322 14.0317
Au 16.9994 24.5595 11.6218
Au 20.382 18.5436 30.4952
Au 20.4108 19.6873 27.9024
Au 20.0324 20.7857 25.3872
Au 19.6311 21.8546 22.6876
Au 19.3587 23.012 20.1181
Au 19.4679 24.3762 17.577
Au 18.822 25.4206 14.9049
Au 18.5938 26.5765 12.3488
Au 23.2102 17.6566 29.7842
Au 23.1137 18.7887 27.2272
Au 22.9616 19.855 24.763
Au 22.3976 21.2478 22.2534
Au 22.1984 22.4069 19.5124
Au 22.0114 23.3759 16.8191
Au 21.5681 24.5889 14.3177
Au 21.2927 25.743 11.6275
Au 23.0818 15.132 28.7894
Au 23.0335 15.9888 26.2833
Au 22.854 17.2484 23.6346
Au 22.5614 18.5316 20.9865
Au 22.3417 19.6972 18.3872
Au 21.9085 20.7369 15.693
Au 21.6679 22.0835 13.1224
Au 21.417 23.1895 10.5334
Au 20.5619 14.2797 28.8419
Au 20.4373 15.3417 26.2769
Au 19.9272 16.3404 23.4149
Au 19.8692 17.7126 20.8253
Au 19.4565 18.6055 18.2675
Au 19.2451 19.8874 15.5693
Au 18.9518 21.1763 13.1239
Au 18.8064 22.4763 10.3157
Au 16.526 16.9251 28.7106
Au 16.0807 18.1357 26.2035
Au 15.7114 19.2187 23.6927
Au 15.3793 20.341 20.8252
Au 15.2179 21.4727 18.2342
Au 14.9803 22.7132 15.6092
Au 14.8599 23.808 13.2143
Au 17.8962 19.1036 29.5925
Au 17.7023 20.183 27.0616
Au 17.423 21.3583 24.2435
Au 17.021 22.4861 21.5216
Au 16.9959 23.7571 18.8662
Au 16.543 24.846 16.2277
Au 16.2734 26.1986 13.8347
Au 19.7665 21.1123 30.174
Au 19.4261 22.3948 27.8014
Au 19.1444 23.5098 25.1351
Au 18.8291 24.6031 22.3994
Au 18.4442 26.067 19.6913
Au 18.3509 27.0773 17.1677
Au 18.1521 28.0754 14.6273
Au 22.5524 20.2172 29.719
Au 22.3757 21.4778 27.0539
Au 21.8884 22.7652 24.4501
Au 21.5285 23.8717 21.6776
Au 21.4909 25.0174 19.0195
Au 21.1771 26.1823 16.5367
Au 20.7528 27.3067 13.9158
Au 25.1015 19.4879 28.7936
Au 25.1956 20.6469 26.3464
Au 24.6362 21.9017 23.785
Au 24.4044 23.1983 21.1827
Au 24.0967 24.1928 18.4511
Au 23.8578 25.5352 15.8654
Au 23.3696 26.3795 13.2886
Au 25.14 16.7999 27.9533
Au 25.0286 18.0519 25.3098
Au 24.5664 19.1854 22.7341
Au 24.3469 20.6322 20.2107
Au 24.0762 21.5215 17.4387
Au 23.7544 22.8796 14.8032
Au 23.4509 23.9332 12.1907
Au 25.0467 14.3069 26.469
Au 24.9712 15.4858 24.0925
Au 24.5953 16.4808 21.6187
Au 24.436 17.5768 18.881
Au 24.065 19.06 16.1881
Au 23.8022 20.4193 13.6193
Au 23.515 21.4493 10.9395
Au 22.3531 13.2203 26.8238
Au 22.0264 14.491 24.0897
Au 21.9859 15.8576 21.4089
Au 21.5138 16.9711 18.6148
Au 21.5413 18.119 16.0715
Au 20.9435 19.0787 13.4439
Au 20.6416 20.5882 11.0018
Au 19.7572 12.5613 26.5771
Au 19.2957 13.5899 24.118
Au 19.3047 14.8038 21.2564
Au 18.5606 15.961 18.9778
Au 18.7129 17.2217 16.1236
Au 18.2313 18.4688 13.3881
Au 17.9443 19.6451 10.8891
Au 17.9913 14.7079 27.5995
Au 17.6932 15.7618 25.1021
Au 17.409 16.7763 22.2674
Au 17.1766 18.1146 19.697
Au 16.9919 19.2382 16.8841
Au 16.5546 20.5426 14.3032
Au 16.3918 21.7718 11.7545
Au 14.0221 17.1819 27.4065
Au 13.372 18.6175 25.2005
Au 13.0982 19.7511 22.511
Au 12.9441 20.8717 19.6759
Au 12.6472 22.1041 17.1807
Au 12.3033 23.1305 14.7284
Au 15.4459 19.4844 28.6038
Au 15.0745 20.7484 25.9036
Au 14.817 21.8421 23.2517
Au 14.5226 23.2348 20.5292
Au 14.3246 24.1647 17.8857
Au 14.1401 25.5398 15.3388
Au 17.3165 21.9365 29.2509
Au 16.7686 22.8572 26.7043
Au 16.5509 24.1338 24.0674
Au 16.3041 25.302 21.4032
Au 15.9937 26.5108 18.653
Au 15.8136 27.7368 16.2067
Au 18.8545 23.8517 29.9937
Au 18.5253 25.1603 27.4402
Au 18.4136 26.2803 24.7602
Au 17.8662 27.4441 22.1913
Au 17.8445 28.6696 19.5786
Au 17.6245 29.6903 16.939
Au 21.6748 23.0399 29.3621
Au 21.4029 24.1446 26.6713
Au 21.1127 25.3975 24.0501
Au 20.6837 26.5566 21.3945
Au 20.6124 27.7508 18.7389
Au 20.3945 29.0007 16.0816
Au 24.4747 22.253 28.5802
Au 24.318 23.3295 26.0466
Au 23.847 24.7201 23.388
Au 23.3723 25.7966 20.8025
Au 23.404 27.1519 18.2019
Au 22.9576 28.0883 15.565
Au 27.1077 21.4742 28.0641
Au 26.9787 22.6163 25.2988
Au 26.5153 23.8996 22.7954
Au 26.3382 25.0957 20.0629
Au 26.0717 26.3117 17.6311
Au 25.6975 27.3599 15.1532
Au 27.092 18.7408 27.1204
Au 26.9201 19.8548 24.3957
Au 26.5076 21.1388 21.8318
Au 26.106 22.4227 19.0876
Au 25.9584 23.6379 16.5334
Au 25.6516 24.733 14.0958
Au 26.9735 16.0759 26.0807
Au 26.849 17.3182 23.2482
Au 26.4375 18.3633 20.6083
Au 26.0468 19.7514 17.982
Au 25.9901 21.057 15.4586
Au 25.6081 22.2038 12.5954
Au 26.8847 13.5922 24.4217
Au 26.9349 14.7682 22.0102
Au 26.5042 15.6874 19.47
Au 26.18 17.1244 16.7906
Au 25.9404 18.3608 14.1814
Au 25.5699 19.6016 11.5387
Au 24.0465 12.7598 24.5827
Au 23.895 13.8289 21.9772
Au 23.6265 15.0082 19.2742
Au 23.4511 16.2227 16.679
Au 23.3428 17.6057 13.8918
Au 22.7864 18.8641 11.3137
Au 21.5266 11.7434 24.5779
Au 21.1377 13.0469 21.9644
Au 20.8795 14.3629 19.1317
Au 20.5982 15.1753 16.4513
Au 20.3502 16.4038 13.7636
Au 19.9854 17.6926 11.2629
Au 19.093 10.9649 24.4521
Au 18.3795 11.9972 21.857
Au 18.1295 13.2928 19.1743
Au 18.0631 14.3853 16.4918
Au 17.5926 15.7756 14.0793
Au 17.1907 16.9239 11.5721
Au 17.1575 13.09 25.5335
Au 16.8821 14.1217 22.7831
Au 16.2637 15.4614 20.1253
Au 16.3282 16.7188 17.499
Au 15.9554 17.8463 14.782
Au 15.5956 19.041 12.116
Au 15.4983 14.9276 26.4939
Au 15.0895 16.4291 23.8929
Au 14.8862 17.717 21.4893
Au 14.4579 18.7178 18.7276
Au 14.3716 19.9323 16.0256
Au 14.1074 21.1509 13.3908
Au 11.2694 17.8832 26.1951
Au 10.7321 19.0384 23.8969
Au 10.5619 20.1849 21.4499
Au 10.4215 21.6349 18.7178
Au 10.0063 22.8801 16.2792
Au 12.9139 20.0446 27.6074
Au 12.4821 21.2448 24.7348
Au 12.1722 22.3806 22.1939
Au 11.9967 23.6854 19.4788
Au 11.8536 24.8041 16.8102
Au 14.7376 22.175 28.2048
Au 14.3911 23.3208 25.571
Au 13.9837 24.5178 22.7671
Au 13.7865 25.984 20.1283
Au 13.5088 27.0594 17.5844
Au 16.2581 24.6007 29.0911
Au 16.1337 25.7667 26.2255
Au 15.6777 26.9955 23.613
Au 15.3938 28.3258 21.1339
Au 15.1758 29.3142 18.4814
Au 18.1147 26.3052 29.878
Au 17.6881 27.8812 27.2158
Au 17.533 29.1069 24.607
Au 17.2703 30.188 21.8644
Au 17.2272 31.1678 19.3649
Au 20.9898 25.5308 28.9368
Au 20.5281 26.7922 26.4478
Au 20.1878 28.1255 23.8575
Au 19.9332 29.3232 20.9881
Au 19.8125 30.4634 18.2805
Au 23.7183 24.8585 28.464
Au 23.3062 26.0097 25.7823
Au 22.8471 27.4035 22.9819
Au 22.7018 28.4642 20.4034
Au 22.5486 29.7469 17.84
Au 26.3696 24.152 27.8077
Au 26.2744 25.3072 25.2944
Au 25.8646 26.5276 22.3847
Au 25.5034 27.8635 19.8862
Au 25.2716 28.9661 17.1761
Au 28.8056 23.307 26.9359
Au 28.8917 24.5169 24.6251
Au 28.6454 25.746 21.9486
Au 28.3896 27.0328 19.4371
Au 27.86 28.0152 16.9545
Au 28.864 20.5599 26.0127
Au 28.7449 21.8946 23.2584
Au 28.3265 23.2978 20.7994
Au 28.2229 24.4871 18.0858
Au 27.8868 25.5535 15.4947
Au 28.8185 17.8723 25.0584
Au 28.6855 19.2713 22.3739
Au 28.1392 20.6601 19.7951
Au 28.0916 21.6132 17.0991
Au 27.5696 22.827 14.5364
Au 28.8396 15.4883 23.9128
Au 28.6314 16.8186 21.0871
Au 28.1155 17.9154 18.6353
Au 27.9821 19.0344 15.841
Au 27.73 20.1605 13.3377
Au 28.6152 12.7309 22.3059
Au 28.5268 14.0038 19.8352
Au 28.29 15.3493 17.1489
Au 28.0207 16.3027 14.5772
Au 27.5957 17.5331 12.197
Au 25.9956 12.0178 22.1716
Au 25.8003 13.1477 19.681
Au 25.6934 14.3199 17.1855
Au 25.3866 15.6241 14.6255
Au 25.0925 17.0117 11.8486
Au 23.4346 11.0679 22.372
Au 22.9464 12.2631 19.9387
Au 22.7461 13.4571 17.1768
Au 22.5517 14.8187 14.1856
Au 22.3903 16.0788 11.8046
Au 20.8137 10.3052 22.2103
Au 20.3768 11.525 19.7464
Au 19.8013 12.3495 17.1027
Au 19.4052 13.8691 14.3136
Au 19.1744 15.0366 11.8808
Au 17.9747 9.44447 22.1043
Au 17.2714 10.5537 19.6869
Au 17.1053 11.8294 17.0162
Au 16.6464 12.8703 14.5408
Au 16.6731 14.1943 12.0822
Au 16.2612 11.4251 23.2405
Au 15.7961 12.6426 20.6086
Au 15.5473 13.96 17.9335
Au 15.2695 15.2346 15.4062
Au 14.7506 16.3079 12.8141
Au 14.6262 13.5718 24.3273
Au 14.1531 14.8031 21.8249
Au 13.9043 16.0948 19.1458
Au 13.6174 17.3309 16.3096
Au 13.2939 18.3768 13.8337
Au 12.9466 15.7308 25.27
Au 12.3974 17.0347 22.7822
Au 12.1335 18.1795 20.1231
Au 11.9268 19.4245 17.44
Au 11.7334 20.5878 14.9643
Au 10.4219 20.4406 26.4267
Au 10.103 21.7576 23.8517
Au 9.68341 23.0109 21.0469
Au 9.60848 24.5323 18.5167
Au 12.1212 22.7089 27.1246
Au 11.984 23.9281 24.3585
Au 11.3806 25.3297 21.7155
Au 11.2307 26.5596 19.0782
Au 13.8935 24.8677 27.8465
Au 13.4633 26.159 25.0762
Au 13.1075 27.2488 22.5541
Au 12.9065 28.519 19.7185
Au 15.5528 26.9388 28.5182
Au 15.3462 28.2334 25.9173
Au 15.0299 29.6873 23.5418
Au 14.7158 30.8113 20.5486
Au 19.9753 27.9844 28.7169
Au 19.6435 29.4382 26.2344
Au 19.435 30.9508 23.6986
Au 19.4194 31.9234 20.6709
Au 22.7233 27.4257 28.1939
Au 22.4278 28.7618 25.5851
Au 21.8951 30.0561 22.8588
Au 21.9525 31.1067 20.266
Au 25.3349 26.8703 27.2943
Au 25.1906 28.0543 24.7574
Au 25.0519 29.1826 22.1707
Au 24.6995 30.5009 19.5907
Au 28.2438 25.9561 26.8848
Au 27.9994 27.1664 24.1405
Au 27.7491 28.5283 21.7975
Au 27.2267 29.7867 19.1752
Au 30.6338 22.2797 25.0309
Au 30.8157 23.8547 22.4252
Au 30.3234 25.0896 19.9224
Au 29.8936 26.3121 17.3057
Au 30.8177 19.7262 24.1667
Au 30.5055 21.1948 21.2043
Au 30.2183 22.4701 18.7632
Au 29.7278 23.6194 16.0861
Au 30.6309 17.2981 23.0026
Au 30.3721 18.5916 20.0616
Au 30.1076 19.905 17.6844
Au 29.7973 21.0008 14.9829
Au 30.3088 14.7889 21.6031
Au 30.2587 16.0036 18.9607
Au 30.0989 17.2466 16.4826
Au 29.761 18.3686 13.841
Au 27.7695 11.5087 20.0725
Au 27.4203 12.4007 17.4944
Au 27.3551 13.5812 15.0766
Au 27.1156 14.7172 12.6713
Au 25.1724 10.1927 20.2492
Au 24.7255 11.6385 17.6335
Au 24.5454 12.8125 14.8551
Au 24.3755 14.2678 12.4265
Au 22.4206 9.45738 20.2505
Au 22.0303 10.8354 17.7474
Au 21.7418 12.2091 15.1213
Au 21.3594 13.5796 12.3102
Au 19.5739 8.93632 20.1325
Au 18.9258 9.88244 17.5035
Au 18.7992 11.209 14.9025
Au 18.2615 12.3448 12.4059
Au 15.1893 10.214 21.1545
Au 14.7504 11.0767 18.5941
Au 14.4221 12.0166 16.0299
Au 14.2653 13.7692 13.4124
Au 13.5905 12.0206 22.4394
Au 13.3325 13.2736 19.4773
Au 13.0917 14.5985 16.9215
Au 12.3599 15.5929 14.2297
Au 11.7897 14.2417 23.2106
Au 11.5955 15.5439 20.5446
Au 11.3603 16.587 17.9363
Au 11.0848 17.9393 15.361
Au 10.3415 16.1928 24.2849
Au 9.76334 17.5346 21.726
Au 9.67848 18.8432 19.1386
Au 9.41084 20.0444 16.7507
Au 9.72465 23.5741 25.8439
Au 9.47524 24.4717 23.2717
Au 9.04675 25.986 20.9991
Au 11.508 25.5249 26.788
Au 10.7675 26.6502 24.3945
Au 10.8751 27.8755 21.7181
Au 13.2015 27.1781 27.513
Au 12.6221 28.6817 24.7109
Au 12.8905 29.7516 22.099
Au 21.7842 29.8865 27.6141
Au 21.8672 31.4095 25.175
Au 21.1275 32.4085 22.5789
Au 24.6117 29.5055 26.9636
Au 24.3174 30.6845 24.548
Au 24.0717 31.7085 22.0781
Au 27.229 28.5246 26.3879
Au 27.159 29.9292 23.9711
Au 26.8692 31.0079 21.4597
Au 32.3542 21.6813 22.8501
Au 32.153 23.1626 20.3877
Au 31.9917 24.2065 17.849
Au 32.2815 19.2064 21.6334
Au 32.3083 20.6362 19.067
Au 31.8138 21.6947 16.6301
Au 32.2016 16.9163 20.5517
Au 32.0041 17.9012 18.0867
Au 31.6837 19.2449 15.5228
Au 26.6202 9.83258 18.1519
Au 26.4061 10.8438 15.5743
Au 26.2435 12.2934 12.9868
Au 23.9963 8.96797 17.9262
Au 23.5384 10.1397 15.268
Au 23.3933 11.741 12.8848
Au 21.0325 8.35581 18.0782
Au 20.9634 9.52997 15.7738
Au 20.6559 11.127 13.0125
Au 12.6655 10.8766 20.333
Au 12.2874 11.9829 17.596
Au 12.1716 13.192 14.8703
Au 11.0748 12.7396 20.8329
Au 10.6639 13.9895 18.4537
Au 10.3977 15.166 15.9503
Au 9.44929 14.9385 21.9803
Au 9.06725 16.0484 19.3908
Au 9.03391 17.1598 16.9218
