454
 Atoms. Timestep: 50000
Au 21.1939 15.6023 30.7053
Au 21.0013 17.0119 28.3093
Au 20.8049 18.0774 25.5886
Au 20.5984 19.3861 23.0834
Au 20.1962 20.358 20.2719
Au 20.016 21.512 17.6065
Au 19.6848 22.6199 15.0256
Au 19.5427 24.0262 12.3649
Au 19.3436 25.2114 10.3149
Au 18.8173 16.5052 29.7477
Au 18.5193 17.5253 27.2849
Au 18.182 18.6653 24.5863
Au 18.0383 19.8303 21.8703
Au 17.8626 21.0386 19.3613
Au 17.4049 22.2108 16.7116
Au 17.1063 23.3851 13.9656
Au 17.0807 24.4515 11.5152
Au 20.686 18.3931 30.641
Au 20.4273 19.8458 28.1276
Au 20.1394 20.9006 25.4761
Au 19.9128 21.9984 22.7932
Au 19.5717 23.0908 20.2123
Au 19.3596 24.2355 17.5438
Au 19.0783 25.5289 14.8315
Au 18.7884 26.8 12.3999
Au 23.3025 17.62 29.7734
Au 23.0574 18.9248 27.3786
Au 22.6763 19.9254 24.7515
Au 22.4568 21.1528 21.9036
Au 22.2847 22.2611 19.412
Au 21.9561 23.4932 16.6416
Au 21.6297 24.7489 14.1019
Au 21.4492 26.0467 11.6766
Au 23.0504 15.0951 28.8183
Au 22.8285 16.1418 26.0819
Au 22.6206 17.3465 23.4657
Au 22.6263 18.45 20.8137
Au 22.0377 19.6656 18.4023
Au 21.8794 20.9442 15.5382
Au 21.602 22.2316 12.8535
Au 21.3171 23.2528 10.3368
Au 20.4196 14.2261 28.5792
Au 19.9412 15.431 26.2477
Au 19.9503 16.5129 23.5814
Au 19.7871 17.7663 20.9885
Au 19.4774 18.7917 18.1366
Au 19.0169 19.9462 15.5849
Au 18.765 21.2579 12.8375
Au 18.6292 22.2653 10.3225
Au 16.3513 17.0054 28.812
Au 15.9475 17.8046 26.2048
Au 15.6825 19.1872 23.4852
Au 15.3901 20.2198 20.9407
Au 15.1371 21.5136 18.1656
Au 14.9796 22.8523 15.5571
Au 14.662 24.0054 13.0527
Au 18.0615 19.1811 29.5537
Au 17.7147 20.1288 26.9868
Au 17.6206 21.3895 24.3852
Au 17.2914 22.7365 21.7084
Au 16.9574 23.7713 18.9093
Au 16.5858 24.8885 16.3884
Au 16.4254 26.0518 13.8072
Au 19.8154 21.4023 30.2554
Au 19.359 22.336 27.9225
Au 19.2672 23.5621 25.1865
Au 18.9854 24.6384 22.6793
Au 18.7625 25.7776 19.9558
Au 18.3945 26.9567 17.1295
Au 18.1691 28.088 14.7075
Au 22.4402 20.4123 29.7475
Au 22.4395 21.5738 27.1819
Au 22.1248 22.6833 24.4986
Au 21.8118 23.9636 21.7997
Au 21.5714 25.0051 19.1621
Au 21.0637 26.3078 16.5881
Au 20.9919 27.4611 14.0595
Au 25.06 19.3622 29.0304
Au 24.9622 20.5988 26.4355
Au 24.7976 21.6846 23.693
Au 24.6315 23.0468 21.1334
Au 24.3865 24.4211 18.3723
Au 23.8049 25.4289 15.7434
Au 23.5638 26.6084 13.2756
Au 25.0704 16.7814 27.7945
Au 24.8393 17.9782 25.2672
Au 24.6819 19.1424 22.5011
Au 24.3069 20.5933 19.9421
Au 24.0262 21.7532 17.2624
Au 23.9292 22.8749 14.708
Au 23.4194 24.0925 12.2011
Au 24.6512 14.3699 26.5858
Au 24.7634 15.4723 23.993
Au 24.6293 16.4956 21.4083
Au 24.4304 17.8561 18.7855
Au 23.8553 19.2043 16.2165
Au 23.6058 20.2255 13.5195
Au 23.4359 21.5352 10.9449
Au 22.039 13.3663 26.5235
Au 22.2357 14.3897 24.087
Au 21.8512 15.7495 21.3295
Au 21.4088 16.9712 18.751
Au 21.284 18.1552 15.9526
Au 20.8097 19.2423 13.3972
Au 20.6165 20.5291 10.8401
Au 19.4332 12.7263 26.3299
Au 19.1819 13.7194 23.9048
Au 19.0656 15.0308 21.3472
Au 18.7426 15.9698 18.6556
Au 18.3222 17.1889 16.0234
Au 18.1656 18.3766 13.3376
Au 17.7921 19.7154 10.8902
Au 17.697 14.6121 27.7372
Au 17.5255 15.64 25.2401
Au 17.3543 16.998 22.4858
Au 17.1912 18.3093 19.7201
Au 16.9679 19.3662 17.1115
Au 16.5941 20.701 14.396
Au 16.3689 21.7978 11.8382
Au 13.6774 17.4159 27.7672
Au 13.3815 18.5177 25.0893
Au 13.1379 19.6496 22.4236
Au 12.7232 20.6915 19.7109
Au 12.6197 21.9933 17.2043
Au 12.4576 23.1737 14.4288
Au 15.3505 19.4786 28.4046
Au 15.1721 20.5837 25.805
Au 14.9045 21.8164 23.1296
Au 14.735 23.0433 20.4608
Au 14.3558 24.2451 17.9389
Au 13.9573 25.4778 15.248
Au 17.1332 21.7622 29.3032
Au 16.8481 22.8553 26.7309
Au 16.6555 24.0629 24.063
Au 16.3904 25.2076 21.4313
Au 16.0622 26.5186 18.7674
Au 15.8247 27.7027 16.2442
Au 18.8174 23.873 30.147
Au 18.6955 25.0809 27.5134
Au 18.3961 26.2806 24.7342
Au 18.2082 27.5543 22.1654
Au 17.8994 28.5233 19.4631
Au 17.7245 29.8227 16.8365
Au 21.7688 23.1595 29.6977
Au 21.4718 24.0308 27.0117
Au 21.2715 25.4134 24.1684
Au 21.0408 26.6705 21.4855
Au 20.6979 27.7793 18.7582
Au 20.4703 29.0241 16.4673
Au 24.5485 22.1091 28.8332
Au 24.3914 23.2971 26.223
Au 23.9171 24.5875 23.508
Au 23.7437 25.8022 20.7987
Au 23.5944 27.1105 18.2175
Au 23.1736 28.1281 15.8566
Au 27.2237 21.3976 27.75
Au 27.0164 22.5854 25.4029
Au 26.906 23.8399 22.804
Au 26.5215 24.9821 20.2116
Au 26.162 26.217 17.6093
Au 25.7767 27.3631 15.1048
Au 26.9884 18.6842 26.7455
Au 27.0149 19.8964 24.2197
Au 26.5182 21.1399 21.7073
Au 26.2048 22.4339 18.7942
Au 25.9208 23.649 16.1872
Au 25.6332 24.782 13.6028
Au 26.9613 15.931 25.8539
Au 26.7484 17.3269 23.2141
Au 26.5046 18.5111 20.402
Au 26.0682 19.8304 17.8601
Au 25.9517 20.9126 15.1726
Au 25.5482 22.2636 12.5902
Au 26.8627 13.3961 24.8281
Au 26.8068 14.849 22.2738
Au 26.677 15.8306 19.333
Au 26.1736 17.1635 16.7238
Au 25.8231 18.4628 14.0584
Au 25.3932 19.7084 11.4875
Au 24.2356 12.6128 24.6195
Au 23.9268 13.7939 22.004
Au 23.7166 15.2088 19.3717
Au 23.3656 16.424 16.6588
Au 22.9756 17.5444 13.8675
Au 22.5071 18.9047 11.3108
Au 21.3076 11.7539 24.4317
Au 21.2201 13.187 21.7609
Au 20.8161 14.2651 19.174
Au 20.4258 15.3779 16.5413
Au 20.227 16.5982 13.8272
Au 19.8024 17.7329 11.1664
Au 18.472 11.0038 24.425
Au 18.4201 12.2428 21.7102
Au 17.9734 13.2302 19.1397
Au 17.7595 14.3417 16.5327
Au 17.3624 15.5474 13.7722
Au 17.2004 16.8311 11.47
Au 16.9078 13.0839 25.3909
Au 16.6729 14.1226 22.8985
Au 16.4297 15.3452 20.361
Au 16.1569 16.679 17.6603
Au 15.7918 17.998 14.8716
Au 15.5511 19.0661 12.3992
Au 15.3193 15.2894 26.6644
Au 14.9451 16.4124 23.9568
Au 14.7535 17.4926 21.1638
Au 14.5829 18.7809 18.5732
Au 14.2516 20.0665 15.9775
Au 13.9211 21.3926 13.385
Au 11.1896 17.9176 26.2796
Au 10.5866 19.1963 23.7498
Au 10.6019 20.389 21.2295
Au 10.2242 21.3828 18.7659
Au 10.2981 22.4846 16.3997
Au 12.8308 20.0925 27.2466
Au 12.42 21.1968 24.7832
Au 12.4252 22.4251 22.0143
Au 12.119 23.4282 19.4269
Au 11.7785 24.6449 16.778
Au 14.6397 22.1475 28.1641
Au 14.4712 23.1429 25.4892
Au 14.1223 24.4438 22.7955
Au 13.8478 25.7812 20.1381
Au 13.6279 26.8954 17.6385
Au 16.2116 24.5737 29.0032
Au 16.0789 25.6146 26.408
Au 15.7354 26.9322 23.8857
Au 15.466 27.9319 20.9237
Au 15.4302 29.3682 18.274
Au 18.2334 26.3911 29.7687
Au 17.829 27.6966 27.2492
Au 17.504 29.1609 24.5741
Au 17.107 30.0267 21.8052
Au 17.349 31.1096 19.0669
Au 20.9483 25.7706 29.1074
Au 20.6781 26.6592 26.5882
Au 20.2951 28.2103 24.0941
Au 20.1162 29.2935 21.1472
Au 20.0869 30.6259 18.5194
Au 23.8163 24.7131 28.4084
Au 23.423 25.9272 25.9865
Au 23.0347 27.2476 23.1522
Au 22.9956 28.539 20.5221
Au 22.7237 29.8181 17.8864
Au 26.4302 23.991 27.7901
Au 26.3131 25.2143 25.1926
Au 25.8158 26.5083 22.4951
Au 25.6478 27.7692 19.9042
Au 25.6047 29.0551 17.3237
Au 28.9422 23.2674 27.1294
Au 28.9544 24.522 24.7705
Au 28.7814 25.7896 21.9094
Au 28.2568 26.9999 19.3206
Au 27.9901 28.1836 16.8548
Au 29.1067 20.8016 25.9641
Au 28.7934 21.8398 23.4229
Au 28.6235 23.4205 20.8009
Au 28.2345 24.4063 18.0138
Au 27.8045 25.4144 15.4048
Au 28.8339 18.2014 24.7133
Au 28.5927 19.2381 22.1208
Au 28.3025 20.6286 19.4942
Au 28.1045 21.7972 16.6727
Au 27.7862 22.8753 14.2177
Au 28.9177 15.5458 23.8193
Au 28.603 16.5371 21.1786
Au 28.3541 18.0428 18.2731
Au 28.1512 19.1403 15.7463
Au 27.5351 20.2836 12.9759
Au 28.6134 12.806 22.6811
Au 28.543 13.884 20.2346
Au 28.2281 15.0801 17.0954
Au 27.8674 16.5102 14.5422
Au 27.0647 17.3862 11.9814
Au 25.9757 12.0359 22.55
Au 25.7627 13.2012 20.0118
Au 25.4214 14.4322 17.2202
Au 25.0756 15.8525 14.4768
Au 24.6271 16.8543 11.9065
Au 23.1736 11.0991 22.4802
Au 22.8325 12.4308 19.8606
Au 22.6372 13.6069 17.1634
Au 22.2852 14.6727 14.5818
Au 22.0217 16.3087 11.7399
Au 20.4417 10.5016 22.2499
Au 20.3251 11.5301 19.5759
Au 19.739 12.4543 17.0115
Au 19.6117 13.8925 14.4388
Au 19.3934 14.9474 11.748
Au 17.8581 9.57257 22.2262
Au 17.357 10.3842 19.7138
Au 17.0181 11.5873 17.0029
Au 16.7636 12.889 14.3345
Au 16.7774 14.1851 11.7446
Au 16.0223 11.402 23.2333
Au 15.6974 12.5635 20.8454
Au 15.5117 13.791 17.9311
Au 15.2836 15.1689 15.4072
Au 14.8468 16.4832 12.7736
Au 14.4519 13.6278 24.3913
Au 14.0274 14.8438 21.8761
Au 13.9286 15.9583 18.9861
Au 13.7059 17.3501 16.523
Au 13.2083 18.4778 13.9309
Au 12.9108 15.8882 25.6179
Au 12.2884 17.0495 22.8645
Au 12.2271 18.0307 20.2234
Au 12.0001 19.4062 17.527
Au 11.7529 20.5498 14.9628
Au 10.3277 20.8018 26.2524
Au 9.93518 21.8339 23.4639
Au 9.85985 22.9925 20.9849
Au 9.71917 24.1949 18.5784
Au 12.0619 22.7373 27.0587
Au 11.7398 23.708 24.3746
Au 11.4555 25.1549 21.5839
Au 11.3573 26.2958 19.1852
Au 13.8149 24.8898 28.0121
Au 13.6348 25.8944 25.2919
Au 13.3453 27.2354 22.4082
Au 13.0549 28.5868 19.933
Au 15.5652 27.0414 28.5337
Au 15.3385 28.3437 26.1215
Au 14.9236 29.5308 23.2499
Au 14.8722 30.4055 20.5896
Au 20.1559 28.2321 28.7117
Au 19.8124 29.5333 26.4006
Au 19.4747 30.711 23.5154
Au 19.2598 31.6679 20.9682
Au 23.0038 27.4838 28.0317
Au 22.5324 28.64 25.549
Au 22.07 29.8388 22.7425
Au 22.0963 31.1744 20.2145
Au 25.5723 26.8305 27.6612
Au 25.3703 27.7756 25.0798
Au 25.0373 29.0417 22.3234
Au 24.9263 30.5347 19.6849
Au 28.3171 25.8735 26.9566
Au 28.0318 27.2331 24.2769
Au 27.8505 28.3863 21.6406
Au 27.5075 29.511 19.191
Au 30.9035 22.6081 25.0417
Au 30.7083 23.8304 22.5138
Au 30.6366 25.3453 19.717
Au 30.0547 26.3126 17.1966
Au 30.8171 20.188 23.8387
Au 30.4576 21.2028 21.1922
Au 30.3089 22.6643 18.4454
Au 29.9608 23.8729 15.8871
Au 30.6853 17.5384 22.8111
Au 30.4575 18.6689 20.2062
Au 30.2933 19.9481 17.4298
Au 29.8095 21.1482 14.7545
Au 30.5811 14.9192 21.6684
Au 30.2648 15.9433 19.1448
Au 29.859 16.9583 16.3603
Au 29.2634 18.5486 13.5751
Au 27.5423 11.4119 20.5896
Au 27.3794 12.7365 17.8951
Au 27.1894 13.6569 15.1615
Au 26.7098 14.9333 12.5275
Au 24.9886 10.4061 20.5465
Au 24.6822 11.7773 17.8719
Au 24.4987 13.0063 15.1297
Au 24.164 14.2099 12.4244
Au 22.2914 9.57513 20.2426
Au 22.0031 10.877 17.471
Au 21.8097 12.0842 14.9993
Au 21.4559 13.3253 12.3231
Au 19.6047 8.81614 20.1134
Au 19.0737 9.82452 17.6664
Au 18.96 11.2022 14.9263
Au 18.7193 12.4613 12.355
Au 15.0503 9.95153 21.2131
Au 14.9269 10.86 18.5789
Au 14.5072 12.456 15.7811
Au 14.3199 13.5313 13.294
Au 13.2675 12.2323 22.3061
Au 13.3222 13.2029 19.553
Au 12.9629 14.5255 16.9176
Au 12.7314 15.748 14.3583
Au 11.7477 14.099 23.5849
Au 11.624 15.4739 20.7624
Au 11.3988 16.7077 17.9519
Au 10.9259 17.7456 15.3064
Au 10.2606 16.1297 24.2941
Au 9.81099 17.547 21.6824
Au 9.76256 18.6749 19.2473
Au 9.54486 19.5218 16.5775
Au 9.5757 23.3793 25.8229
Au 8.98249 24.4173 23.2853
Au 8.91642 25.7232 20.7324
Au 11.4034 25.2365 26.753
Au 11.1771 26.4983 24.059
Au 10.6458 27.8626 21.3506
Au 13.0596 27.4776 27.3858
Au 12.5911 28.8448 24.9094
Au 12.295 29.6896 22.3535
Au 21.9299 30.1988 27.8714
Au 21.6039 31.222 25.2063
Au 21.4793 32.3409 22.6317
Au 24.5914 29.3974 27.2965
Au 24.2481 30.3669 24.6689
Au 24.146 31.6913 22.1904
Au 27.2476 28.6272 26.6185
Au 27.103 29.6797 24.1211
Au 26.9494 31.0317 21.6247
Au 32.5326 21.9775 22.7284
Au 32.3263 23.3703 20.2747
Au 32.1544 24.3629 17.6777
Au 32.6356 19.3589 21.7898
Au 32.1132 20.5874 19.2967
Au 31.9028 21.934 16.427
Au 32.3555 16.9181 20.5736
Au 32.0254 17.8511 17.9847
Au 31.4103 19.0179 15.277
Au 26.6125 10.0794 18.2224
Au 26.5129 10.9998 15.715
Au 26.212 12.1938 13.2289
Au 24.0818 9.03641 18.3164
Au 23.7261 10.2035 15.6367
Au 23.5475 11.5788 13.0512
Au 21.3351 8.19573 18.2109
Au 20.8878 9.32919 15.4721
Au 20.8473 10.7368 12.938
Au 12.627 10.6811 20.1888
Au 12.6367 11.5606 17.6683
Au 12.2352 13.0369 14.7649
Au 10.8759 12.6582 21.2608
Au 10.6937 14.1994 18.6773
Au 10.4014 15.0317 15.8136
Au 9.44731 14.6908 22.1654
Au 9.11829 16.0826 19.6808
Au 8.98887 16.9949 16.913
Au 8.95134 25.9485 25.633
Au 8.66838 26.9243 22.9284
Au 10.3776 27.7158 26.3801
Au 10.1908 28.797 23.9482
Au 23.5376 31.915 26.9008
Au 23.4356 32.9717 24.4318
Au 26.2148 31.2373 26.3628
Au 26.1183 32.0972 24.0291
Au 34.1305 21.3894 20.7276
Au 33.8266 22.3369 18.2556
Au 34.0554 18.9301 19.4936
Au 33.3912 19.9047 16.9184
Au 25.738 8.38458 16.3324
Au 25.4242 9.58398 13.8506
Au 23.1669 7.78245 16.1771
Au 22.7942 9.09835 13.5049
Au 10.2646 11.5787 18.993
Au 10.3887 12.3408 16.4915
Au 8.55997 13.3772 20.0291
Au 8.34304 14.1714 17.489
