459
 Atoms. Timestep: 50000
Au 8.22068 22.1961 22.136
Au 9.95628 24.0592 23.1181
Au 11.3932 26.2965 23.9281
Au 13.304 28.5608 24.6167
Au 14.9392 30.5182 25.4429
Au 8.50995 18.2524 20.6973
Au 10.1511 20.4864 21.3689
Au 11.9462 22.5455 22.2043
Au 13.5222 24.7714 23.2736
Au 15.3907 27.0257 23.9769
Au 17.1359 29.0727 24.711
Au 18.8526 31.047 25.6161
Au 9.20263 15.0181 19.1196
Au 10.7965 17.0625 19.7603
Au 12.5525 19.1662 20.6142
Au 14.0462 21.2847 21.4145
Au 15.7914 23.4365 22.1969
Au 17.5725 25.4247 22.9612
Au 19.5409 27.5817 23.6859
Au 21.1097 29.8358 24.5826
Au 22.7743 31.7248 25.0711
Au 11.2754 13.4142 18.3787
Au 13.0102 15.4212 19.089
Au 14.8104 17.5393 19.7927
Au 16.3561 19.7878 20.4419
Au 18.131 21.9301 21.3323
Au 19.7638 24.0249 22.1536
Au 21.5982 26.0296 22.753
Au 23.3605 28.3072 23.6078
Au 24.8532 30.3749 24.3387
Au 13.4054 12.2639 17.3707
Au 15.3393 14.0553 18.1275
Au 17.0728 16.132 18.6867
Au 18.6114 18.2764 19.6486
Au 20.4835 20.4069 20.2538
Au 22.169 22.3925 21.3533
Au 23.9157 24.6021 22.2151
Au 25.5225 27.0248 22.6872
Au 27.1818 28.7836 23.4663
Au 15.8492 10.4628 16.6988
Au 17.3014 12.4239 17.1731
Au 19.0563 14.7526 17.7853
Au 20.8748 16.6598 18.6885
Au 22.6381 18.9828 19.473
Au 24.4627 21.0456 20.2932
Au 26.0269 23.1812 21.0961
Au 27.8938 25.3156 21.8183
Au 29.405 27.3476 22.5843
Au 18.0749 9.11019 15.8513
Au 19.5366 11.1433 16.4487
Au 21.225 13.1564 17.0694
Au 23.1857 15.2293 17.7525
Au 24.9154 17.4411 18.4333
Au 26.5838 19.5548 19.2503
Au 28.3728 21.552 20.08
Au 30.1376 23.688 21.0914
Au 31.303 25.8808 21.646
Au 22.0096 9.62437 15.6545
Au 23.6854 11.8104 16.2485
Au 25.4887 13.898 16.8685
Au 27.2538 15.8256 17.572
Au 28.8553 17.92 18.5082
Au 30.6202 20.0371 19.1946
Au 32.3084 22.198 20.1879
Au 25.341 10.3198 15.3426
Au 27.3646 12.2076 15.8781
Au 29.323 14.4895 16.8546
Au 31.0197 16.4985 17.651
Au 32.7589 18.6127 18.4209
Au 8.28151 20.7943 19.2873
Au 9.88219 23.2118 20.4598
Au 11.5502 25.3501 21.371
Au 13.1154 27.4311 21.9837
Au 15.0346 29.6229 22.8314
Au 16.8392 31.5462 23.6131
Au 8.80913 17.6949 17.8141
Au 10.4047 19.6385 18.7843
Au 11.8935 21.687 19.259
Au 13.5799 23.9127 20.3997
Au 15.27 25.9953 21.3292
Au 17.2306 27.9965 21.9986
Au 19.0395 30.3334 22.7217
Au 20.4745 32.1288 23.7596
Au 10.7931 15.9109 17.1249
Au 12.5545 17.9808 17.8676
Au 14.2516 20.2111 18.5785
Au 15.7925 22.4585 19.277
Au 17.5302 24.5398 20.2679
Au 19.2724 26.6732 20.9024
Au 21.1686 28.9132 21.9047
Au 22.9424 31.1696 22.5393
Au 13.0869 14.5831 16.3694
Au 14.849 16.6315 17.0128
Au 16.4241 18.6604 17.7827
Au 18.2057 20.8246 18.4634
Au 19.9665 22.9974 19.4807
Au 21.5788 24.9396 20.1877
Au 23.2808 27.4555 20.9
Au 25.2507 29.4919 21.7627
Au 15.228 12.9866 15.5292
Au 16.8577 15.0631 15.9936
Au 18.647 17.2133 16.6422
Au 20.3167 19.2946 17.5943
Au 22.3829 21.6773 18.5365
Au 23.9648 23.7417 19.1977
Au 25.5055 25.7309 20.1321
Au 27.3845 27.8547 20.7245
Au 17.3695 11.4349 14.492
Au 19.0584 13.4546 15.0072
Au 20.8481 15.7393 15.8514
Au 22.6447 18.0022 16.8765
Au 24.4866 20.2165 17.5975
Au 26.3193 22.32 18.259
Au 27.9823 24.4596 19.2753
Au 29.7242 26.5381 19.882
Au 19.9529 9.93553 13.8692
Au 21.583 12.2132 14.3838
Au 23.0848 14.4208 15.1352
Au 25.0427 16.4091 15.7251
Au 26.9479 18.7225 16.5097
Au 28.6724 20.7551 17.3309
Au 30.1641 22.7575 18.4175
Au 31.736 24.7919 18.9105
Au 23.3645 10.6578 13.444
Au 25.2899 12.7955 14.2793
Au 27.2596 14.9129 14.9725
Au 29.0214 16.8558 15.6037
Au 30.8368 19.0396 16.418
Au 32.3168 21.3694 17.4194
Au 8.3788 20.1165 16.8047
Au 9.68908 22.2121 17.6264
Au 11.464 24.4266 18.6414
Au 13.1055 26.5722 19.0947
Au 15.0228 28.8673 20.1766
Au 16.7081 30.8724 21.0631
Au 18.5055 32.7547 21.6292
Au 10.5219 18.8023 15.9403
Au 12.1995 20.82 16.7556
Au 13.696 22.9001 17.5439
Au 15.157 25.054 18.3457
Au 16.8902 27.126 19.2683
Au 18.8432 29.2837 20.0616
Au 20.7955 31.6161 20.935
Au 12.769 16.9634 15.0849
Au 14.1727 19.1671 15.9405
Au 16.0043 21.5093 16.8374
Au 17.8998 23.7528 17.5995
Au 19.4538 25.7076 18.3654
Au 21.3133 28.0981 19.0161
Au 23.0566 30.0161 19.98
Au 14.7019 15.4188 14.3133
Au 16.3479 17.7851 15.0088
Au 18.2302 19.7884 15.8693
Au 19.8996 22.2002 16.7129
Au 21.8086 24.1262 17.3628
Au 23.3947 26.3467 18.165
Au 25.2221 28.3909 18.9618
Au 16.9969 14.0022 13.2352
Au 18.6248 15.9841 14.0099
Au 20.5467 18.4336 14.7123
Au 22.1704 20.5619 15.9303
Au 24.0715 22.742 16.4877
Au 25.8447 24.8623 17.2097
Au 27.2392 26.9798 18.1931
Au 19.1688 12.5643 12.5877
Au 20.9895 14.8414 13.1754
Au 22.744 16.9058 13.9575
Au 24.6897 19.0056 14.9534
Au 26.434 21.2317 15.561
Au 28.155 23.2956 16.1983
Au 29.6207 25.2852 17.3058
Au 21.3707 11.326 11.8823
Au 23.3588 13.3397 12.39
Au 24.9233 15.3032 13.1254
Au 26.9114 17.5898 13.969
Au 28.7031 19.7529 14.4953
Au 30.4313 21.6354 15.3516
Au 31.7379 23.7634 16.4407
Au 10.1689 21.256 14.9083
Au 11.3843 23.3357 15.7427
Au 12.9627 25.5398 16.5629
Au 14.7756 27.5564 17.3087
Au 16.7139 29.8214 18.598
Au 18.6772 31.9298 19.0457
Au 12.4136 19.8746 14.0481
Au 13.8215 22.0318 15.0119
Au 15.4046 24.1202 15.8083
Au 17.238 26.2511 16.4401
Au 18.7567 28.348 17.4515
Au 20.7163 30.4336 18.2799
Au 14.3269 18.1891 13.3166
Au 16.1475 20.5223 14.2834
Au 17.6985 22.6563 14.9568
Au 19.6236 24.8747 15.7134
Au 21.3244 26.9477 16.4459
Au 23.1208 29.0641 17.2108
Au 16.5241 16.6927 12.3712
Au 18.1525 18.9218 13.1429
Au 20.0044 21.0439 14.0659
Au 21.7393 23.1906 14.8263
Au 23.5001 25.4562 15.3848
Au 25.3369 27.3329 16.3078
Au 18.7914 15.1313 11.3469
Au 20.6316 17.3518 12.2974
Au 22.4676 19.4497 13.1413
Au 24.1294 21.5314 13.8377
Au 25.8432 23.6552 14.3716
Au 27.5671 26.0993 15.4252
Au 21.2058 13.7655 10.7697
Au 22.8969 16.1664 11.2475
Au 24.739 18.0617 12.186
Au 26.5182 20.1544 12.7726
Au 28.2682 22.3817 13.5862
Au 29.6162 24.732 14.5625
Au 11.8107 22.4231 13.1093
Au 13.4781 24.4123 13.9564
Au 14.8539 26.6422 14.6868
Au 16.6635 28.9223 15.7653
Au 18.3187 30.8554 16.6273
Au 14.1067 21.1044 12.0212
Au 15.7866 23.1629 13.1206
Au 17.1947 25.3751 14.0497
Au 19.035 27.4298 14.7728
Au 20.7917 29.5578 15.8011
Au 15.9121 19.3537 11.4418
Au 17.906 21.5606 12.2015
Au 19.5931 23.8819 13.2113
Au 21.3245 26.0259 13.7155
Au 23.1575 28.0666 14.6921
Au 18.2248 17.8651 10.5654
Au 20.0498 19.8891 11.3458
Au 21.8633 21.949 12.1649
Au 23.502 24.1393 12.8815
Au 25.3302 26.4362 13.6401
Au 20.6335 16.3884 9.79549
Au 22.4327 18.5419 10.4385
Au 24.2631 20.692 11.2596
Au 25.8626 22.6674 11.91
Au 27.4612 24.9376 12.8542
Au 13.6596 23.6176 11.4502
Au 15.1049 25.8676 11.9585
Au 16.8609 27.8007 12.9581
Au 18.4715 30.0344 13.9864
Au 15.8124 22.4123 10.2551
Au 17.4717 24.2639 11.2697
Au 19.2113 26.5434 11.9184
Au 20.805 28.7601 13.054
Au 17.9041 20.6002 9.77423
Au 19.8166 22.7826 10.5697
Au 21.4206 24.8021 11.2569
Au 23.2122 26.9697 12.0939
Au 20.1545 18.9413 8.85572
Au 21.9288 21.0497 9.54996
Au 23.6847 23.2785 10.1931
Au 25.2398 25.317 11.133
Au 15.7261 24.9973 9.51339
Au 17.1272 26.9213 10.2656
Au 18.8238 29.1307 11.3613
Au 17.7766 23.204 8.76079
Au 19.1518 25.3996 9.33839
Au 21.0832 27.5284 10.4257
Au 19.7991 21.5691 8.08621
Au 21.463 23.7291 8.61432
Au 23.0773 25.7782 9.64369
Au 8.48706 19.4308 23.3897
Au 10.0042 21.6285 23.9559
Au 11.805 23.6826 25.0815
Au 13.3833 25.9219 25.7995
Au 15.3156 28.0677 26.6035
Au 17.2399 30.0026 27.4098
Au 8.92108 15.8135 21.692
Au 10.5715 17.9258 22.3692
Au 12.2458 19.9633 23.487
Au 13.9685 22.3395 24.0971
Au 15.6496 24.3384 25.0395
Au 17.6144 26.5563 25.4694
Au 19.3519 28.508 26.3879
Au 20.9448 30.4626 27.3203
Au 11.0874 14.2859 21.0008
Au 12.9059 16.4024 21.6561
Au 14.5485 18.5071 22.4154
Au 16.1641 20.7243 23.1339
Au 17.9805 22.8924 24.0566
Au 19.8028 24.7933 24.8548
Au 21.7101 27.0163 25.5318
Au 23.2746 29.1466 26.3426
Au 13.4574 12.7633 20.0729
Au 15.2295 14.8511 20.7273
Au 17.0669 17.0703 21.5462
Au 18.5807 19.2449 22.3402
Au 20.2612 21.3109 23.0265
Au 22.0534 23.5137 23.9513
Au 24.0145 25.6556 24.7659
Au 25.5241 27.8139 25.5368
Au 15.4182 11.3493 19.2302
Au 17.4405 13.3728 20.0603
Au 19.1578 15.5977 20.5191
Au 20.8629 17.7121 21.4579
Au 22.7382 19.732 22.2817
Au 24.3292 21.9866 23.1365
Au 26.3287 24.2082 23.8562
Au 27.7963 26.3961 24.5293
Au 17.8625 9.99876 18.5262
Au 19.5714 11.9518 19.2216
Au 21.3203 14.0937 19.6755
Au 23.1873 16.1196 20.2648
Au 24.8984 18.3442 21.0917
Au 26.4817 20.5906 22.0246
Au 28.2489 22.5525 22.9595
Au 29.9866 24.7614 23.8391
Au 20.11 8.78286 17.6192
Au 21.9025 10.5974 18.3069
Au 23.5988 12.7044 18.8315
Au 25.4221 14.558 19.5649
Au 27.1859 16.812 20.3524
Au 28.7441 18.9546 21.1518
Au 30.4803 20.9352 21.8639
Au 31.9367 23.0903 22.8957
Au 24.004 9.32908 17.3279
Au 25.8708 11.2357 17.9617
Au 27.642 13.0879 18.5235
Au 29.3169 15.2321 19.4201
Au 30.9889 17.4654 20.2475
Au 32.6109 19.4326 21.0443
Au 9.10598 16.8296 24.2302
Au 10.2184 18.949 25.2357
Au 12.1505 20.9449 26.0317
Au 13.9189 23.2048 26.8387
Au 15.7435 25.4778 27.7432
Au 17.5108 27.4532 28.2626
Au 19.3583 29.1632 29.0498
Au 10.9496 15.2517 23.5535
Au 12.4525 17.4323 24.3281
Au 14.3838 19.6664 25.2689
Au 16.1634 21.8149 25.826
Au 17.9755 24.0159 26.8365
Au 19.734 26.0425 27.3853
Au 21.5956 27.9142 28.2048
Au 13.3652 13.7727 22.747
Au 15.0246 15.9476 23.4974
Au 16.4943 18.1815 24.0322
Au 18.4072 20.1664 24.9354
Au 20.2402 22.3192 25.8224
Au 22.1365 24.596 26.6406
Au 23.9453 26.6326 27.4497
Au 15.6025 12.2637 21.8775
Au 17.3128 14.4212 22.7003
Au 19.1028 16.4869 23.1813
Au 20.8789 18.7296 24.0745
Au 22.6034 20.9092 24.8754
Au 24.2689 23.0964 25.8366
Au 26.086 25.3522 26.6869
Au 17.7475 11.0374 21.258
Au 19.6703 12.9419 21.8309
Au 21.3651 15.1006 22.2228
Au 23.0989 17.1298 23.1469
Au 24.8573 19.2444 24.0042
Au 26.5797 21.4412 24.7364
Au 28.2126 23.5364 25.586
Au 19.9425 9.41352 20.3843
Au 21.9086 11.5098 21.0159
Au 23.5832 13.4926 21.614
Au 25.3321 15.6524 22.0306
Au 27.0506 17.6685 22.9426
Au 28.524 19.7779 23.7631
Au 30.3659 22.148 24.6354
Au 22.2797 8.22698 19.2835
Au 24.093 10.1929 20.0386
Au 25.9099 12.0386 20.7192
Au 27.5622 14.141 21.2707
Au 29.3764 16.3973 22.0394
Au 30.944 18.3252 22.9206
Au 32.5095 20.4204 23.5573
Au 10.9944 16.2368 26.2238
Au 12.5075 18.5166 26.9022
Au 14.4171 20.5338 27.7679
Au 16.0962 22.7917 28.5694
Au 17.7397 24.8023 29.5572
Au 19.7975 26.6546 30.0347
Au 13.176 14.8328 25.275
Au 14.8857 17.0268 26.0469
Au 16.6295 19.1301 26.8776
Au 18.3973 21.428 27.6663
Au 20.3265 23.6092 28.454
Au 22.1836 25.3833 29.5396
Au 15.5878 13.3735 24.4736
Au 17.2878 15.6731 25.1704
Au 18.96 17.518 25.7848
Au 20.7903 19.7569 26.5545
Au 22.5131 21.8028 27.5412
Au 24.3607 23.9793 28.3858
Au 17.7103 12.0146 23.9763
Au 19.6053 13.884 24.5445
Au 21.2517 16.2018 24.9654
Au 23.1206 18.2168 25.9139
Au 24.793 20.5078 26.7689
Au 26.4867 22.5656 27.4413
Au 20.0551 10.2924 23.1557
Au 21.8063 12.5299 23.6962
Au 23.6639 14.5076 24.1599
Au 25.3519 16.7139 24.8344
Au 27.003 18.9865 25.9579
Au 28.7923 21.0514 26.5922
Au 22.0125 9.0544 22.0926
Au 24.2355 10.9419 22.6404
Au 25.8726 13.1032 23.2681
Au 27.5674 15.159 23.886
Au 29.148 17.3187 24.8262
Au 30.8207 19.5384 25.5005
Au 13.2006 15.8908 27.8071
Au 14.792 18.0103 28.7641
Au 16.4462 20.1033 29.4501
Au 18.3552 22.279 30.5026
Au 20.0105 24.0817 31.0291
Au 15.408 14.4113 27.0343
Au 17.1512 16.525 27.9981
Au 18.815 18.7705 28.6249
Au 20.6249 20.882 29.3028
Au 22.4509 22.9344 30.2441
Au 17.7671 13.0323 26.3602
Au 19.3687 15.1625 27.0236
Au 21.2389 17.1621 27.7101
Au 23.0921 19.191 28.5894
Au 24.6698 21.3776 29.3294
Au 19.9701 11.3355 25.6605
Au 21.7604 13.5617 26.3157
Au 23.4724 15.6935 26.7297
Au 25.2542 17.8055 27.8387
Au 26.946 20.0332 28.4059
Au 22.2849 9.93374 24.5456
Au 24.1771 11.8309 25.2988
Au 25.827 14.1881 25.8735
Au 27.3418 16.19 26.756
Au 29.0402 18.3467 27.4372
Au 15.4214 15.3307 29.5764
Au 17.1005 17.5547 30.5881
Au 18.8983 19.6281 31.4305
Au 20.6917 21.5872 31.9489
Au 17.6107 14.0302 29.187
Au 19.4434 15.9867 29.653
Au 21.0986 18.2316 30.2545
Au 22.8163 20.1417 31.2297
Au 19.8763 12.5139 28.3013
Au 21.6409 14.6517 28.8049
Au 23.4965 16.6554 29.5319
Au 25.3351 18.9123 30.3995
Au 22.181 11.0418 27.1223
Au 23.9635 13.188 27.7311
Au 25.5231 15.224 28.5974
Au 27.3449 17.2682 29.4867
Au 17.807 15.0739 31.3699
Au 19.4706 16.9314 32.185
Au 20.8623 19.0988 32.8867
Au 20.0221 13.6746 30.8513
Au 21.6862 15.5691 31.436
Au 23.4071 17.6971 31.8518
Au 22.1073 12.1851 29.5091
Au 23.9267 13.9564 30.3548
Au 25.5928 16.1091 31.1209
