489
 Atoms. Timestep: 50000
Au 5.67861 18.083 20.7627
Au 6.66634 20.366 21.7678
Au 8.38317 22.4612 22.4225
Au 10.0094 24.4084 23.3939
Au 11.4073 26.4909 24.1356
Au 13.0512 28.472 24.8611
Au 14.8193 30.5018 25.5265
Au 16.4729 32.4638 26.4923
Au 18.5918 33.9969 26.9831
Au 7.30173 16.4101 19.9693
Au 8.72226 18.8112 20.6691
Au 10.2366 20.7798 21.631
Au 11.9485 22.8196 22.378
Au 13.5692 25.0774 23.222
Au 15.2955 27.248 23.9596
Au 17.1138 29.3515 24.7071
Au 18.7416 31.318 25.6424
Au 20.8118 33.123 26.0822
Au 9.36696 14.7447 19.0421
Au 10.6682 17.0123 19.7543
Au 12.3848 19.1184 20.5973
Au 14.0528 21.1917 21.4115
Au 15.7797 23.2837 22.3613
Au 17.4047 25.6304 23.0229
Au 19.2693 27.6746 23.7621
Au 21.0961 29.9144 24.4263
Au 22.8329 31.8044 25.0283
Au 11.261 13.2958 18.3466
Au 12.7976 15.4576 19.1047
Au 14.5485 17.4536 19.7124
Au 16.2679 19.7715 20.4374
Au 18.0602 21.8802 21.4135
Au 20.0209 23.9846 22.0887
Au 21.7108 26.1714 22.8101
Au 23.2388 28.3227 23.5743
Au 24.886 30.1102 24.3109
Au 13.5684 11.6498 17.3822
Au 14.8883 13.7774 18.0435
Au 16.9888 16.0676 18.6767
Au 18.6567 18.368 19.4955
Au 20.4626 20.389 20.2502
Au 22.2296 22.4764 21.1891
Au 23.9198 24.8304 21.9541
Au 25.6781 26.838 22.867
Au 27.2981 28.7822 23.528
Au 15.7315 10.2393 16.8169
Au 17.5004 12.4268 17.3468
Au 19.2502 14.6346 18.0244
Au 20.8844 16.8341 18.5498
Au 22.6181 18.8712 19.4261
Au 24.3756 21.0539 20.224
Au 26.084 23.0613 20.9605
Au 27.8244 25.3445 21.8134
Au 29.3866 27.363 22.7517
Au 17.952 8.95195 15.8062
Au 19.6546 11.0016 16.4478
Au 21.5462 13.1287 17.1755
Au 23.1174 15.2458 17.744
Au 24.754 17.3483 18.4813
Au 26.6495 19.7015 19.1563
Au 28.2 21.7338 19.9209
Au 30.1298 23.8813 20.938
Au 31.578 25.9034 21.8093
Au 19.9763 7.71201 14.7301
Au 21.8744 9.48154 15.4398
Au 23.6598 11.407 16.1948
Au 25.4468 13.5968 16.8113
Au 27.1683 15.8273 17.636
Au 28.918 17.938 18.3045
Au 30.7275 20.1743 18.927
Au 32.0456 22.237 19.9764
Au 33.6426 24.4966 20.6858
Au 22.1427 6.99742 13.9309
Au 24.369 8.27809 14.7825
Au 25.9516 10.3574 15.4473
Au 27.6735 12.5574 16.0476
Au 29.497 14.556 16.7057
Au 30.9981 16.5623 17.5465
Au 32.6677 18.6909 18.1394
Au 34.4097 21.0162 19.1371
Au 35.5758 23.1005 20.0392
Au 6.88228 19.3211 18.8512
Au 8.31604 21.3884 19.6173
Au 9.99703 23.4439 20.5017
Au 11.4538 25.6164 21.5209
Au 13.0626 27.867 22.1982
Au 14.8943 29.8858 22.9404
Au 16.5029 31.8586 23.7942
Au 18.4659 33.8686 24.4256
Au 8.78382 17.4704 17.9159
Au 10.2856 19.7434 18.6026
Au 11.9298 21.7754 19.6353
Au 13.8019 23.9406 20.3872
Au 15.2503 26.108 21.326
Au 17.079 28.4014 21.9425
Au 18.7688 30.4882 22.6087
Au 20.5231 32.408 23.4522
Au 11.042 15.7908 17.0298
Au 12.5941 18.0893 17.9147
Au 14.182 20.2143 18.6913
Au 15.9758 22.416 19.5446
Au 17.5091 24.7433 20.3092
Au 19.3348 26.6479 21.089
Au 21.212 29.1308 21.7445
Au 22.8703 31.0388 22.4652
Au 12.9002 14.0834 16.1538
Au 14.5451 16.3475 16.9955
Au 16.2163 18.5425 17.8946
Au 17.9333 20.8291 18.5425
Au 19.8962 23.0164 19.3259
Au 21.781 25.2098 20.1089
Au 23.5099 27.3054 21.0115
Au 25.1929 29.3179 21.7451
Au 15.1297 12.7906 15.412
Au 16.9939 14.9104 16.145
Au 18.8146 17.2384 16.8474
Au 20.524 19.4235 17.4837
Au 22.24 21.5547 18.3019
Au 24.0563 23.7352 19.2286
Au 25.7141 25.9175 20.0372
Au 27.427 27.9365 20.8232
Au 17.4391 11.6909 14.7477
Au 19.2099 13.5848 15.3705
Au 20.9387 15.6969 15.9266
Au 22.6926 17.9823 16.6538
Au 24.5036 20.0364 17.4562
Au 26.1825 22.1903 18.0582
Au 27.9446 24.5247 19.1934
Au 29.5602 26.4427 19.8854
Au 19.5712 10.1908 13.6736
Au 21.4512 11.968 14.4562
Au 23.2867 14.3266 14.9102
Au 25.1017 16.3086 15.8385
Au 26.7882 18.553 16.7221
Au 28.6354 20.6747 17.272
Au 30.1523 22.9408 18.1127
Au 31.6419 25.2818 18.8704
Au 21.9724 9.12174 12.7803
Au 24.0067 10.6886 13.6399
Au 25.581 12.8309 14.0807
Au 27.336 14.9708 14.9125
Au 28.9429 17.1292 15.6129
Au 30.7404 19.1701 16.2947
Au 32.4135 21.2697 16.9521
Au 33.6099 23.4561 18.1423
Au 8.35459 20.1686 17.0086
Au 10.0463 22.5144 17.5944
Au 11.5739 24.3679 18.5626
Au 13.3079 26.5634 19.6241
Au 15.1391 28.7881 20.0323
Au 16.6692 31.0331 21.0897
Au 18.4323 32.9288 21.7038
Au 10.4914 18.6599 16.082
Au 12.0916 20.752 16.798
Au 13.7229 22.9988 17.6606
Au 15.4371 25.2181 18.5212
Au 17.24 27.2613 19.2566
Au 18.9355 29.4183 20.135
Au 20.7115 31.5174 20.7981
Au 12.5311 16.9577 15.0886
Au 14.1951 18.886 15.8618
Au 15.7976 21.4703 16.9114
Au 17.5712 23.4143 17.4576
Au 19.537 25.6898 18.3262
Au 21.2044 27.6455 19.3655
Au 23.0832 29.7038 19.9303
Au 14.869 15.512 14.3917
Au 16.55 17.6069 15.2436
Au 18.1188 19.9373 15.7721
Au 19.8863 22.1372 16.6021
Au 21.85 24.1585 17.4228
Au 23.5608 26.4649 18.3192
Au 25.2434 28.6156 19.0247
Au 16.8994 13.9863 13.4046
Au 18.7067 16.076 14.0622
Au 20.4764 18.3397 14.8719
Au 22.4213 20.4753 15.4609
Au 24.0553 22.6747 16.4229
Au 25.856 24.8884 17.421
Au 27.5394 27.029 17.9729
Au 19.2526 12.6569 12.6589
Au 20.9609 14.6199 13.3628
Au 22.8942 16.7408 13.9314
Au 24.6714 18.8211 14.7926
Au 26.4273 21.0124 15.5302
Au 28.0633 23.2149 16.4327
Au 29.741 25.5121 17.0271
Au 21.594 11.4599 11.8467
Au 23.3418 13.2648 12.4381
Au 25.2539 15.3745 13.1905
Au 26.9783 17.5489 13.9428
Au 28.5351 19.7168 14.6882
Au 30.3073 21.7559 15.4399
Au 31.7864 23.8245 16.2957
Au 9.96877 21.2119 15.0372
Au 11.5118 23.4554 15.8731
Au 13.3768 25.7218 16.8915
Au 15.0862 27.7513 17.6136
Au 16.8483 30.06 18.2499
Au 18.4923 31.9564 19.1888
Au 12.1045 19.6054 13.9356
Au 13.8403 21.9688 14.8269
Au 15.3607 24.1371 15.6078
Au 17.2329 26.1925 16.5493
Au 19.0682 28.402 17.5195
Au 20.7825 30.5341 18.3495
Au 14.5016 18.1664 13.3389
Au 15.8754 20.3024 14.0204
Au 17.7057 22.5789 14.8983
Au 19.4886 24.5991 15.6208
Au 21.2856 26.7758 16.5055
Au 23.0087 28.9715 17.2736
Au 16.6766 16.5802 12.4394
Au 18.1886 18.8854 13.1834
Au 19.8329 21.1543 13.8846
Au 21.7524 23.1766 14.6457
Au 23.703 25.435 15.6619
Au 25.397 27.6123 16.394
Au 18.7945 15.1972 11.4281
Au 20.5776 17.2557 12.3598
Au 22.511 19.4413 13.0081
Au 24.1734 21.5492 13.8538
Au 25.8927 23.739 14.4235
Au 27.5439 26.1576 15.317
Au 21.0986 13.9684 10.7613
Au 22.9859 15.8265 11.475
Au 24.7976 18.004 11.9768
Au 26.3894 19.9769 13.0186
Au 28.2293 22.2745 13.5613
Au 29.6414 24.2971 14.4221
Au 11.6953 22.3442 13.2854
Au 13.1581 24.7015 14.1576
Au 14.9731 26.7658 14.9726
Au 16.9412 29.0554 15.8114
Au 18.6697 30.9676 16.5847
Au 13.8177 20.9076 12.3373
Au 15.6432 23.0662 12.9967
Au 17.1996 25.3407 13.7922
Au 19.314 27.3863 14.9297
Au 21.0386 29.5425 15.5329
Au 15.9734 19.1949 11.2762
Au 17.6915 21.5486 12.0243
Au 19.642 23.7838 12.9117
Au 21.3973 25.9941 14.0032
Au 23.0965 28.0539 14.5877
Au 18.3817 17.7034 10.6606
Au 20.2671 19.8208 11.1461
Au 21.9711 22.0467 12.028
Au 23.7452 24.392 12.893
Au 25.485 26.7174 13.7525
Au 20.622 16.4939 9.77002
Au 22.6073 18.3131 10.3292
Au 24.3046 20.5285 11.2746
Au 25.96 22.6725 11.9521
Au 27.669 24.8068 12.8593
Au 13.4613 23.3487 11.5661
Au 14.9461 25.7807 12.3253
Au 16.9493 27.9452 13.2923
Au 18.7169 30.0125 14.0933
Au 15.3666 22.0045 10.3714
Au 17.431 24.3725 11.2342
Au 19.12 26.5483 12.1634
Au 20.9018 28.5924 12.9798
Au 17.8146 20.2405 9.541
Au 19.8807 22.686 10.3477
Au 21.6309 24.8912 11.3475
Au 23.3989 26.9771 12.0294
Au 20.3924 18.9552 8.8041
Au 21.9806 21.1028 9.32
Au 23.7665 23.2745 10.3006
Au 25.7483 25.3466 11.3287
Au 15.3728 24.5809 9.61447
Au 16.7387 27.0328 10.9613
Au 18.8926 29.2228 11.554
Au 17.6179 23.0642 8.90209
Au 19.4558 25.4135 9.60452
Au 21.2539 27.6606 10.3523
Au 19.5873 21.328 7.95374
Au 21.7332 23.7488 8.81967
Au 23.5978 25.9062 9.76538
Au 17.2304 25.778 8.17748
Au 18.9615 27.9557 9.23999
Au 19.5039 23.9458 7.40609
Au 21.6053 26.1888 7.96369
Au 19.4174 26.5794 7.13621
Au 7.24764 17.566 22.7681
Au 8.63576 19.735 23.5142
Au 10.2065 21.6421 24.4917
Au 11.8583 23.7186 25.2938
Au 13.6876 25.9392 25.8801
Au 15.2193 28.0379 26.5397
Au 16.8179 29.9945 27.4964
Au 18.4465 31.8832 28.3395
Au 8.88551 15.6465 21.8071
Au 10.57 17.8069 22.4341
Au 12.2525 20.1447 23.5064
Au 13.8705 22.3333 24.2262
Au 15.7655 24.548 24.9856
Au 17.4562 26.6382 25.9112
Au 19.3166 28.7096 26.2615
Au 21.0277 30.6647 27.0985
Au 11.2013 14.3019 21.1411
Au 12.902 16.2293 21.7286
Au 14.5075 18.4831 22.482
Au 16.1873 20.7015 23.1388
Au 17.99 22.942 24.0307
Au 19.6428 25.04 24.6995
Au 21.505 27.0876 25.4634
Au 23.162 29.228 26.3114
Au 13.2876 12.781 20.0757
Au 15.0268 14.9903 20.7006
Au 16.7862 17.1222 21.5211
Au 18.6078 19.1757 22.2474
Au 20.3051 21.241 23.0535
Au 22.1474 23.6052 23.8025
Au 23.9249 25.6524 24.7298
Au 25.456 27.858 25.4523
Au 15.7639 11.2103 19.293
Au 17.1697 13.5243 20.0274
Au 19.0567 15.6047 20.6206
Au 20.6845 17.698 21.3296
Au 22.6086 19.7993 22.1835
Au 24.351 21.9488 22.9488
Au 26.069 24.2796 23.713
Au 27.7434 26.3508 24.6301
Au 17.7964 9.70806 18.3748
Au 19.6543 11.8474 19.0982
Au 21.3412 14.1058 19.7689
Au 22.8406 16.2517 20.5636
Au 24.7866 18.3247 21.407
Au 26.4618 20.3121 21.9538
Au 28.2746 22.6776 22.8506
Au 29.9426 24.8963 23.7121
Au 19.9684 8.23653 17.2599
Au 21.744 10.4459 18.1066
Au 23.8112 12.5999 18.7808
Au 25.4269 14.7312 19.3587
Au 27.1502 16.9645 20.2921
Au 28.9215 19.0431 21.0448
Au 30.452 21.1807 21.873
Au 32.0387 23.5056 22.8452
Au 22.3911 7.07404 16.6602
Au 24.0882 9.03301 17.3835
Au 26.073 11.1002 17.8076
Au 27.6623 13.2626 18.6877
Au 29.4756 15.4626 19.4357
Au 31.1615 17.5105 20.1076
Au 32.6471 19.6563 20.9892
Au 33.9955 21.8497 21.6768
Au 9.07563 16.7791 24.5389
Au 10.5297 18.6926 25.2613
Au 12.2454 20.9039 26.1708
Au 14.0684 23.1748 26.8347
Au 15.6395 25.311 27.7002
Au 17.4661 27.4812 28.4099
Au 19.2842 29.463 28.8025
Au 11.0782 15.194 23.8557
Au 12.6733 17.2651 24.5184
Au 14.4925 19.5517 25.1191
Au 16.1778 21.9995 25.8637
Au 17.8804 23.9548 26.6297
Au 19.6875 25.9981 27.2447
Au 21.5764 28.0367 28.1194
Au 13.3299 13.7759 22.8991
Au 15.0169 15.9771 23.5013
Au 16.7425 18.1457 24.1779
Au 18.5085 20.3155 25.0185
Au 20.3284 22.3764 25.6092
Au 21.8571 24.4462 26.6463
Au 23.8753 26.6722 27.2302
Au 15.4323 12.1478 21.7641
Au 17.0829 14.3826 22.6048
Au 18.8514 16.473 23.344
Au 20.672 18.5563 24.0911
Au 22.4885 20.9781 24.7184
Au 24.4866 23.1614 25.684
Au 26.0935 25.2911 26.4948
Au 17.8144 10.693 20.9462
Au 19.4196 12.951 21.7973
Au 21.2153 15.0687 22.4126
Au 22.9038 17.1754 23.2031
Au 24.6684 19.0874 23.992
Au 26.4647 21.4746 24.6096
Au 28.0941 23.5988 25.4256
Au 20.2009 9.31492 20.0754
Au 21.808 11.4243 20.8283
Au 23.6273 13.6334 21.406
Au 25.3725 15.6518 22.3236
Au 27.3446 17.6829 22.984
Au 28.6825 19.871 23.7258
Au 30.3313 22.0752 24.5441
Au 22.3731 7.93552 19.3108
Au 24.091 10.0279 19.7914
Au 25.8973 12.1766 20.5372
Au 27.5659 14.4438 21.2881
Au 29.4134 16.4096 21.943
Au 30.9056 18.4511 23.1627
Au 32.3992 20.889 23.6094
Au 11.001 16.3067 26.3233
Au 12.8262 18.4037 27.1982
Au 14.392 20.5029 27.8136
Au 16.1503 22.8421 28.5618
Au 18.0482 24.7249 29.1816
Au 19.8249 27.0846 29.857
Au 13.426 14.7871 25.4835
Au 14.8911 16.964 26.192
Au 16.6004 19.0834 26.9355
Au 18.1393 21.2948 27.6144
Au 20.0634 23.2921 28.4514
Au 21.9922 25.5026 29.2592
Au 15.5653 13.2584 24.4968
Au 17.1238 15.4811 25.3917
Au 18.9582 17.7059 25.9621
Au 20.7423 19.6811 26.7525
Au 22.5638 21.9384 27.4278
Au 24.1097 24.138 28.3025
Au 17.5548 11.7002 23.6518
Au 19.3834 13.8629 24.2464
Au 21.3101 15.997 25.2389
Au 22.8019 18.1667 25.792
Au 24.7866 20.5347 26.5252
Au 26.4609 22.5721 27.4779
Au 20.0505 10.3209 22.652
Au 21.6108 12.3764 23.4072
Au 23.5778 14.348 24.1263
Au 25.3352 16.5655 24.8854
Au 26.9994 18.644 25.7529
Au 28.4282 20.7567 26.4585
Au 22.4719 9.07264 21.6986
Au 24.1574 10.9537 22.5455
Au 25.9889 12.9436 23.2777
Au 27.6252 15.172 23.9489
Au 29.2721 17.2167 24.8462
Au 30.7686 19.5745 25.5246
Au 13.2732 15.8134 27.9751
Au 14.9828 17.8553 28.8477
Au 16.5801 20.2171 29.7142
Au 18.2346 22.1732 30.4355
Au 20.0113 24.4437 30.8259
Au 15.4608 14.207 27.1302
Au 17.1944 16.497 28.0185
Au 18.7719 18.5596 28.8648
Au 20.683 20.8455 29.2712
Au 22.4242 22.9764 30.05
Au 17.6997 12.8019 26.2298
Au 19.2809 15.0052 26.871
Au 21.0405 17.1556 27.8973
Au 23.0257 19.2965 28.4121
Au 24.6623 21.3787 29.2688
Au 19.9417 11.346 25.3124
Au 21.5816 13.3355 26.0294
Au 23.4758 15.5498 26.7738
Au 25.1409 17.702 27.4391
Au 26.6941 19.8242 28.2009
Au 22.1766 9.88419 24.4431
Au 23.8798 11.9723 25.0362
Au 25.6336 13.9408 25.8448
Au 27.4392 16.0656 26.6778
Au 29.1625 18.1481 27.4268
Au 15.3601 15.2901 29.7158
Au 16.9061 17.6503 30.5752
Au 18.7611 19.586 31.3207
Au 20.6719 21.7693 31.9053
Au 17.6425 13.7422 28.6975
Au 19.2047 15.9331 29.7567
Au 21.1289 18.3359 30.5213
Au 22.9564 20.2436 30.9213
Au 19.7675 12.2553 27.898
Au 21.6198 14.4887 28.8376
Au 23.4823 16.732 29.6298
Au 25.3113 18.783 30.462
Au 22.0224 10.9866 27.0777
Au 23.8438 13.2251 27.7695
Au 25.5863 15.0817 28.5068
Au 27.215 17.3104 29.1688
Au 17.2271 14.6747 31.3596
Au 19.0705 17.1487 32.2343
Au 20.9971 19.3985 32.9787
Au 19.588 13.1453 30.5031
Au 21.4615 15.5939 31.258
Au 23.1563 17.76 32.1826
Au 22.1102 11.8932 29.4057
Au 23.9827 14.0368 30.5478
Au 25.5416 16.034 31.0472
Au 19.3056 14.5472 32.866
Au 21.2392 16.6086 33.6726
Au 21.8203 13.0184 31.8045
Au 23.5354 15.1541 33.037
Au 21.6865 14.1009 34.0927
