484
 Atoms. Timestep: 50000
Au 21.1692 15.7927 30.9681
Au 21.1747 16.7332 28.433
Au 21.1057 17.9891 25.7797
Au 20.7784 19.2728 23.0646
Au 20.5539 20.4346 20.3716
Au 20.0958 21.7488 17.7657
Au 19.9259 22.8972 15.1735
Au 19.5688 23.9011 12.451
Au 19.3453 25.1656 9.95
Au 18.9112 15.9923 29.8066
Au 18.6043 17.208 27.2839
Au 18.4486 18.4257 24.573
Au 18.2533 19.7843 22.0594
Au 17.7585 20.9268 19.2417
Au 17.5464 22.3107 16.6633
Au 17.2447 23.4653 13.9668
Au 16.9798 24.4832 11.383
Au 20.8209 18.2797 30.6022
Au 20.2757 19.4644 28.0395
Au 20.2578 20.6527 25.5552
Au 20.0004 21.9858 22.8014
Au 19.5869 23.1094 20.2903
Au 19.4295 24.313 17.4697
Au 18.8298 25.5014 14.6083
Au 18.9562 26.6146 12.227
Au 23.2634 17.4679 29.9449
Au 23.1193 18.6205 27.4652
Au 22.9632 19.7047 24.8024
Au 22.6599 21.0567 22.2768
Au 22.2805 22.1552 19.5424
Au 22.1021 23.489 16.7023
Au 21.6084 24.74 14.0821
Au 21.5412 25.7442 11.5711
Au 23.155 15.0304 28.8976
Au 22.9636 16.1218 26.3092
Au 22.7264 17.2051 23.6426
Au 22.6853 18.5394 21.0594
Au 22.2144 19.6522 18.2138
Au 21.8491 20.789 15.6747
Au 21.7937 21.9962 12.971
Au 21.3553 23.2872 10.4592
Au 20.3557 14.1451 28.7381
Au 20.1198 15.131 26.2531
Au 20.1376 16.5137 23.5662
Au 19.9316 17.6953 20.971
Au 19.4843 19.0148 18.3544
Au 19.246 20.0205 15.7404
Au 18.9302 21.3006 12.9756
Au 18.5698 22.4182 10.2391
Au 16.4157 16.7427 28.7014
Au 15.9943 17.8401 26.2402
Au 15.9235 18.9194 23.6002
Au 15.4923 20.2439 20.7559
Au 15.1654 21.5565 17.9451
Au 14.9651 22.7532 15.4195
Au 14.7912 23.9009 12.8672
Au 18.188 18.6851 29.4691
Au 17.8147 19.9564 26.8632
Au 17.6663 21.125 24.2573
Au 17.4551 22.3631 21.6024
Au 17.2022 23.6034 18.967
Au 16.653 24.9542 16.2984
Au 16.4271 26.0545 13.7307
Au 19.7287 21.0382 30.4125
Au 19.5605 22.2638 27.8858
Au 19.3114 23.4946 25.1823
Au 19.127 24.6306 22.4656
Au 18.6808 25.7024 19.6585
Au 18.509 26.9733 17.0897
Au 18.2014 28.0528 14.6616
Au 22.3922 20.1899 29.6155
Au 22.2661 21.4295 27.2386
Au 22.1024 22.59 24.6305
Au 21.7387 23.7709 21.7782
Au 21.4327 25.1135 19.2058
Au 21.1161 26.1397 16.381
Au 20.8827 27.4023 14.0064
Au 25.0463 19.6143 29.0555
Au 24.8744 20.769 26.7115
Au 24.6658 22.0282 23.9323
Au 24.2993 23.1997 21.2174
Au 24.0523 24.2622 18.4973
Au 23.811 25.5174 15.792
Au 23.7874 26.3264 13.1185
Au 25.2566 16.9211 28.0441
Au 25.1075 18.0089 25.5817
Au 24.7138 19.0561 22.7857
Au 24.3184 20.3901 20.0928
Au 24.0678 21.4937 17.4067
Au 23.6963 22.7987 14.5034
Au 23.7143 23.9309 12.0077
Au 25.1665 14.5148 26.8064
Au 24.7055 15.4395 24.1148
Au 24.6535 16.5102 21.3734
Au 24.2977 17.6424 18.9098
Au 23.9743 18.848 15.9963
Au 23.7975 20.0388 13.4812
Au 23.2844 21.2973 10.8662
Au 22.3061 13.4478 26.744
Au 21.8733 14.4178 24.1929
Au 21.9529 15.7948 21.351
Au 21.3748 16.8994 18.6323
Au 21.3656 18.0377 16.1016
Au 21.0274 19.2487 13.3373
Au 20.6568 20.7167 10.9182
Au 19.6424 12.6432 26.3893
Au 19.198 13.8526 23.7612
Au 19.2304 15.1344 21.1598
Au 18.6059 16.0079 18.4798
Au 18.5944 17.2874 15.9737
Au 18.3953 18.6131 13.4366
Au 17.8711 19.6384 10.9757
Au 17.7559 14.4976 27.7042
Au 17.5986 15.6644 25.0976
Au 17.5137 16.9945 22.478
Au 17.247 18.2186 19.9216
Au 16.8835 19.4658 16.9783
Au 16.7051 20.6709 14.5191
Au 16.3019 21.8195 11.9116
Au 13.7367 17.2911 27.5402
Au 13.4522 18.5309 25.0387
Au 13.4216 19.6893 22.4237
Au 13.0626 20.9881 19.7152
Au 12.5997 22.1813 17.1692
Au 12.405 23.5891 14.6696
Au 15.5373 19.5415 28.323
Au 15.3736 20.6092 25.8618
Au 15.056 21.8036 23.217
Au 14.7885 22.9979 20.6577
Au 14.4756 24.3784 17.9269
Au 14.1736 25.6041 15.412
Au 17.3706 21.5275 29.3273
Au 16.9762 22.6967 26.7202
Au 16.7235 23.8311 24.1607
Au 16.5944 25.062 21.3857
Au 16.0839 26.3682 18.7106
Au 15.8616 27.6916 16.5063
Au 18.9478 23.727 30.0193
Au 18.706 24.7772 27.4069
Au 18.4435 26.0607 24.7739
Au 18.1147 27.4826 21.862
Au 17.9015 28.4983 19.2049
Au 17.7213 29.6908 16.8193
Au 21.7159 23.1041 29.5564
Au 21.3366 24.1959 26.8744
Au 21.2955 25.4503 24.2178
Au 20.7701 26.6416 21.3414
Au 20.6276 27.9211 18.6804
Au 20.295 28.9364 16.1079
Au 24.257 22.3177 28.9624
Au 24.1284 23.4058 26.2651
Au 23.7803 24.7064 23.59
Au 23.4933 25.8114 20.8512
Au 23.2052 26.8449 18.1792
Au 22.9318 28.2044 15.5971
Au 26.9846 21.6982 28.1476
Au 26.8485 22.5935 25.5508
Au 26.5742 23.9002 22.7624
Au 26.1264 25.2308 20.1459
Au 25.971 26.1841 17.611
Au 25.6747 27.3663 15.0989
Au 27.0777 19.0743 27.0562
Au 26.8558 19.9066 24.6314
Au 26.3367 21.1645 21.9034
Au 26.0227 22.4048 19.2298
Au 25.711 23.4391 16.5033
Au 25.6509 24.6006 14.0201
Au 27.0274 16.0275 25.9315
Au 26.8337 17.3303 23.3982
Au 26.3572 18.461 20.6835
Au 26.0862 19.5754 17.9087
Au 25.8388 20.826 15.1862
Au 25.5882 22.1841 12.6018
Au 26.6636 13.6043 24.5679
Au 26.6505 14.6795 22.1764
Au 26.3284 15.6857 19.2051
Au 26.0488 16.9009 16.5977
Au 26.0716 18.2812 14.0841
Au 25.4292 19.411 11.4362
Au 24.0758 12.7199 24.6554
Au 23.887 13.8989 22.0093
Au 23.6611 14.9631 19.2536
Au 23.2811 16.0993 16.6161
Au 23.0434 17.3449 13.9666
Au 22.8147 18.4972 11.2819
Au 21.33 11.7775 24.4168
Au 21.1861 13.0794 21.7769
Au 20.7984 14.2582 19.2146
Au 20.6007 15.4299 16.3824
Au 20.3086 16.5895 13.6863
Au 19.9696 17.9411 11.2834
Au 18.3878 11.029 24.2625
Au 18.1951 12.1839 21.6622
Au 18.1079 13.2663 19.2348
Au 17.7572 14.5093 16.0761
Au 17.5075 15.9355 13.661
Au 17.2686 16.9359 11.2566
Au 17.0504 13.1713 25.4083
Au 16.6836 14.2814 22.7445
Au 16.5384 15.2083 20.1071
Au 16.3491 16.6707 17.6665
Au 15.945 17.8842 14.9446
Au 15.6005 19.0385 12.302
Au 15.2502 15.1829 26.4699
Au 15.1254 16.2238 24.0427
Au 14.9961 17.4368 21.4869
Au 14.5458 18.8852 18.5689
Au 14.2786 20.0238 15.8033
Au 13.9088 21.2021 13.4896
Au 11.333 17.9259 26.5732
Au 10.9795 19.0734 23.9724
Au 10.6356 20.2245 21.4941
Au 10.3609 21.4931 18.7406
Au 10.1444 22.7198 16.0364
Au 12.9319 20.173 27.2557
Au 12.7475 21.1991 24.6805
Au 12.4995 22.4155 22.1916
Au 12.0455 23.7768 19.5112
Au 11.9519 25.1342 16.8595
Au 14.6384 22.1475 28.1407
Au 14.4719 23.2215 25.5506
Au 14.2856 24.5561 23.0901
Au 13.736 25.7946 20.4541
Au 13.595 26.9305 17.8695
Au 16.4414 24.2476 28.9096
Au 16.2731 25.3939 26.5784
Au 16.0297 26.6035 23.7183
Au 15.5482 28.0125 21.0782
Au 15.2654 29.0582 18.5501
Au 17.8634 26.5272 29.5938
Au 17.8112 27.6513 27.0336
Au 17.7791 28.8545 24.543
Au 17.179 29.9805 21.9969
Au 17.1993 31.0679 19.4432
Au 20.7409 25.6497 29.094
Au 20.6569 26.85 26.6315
Au 20.2922 27.9521 23.7397
Au 19.9574 29.4308 21.1626
Au 20.0119 30.4462 18.6186
Au 23.6236 25.0733 28.4209
Au 23.4554 26.1407 25.8928
Au 22.8501 27.3237 23.0006
Au 22.7607 28.6034 20.3546
Au 22.572 29.6588 17.9749
Au 26.0814 24.2335 27.8753
Au 26.0019 25.3509 25.3739
Au 25.6511 26.5142 22.7503
Au 25.3851 27.8667 19.7819
Au 25.1667 28.6773 17.2343
Au 28.6631 23.7463 27.1945
Au 28.462 24.7209 24.6477
Au 28.2435 25.8368 21.8587
Au 28.1119 27.0106 19.1976
Au 27.7722 28.1198 16.6936
Au 29.2 20.7345 26.0666
Au 28.5499 21.798 23.4599
Au 28.2502 22.9659 20.8275
Au 27.975 24.2862 18.1444
Au 27.6258 25.5465 15.6399
Au 28.9684 18.0636 25.0243
Au 28.6329 19.194 22.404
Au 28.0535 20.4475 19.7392
Au 27.9646 21.7444 17.0553
Au 27.7421 23.0316 14.5886
Au 28.8549 15.3553 23.6063
Au 28.6212 16.5745 21.2831
Au 28.0247 17.6879 18.5629
Au 27.9639 19.0668 15.7328
Au 27.6788 20.4639 13.1847
Au 28.5409 12.8156 22.4038
Au 28.3868 14.0776 19.9935
Au 28.1785 15.0511 17.1578
Au 27.9662 16.3076 14.6308
Au 27.7337 17.7522 12.2138
Au 26.1416 11.7989 22.5522
Au 25.6796 13.0784 19.9719
Au 25.3291 14.0566 17.0238
Au 25.1385 15.4754 14.4976
Au 24.9198 16.8623 11.9513
Au 23.1864 11.3075 22.3726
Au 22.9861 12.3699 19.6724
Au 22.623 13.5104 17.1439
Au 22.3058 14.7412 14.2708
Au 22.095 15.7069 11.7344
Au 20.4958 10.3689 22.2064
Au 20.124 11.4832 19.8312
Au 19.8019 12.7428 16.893
Au 19.5583 13.6832 14.0412
Au 19.3316 15.2551 11.5718
Au 17.6734 9.6005 21.8968
Au 17.3157 10.5518 19.4296
Au 16.8938 11.8793 16.8289
Au 16.6586 13.0846 14.0724
Au 16.6937 14.3417 11.5823
Au 16.099 11.4732 23.222
Au 15.5378 12.5996 20.6187
Au 15.5454 13.9861 17.9372
Au 15.1466 15.2339 15.2961
Au 14.9798 16.4877 12.5912
Au 14.372 13.5439 24.4776
Au 14.0984 14.8066 21.9094
Au 13.9252 15.9972 19.1325
Au 13.7425 17.1986 16.4248
Au 13.406 18.4615 13.8037
Au 12.6856 15.8488 25.652
Au 12.7304 17.0144 23.0581
Au 12.4147 18.2444 20.2748
Au 12.1011 19.297 17.3528
Au 11.7349 20.5743 14.7871
Au 8.81882 18.6952 25.3649
Au 8.29756 19.7718 22.9797
Au 8.0714 20.7628 20.4632
Au 8.01811 21.7599 17.6133
Au 10.3303 20.6686 26.3714
Au 10.1228 21.7517 23.6609
Au 9.91992 22.878 21.1416
Au 9.58019 24.1671 18.3977
Au 12.0818 22.7607 27.0672
Au 11.7339 23.827 24.6158
Au 11.5129 25.0652 22.0816
Au 11.0751 26.2227 19.3185
Au 13.8193 24.9224 28.0121
Au 13.7071 26.015 25.3624
Au 13.2263 27.1516 22.7165
Au 13.0532 28.3436 20.1738
Au 15.2614 26.988 28.9367
Au 15.253 28.1827 25.6929
Au 15.0405 29.4573 23.468
Au 14.785 30.7362 20.8044
Au 17.2395 29.0023 29.3354
Au 17.0428 30.4683 26.8111
Au 16.9824 31.7386 24.3818
Au 16.8777 32.8711 21.8134
Au 19.9557 28.2304 28.7277
Au 19.9017 29.5752 26.1212
Au 19.7016 30.915 23.5902
Au 19.1683 32.108 21.0017
Au 22.8194 27.6706 28.1744
Au 22.4831 28.5652 25.4587
Au 22.2588 29.9273 22.7215
Au 22.0856 31.229 20.181
Au 25.5202 27.0693 27.6036
Au 25.2949 28.2733 24.8992
Au 24.8446 29.2982 22.2407
Au 24.7913 30.5264 19.6698
Au 28.0598 26.4349 27.0464
Au 27.8959 27.4618 24.3543
Au 27.5957 28.3985 21.4841
Au 27.2597 29.7557 18.7886
Au 30.5151 25.6079 26.0008
Au 30.412 26.5927 23.4618
Au 30.3159 27.6983 20.801
Au 29.8965 28.7412 18.5923
Au 30.8102 22.9127 25.2276
Au 30.3503 23.7996 22.5615
Au 30.1129 24.8724 20.0071
Au 29.786 26.1382 17.2171
Au 30.7047 19.9835 24.0132
Au 30.4698 21.2014 21.4483
Au 30.0283 22.3707 18.5712
Au 29.8627 23.6127 16.1598
Au 30.9139 17.4565 22.8483
Au 30.1449 18.6872 20.2286
Au 29.9516 19.6107 17.6764
Au 29.7854 21.019 15.153
Au 30.6471 14.8444 21.702
Au 30.3564 16.0439 19.1721
Au 29.9213 17.0538 16.4698
Au 29.8622 18.4127 13.8067
Au 30.6107 12.514 20.3822
Au 30.5857 13.5531 17.6113
Au 30.2041 14.4181 15.1349
Au 29.629 15.8672 12.6593
Au 27.656 11.3423 20.3646
Au 27.4759 12.5439 17.7276
Au 27.1922 13.4847 15.0255
Au 26.8401 14.8089 12.4745
Au 24.8601 10.5086 20.3073
Au 24.5645 11.5633 17.5066
Au 24.3862 12.7836 14.8527
Au 24.2241 14.0209 12.3144
Au 22.2001 9.69258 20.1007
Au 21.8828 10.7673 17.3615
Au 21.4557 11.8441 14.9291
Au 21.3279 13.1413 12.0543
Au 19.5538 8.75835 19.8963
Au 18.9949 10.0858 17.4437
Au 18.6381 11.0901 14.705
Au 18.6483 12.4708 11.9289
Au 16.7503 7.95924 19.7416
Au 16.2267 9.03697 17.2797
Au 15.9175 10.4177 14.5557
Au 15.7647 11.5647 12.0225
Au 15.1648 9.92623 21.1363
Au 14.5983 11.2699 18.3528
Au 14.2686 12.5312 15.9151
Au 14.2938 13.8159 13.0341
Au 13.4906 12.0281 22.4479
Au 13.0632 13.3277 19.5122
Au 12.8343 14.5821 16.8153
Au 12.6698 15.8574 14.317
Au 11.7797 14.363 23.4202
Au 11.5771 15.372 20.7026
Au 11.3891 16.7053 18.1242
Au 11.0338 17.8928 15.2976
Au 10.2783 16.4081 24.4217
Au 10.1528 17.5143 21.8241
Au 9.91292 18.7424 19.247
Au 9.52318 19.7704 16.6646
Au 7.89614 21.4008 25.1377
Au 7.55383 22.3778 22.5071
Au 7.61769 23.5449 19.9718
Au 9.56398 23.2037 26.2447
Au 9.24938 24.5076 23.4717
Au 8.97061 25.5046 21.1385
Au 11.5035 25.3379 26.8509
Au 11.0962 26.4988 24.5311
Au 10.6596 27.5039 21.8072
Au 13.1246 27.6524 27.3504
Au 12.8402 28.751 24.9228
Au 12.503 29.8671 22.3946
Au 14.7572 29.6672 27.9162
Au 14.6336 30.9502 25.7321
Au 14.674 32.0285 23.1905
Au 19.2473 30.82 28.2996
Au 19.249 32.1071 26.0386
Au 19.0281 33.4179 23.4
Au 22.0384 30.1923 27.7765
Au 21.9761 31.4763 25.2509
Au 21.4305 32.585 22.5306
Au 24.5032 29.6033 26.9945
Au 24.4294 30.8034 24.4528
Au 24.1151 31.9914 21.9683
Au 27.2421 29.191 26.3813
Au 27.1619 30.1886 23.8366
Au 26.7347 31.0396 21.3296
Au 29.9349 28.3308 25.4803
Au 29.7094 29.2851 23.1079
Au 29.2599 30.3704 20.647
Au 32.3746 24.9427 24.0152
Au 32.2252 25.776 21.4333
Au 31.9294 26.5986 18.9778
Au 32.3407 22.1236 23.2539
Au 32.1907 23.1423 20.4088
Au 31.9318 24.3033 17.8754
Au 32.347 19.5959 21.8762
Au 32.2127 20.5434 19.1439
Au 31.8084 21.5591 16.6696
Au 32.2125 17.1553 20.6438
Au 32.2146 18.0259 18.2234
Au 31.8339 18.9194 15.8356
Au 32.4409 14.5437 19.3681
Au 32.1459 15.4975 16.9305
Au 31.5826 16.6545 14.2953
Au 29.4819 11.1476 18.5672
Au 29.1578 11.7817 15.7738
Au 28.9098 13.1058 13.1766
Au 26.8464 9.91397 18.0926
Au 26.4086 10.8384 15.3849
Au 26.3142 12.0908 12.9483
Au 24.1182 9.13015 18.1462
Au 23.5825 10.1406 15.2629
Au 23.3816 11.4078 12.8141
Au 21.2888 8.17983 17.9534
Au 20.7281 9.23749 15.3802
Au 20.792 10.4565 12.8261
Au 18.4977 7.65365 17.5478
Au 18.2283 8.36888 15.0759
Au 18.0458 9.92042 12.5425
Au 14.3161 8.77437 19.0593
Au 13.7927 9.88822 16.1909
Au 13.5954 11.4141 13.6149
Au 12.6246 10.7855 20.0765
Au 12.0525 11.8256 17.4869
Au 11.8905 13.1264 14.9141
Au 10.936 12.8313 20.9358
Au 10.6237 13.9227 18.4916
Au 10.4707 15.3914 16.0842
Au 9.33367 15.0085 22.0551
Au 9.03262 16.0791 19.5135
Au 8.68968 17.1789 17.1011
Au 7.88419 17.0666 23.4266
Au 7.83325 18.1247 20.8328
Au 7.43792 19.3237 18.2341
