520
 Atoms. Timestep: 50000
Au 21.6906 15.2627 31.8117
Au 21.3212 16.2669 29.3564
Au 21.2253 17.5593 26.8454
Au 20.6911 18.5305 24.169
Au 20.5067 19.7336 21.5263
Au 19.9988 20.9272 18.9574
Au 20.1028 22.2055 16.4256
Au 19.8645 23.4688 13.8454
Au 19.5045 24.5372 11.1912
Au 19.1578 25.6408 8.75735
Au 19.1821 15.797 31.202
Au 18.6937 16.8692 28.5523
Au 18.4592 18.1675 25.7416
Au 18.054 19.2101 23.0825
Au 18.0329 20.407 20.6527
Au 17.441 21.5053 17.9498
Au 17.4015 22.8767 15.3007
Au 17.0263 23.965 12.6309
Au 17.0415 25.1288 10.1502
Au 20.7478 17.8388 31.8574
Au 20.4967 18.8992 29.3559
Au 20.2189 20.163 26.6993
Au 19.8933 21.1896 24.043
Au 19.6575 22.6343 21.5256
Au 19.3569 23.5952 18.7226
Au 19.0784 24.9014 16.2863
Au 18.96 26.0581 13.549
Au 18.8883 27.3409 11.0001
Au 23.384 17.2044 31.1106
Au 23.2579 18.1634 28.6149
Au 22.9426 19.3675 25.7763
Au 22.419 20.596 23.3803
Au 22.2356 21.5763 20.5923
Au 22.1667 22.8729 18.0326
Au 22.0401 24.0939 15.4933
Au 21.5405 25.2782 12.8737
Au 21.3032 26.2777 10.2459
Au 23.3998 14.4121 30.0382
Au 23.2456 15.3854 27.3196
Au 22.7107 16.7722 24.8581
Au 22.6906 17.9821 22.1272
Au 22.3214 19.0114 19.4776
Au 22.0699 20.3522 16.9553
Au 21.8384 21.4886 14.4637
Au 21.5618 22.615 11.7944
Au 21.2751 23.6637 9.3404
Au 20.766 13.6137 29.8494
Au 20.3798 14.7672 27.4534
Au 20.1249 15.8266 24.7098
Au 19.5831 17.0565 21.9011
Au 19.6221 17.9589 19.2128
Au 19.1782 19.41 16.7247
Au 19.0176 20.7653 14.3098
Au 18.7268 21.8855 11.6658
Au 18.6096 23.0324 9.22752
Au 16.6809 16.1814 30.1347
Au 16.1696 17.5572 27.6684
Au 15.8905 18.6715 24.9416
Au 15.4104 19.7953 22.236
Au 15.3469 20.6521 19.5789
Au 15.0338 22.0353 16.9236
Au 14.8093 23.2371 14.2892
Au 14.5153 24.3966 11.606
Au 18.1429 18.3823 30.9523
Au 18.0354 19.5879 28.2653
Au 17.6148 20.8472 25.6606
Au 17.3026 21.8246 23.0963
Au 16.8878 22.895 20.2151
Au 16.6582 24.1977 17.7472
Au 16.5192 25.5159 15.0017
Au 16.3803 26.6224 12.3505
Au 19.8477 20.5161 31.5521
Au 19.7239 21.7356 29.1039
Au 19.3665 22.8402 26.3721
Au 19.0889 24.1693 23.9307
Au 18.783 25.267 21.1792
Au 18.7225 26.2959 18.4511
Au 18.4156 27.529 15.8034
Au 18.1603 28.7477 13.431
Au 22.7456 19.7984 30.8584
Au 22.398 20.9427 28.3625
Au 22.0307 22.2212 25.6431
Au 21.8469 23.2858 23.1272
Au 21.5013 24.2963 20.4182
Au 21.4234 25.7724 17.9182
Au 21.0352 26.8822 15.3118
Au 20.9203 28.0746 12.6082
Au 25.3286 19.0113 30.0329
Au 25.0044 20.1223 27.5878
Au 24.8942 21.3168 24.9869
Au 24.4765 22.3781 22.4624
Au 24.4981 23.6442 20.0312
Au 24.003 24.8923 17.4089
Au 23.7171 25.9517 14.7014
Au 23.4361 27.0694 11.995
Au 25.3093 16.2676 29.1215
Au 25.1049 17.4945 26.5053
Au 24.8843 18.6151 23.9906
Au 24.5026 19.8877 21.3105
Au 24.3343 21.0321 18.8221
Au 24.0577 22.1584 16.0837
Au 23.6709 23.2055 13.4319
Au 23.3616 24.5166 10.9999
Au 25.2275 13.7531 27.8254
Au 25.0204 14.9362 25.3461
Au 24.6267 16.0702 22.6655
Au 24.4747 17.3391 19.9585
Au 24.296 18.4292 17.4469
Au 23.867 19.5459 14.8484
Au 23.7537 20.7192 12.1011
Au 23.4629 22.0813 9.82203
Au 22.4908 12.8683 28.0431
Au 22.0822 14.0039 25.2781
Au 21.889 15.0711 22.534
Au 21.6983 16.256 19.8585
Au 21.5611 17.6177 17.1513
Au 21.0383 18.6579 14.6429
Au 20.845 19.7938 12.2577
Au 20.5468 21.0271 9.7707
Au 19.6998 12.2814 27.7281
Au 19.2823 13.1781 25.2968
Au 18.9441 14.3544 22.56
Au 18.8122 15.4893 19.8057
Au 18.5928 16.5902 17.0294
Au 18.2457 17.886 14.7372
Au 18.1103 19.0134 12.1707
Au 17.7453 20.0252 9.62204
Au 18.0577 14.167 28.9339
Au 17.711 15.1385 26.348
Au 17.6422 16.3915 23.7782
Au 17.1 17.6894 21.0173
Au 17.0482 18.7479 18.4281
Au 16.5293 20.05 15.769
Au 16.6126 21.3141 13.132
Au 16.1186 22.2685 10.5112
Au 14.0112 16.6806 28.9428
Au 13.5782 18.0172 26.4164
Au 13.1417 19.108 23.9889
Au 12.8867 20.1756 21.2366
Au 12.6675 21.422 18.6041
Au 12.43 22.6171 15.9216
Au 12.2644 23.9849 13.4431
Au 15.6059 18.9197 29.765
Au 15.4229 20.3239 27.229
Au 14.9854 21.2754 24.4901
Au 14.5075 22.4454 21.7767
Au 14.3448 23.6072 19.2657
Au 14.1991 24.9942 16.4937
Au 13.9564 26.06 14.0858
Au 17.3662 21.0611 30.6804
Au 17.2201 22.3692 28.4694
Au 16.5858 23.4534 25.3506
Au 16.6286 24.3573 22.602
Au 16.3485 25.8154 20.0332
Au 16.0663 26.9259 17.3848
Au 15.7433 28.28 14.7523
Au 19.1168 23.3814 31.1937
Au 18.8496 24.5033 28.6223
Au 18.3747 25.5759 26.2158
Au 18.2527 27.0162 23.3294
Au 18.0589 28.0808 20.8267
Au 17.8534 29.0887 18.2492
Au 17.636 30.3417 15.6867
Au 21.7002 22.5055 30.8434
Au 21.4145 23.656 28.1541
Au 21.2162 24.9372 25.4409
Au 21.0397 26.0642 22.8101
Au 20.7438 27.125 20.1751
Au 20.5019 28.469 17.5718
Au 20.3025 29.537 14.8646
Au 24.4335 21.7135 29.9612
Au 24.3052 22.9131 27.4356
Au 24.161 24.1019 24.8645
Au 23.7236 25.0945 22.2306
Au 23.4684 26.3086 19.6341
Au 23.2236 27.6198 17.0659
Au 23.018 28.7526 14.2368
Au 27.1112 20.7209 29.1703
Au 26.9172 22.208 26.9228
Au 26.7938 23.4776 24.2484
Au 26.5907 24.4559 21.7424
Au 26.2654 25.4912 19.1137
Au 25.8245 26.8701 16.3343
Au 25.6642 27.7801 13.8088
Au 27.2561 18.0058 27.972
Au 26.9831 19.463 25.6989
Au 26.7251 20.6826 23.0309
Au 26.5478 21.9531 20.4221
Au 26.0549 22.9206 17.9017
Au 25.8989 24.1761 15.1898
Au 25.5317 25.2506 12.6441
Au 27.2206 15.5999 27.0414
Au 26.8785 16.708 24.2473
Au 26.5841 18.0507 21.817
Au 26.4586 19.1396 19.2272
Au 26.1964 20.3569 16.4732
Au 25.8619 21.6578 14.0066
Au 25.5049 22.7107 11.5319
Au 26.9836 13.1163 25.7225
Au 26.7892 14.0874 23.1445
Au 26.4594 15.463 20.6997
Au 26.2979 16.4179 18.1024
Au 26.138 17.6989 15.4737
Au 25.67 18.8874 12.8752
Au 25.3113 19.9128 10.2371
Au 24.1039 12.3678 25.6061
Au 24.0394 13.189 22.906
Au 23.5893 14.4932 20.4829
Au 23.5713 15.5136 17.8552
Au 23.2968 16.8576 15.2455
Au 22.9295 17.9643 12.5451
Au 22.5485 19.0699 10.0758
Au 21.4828 11.3246 25.8269
Au 21.0169 12.2147 23.1223
Au 20.8604 13.4991 20.5721
Au 20.7567 14.8432 17.7859
Au 20.451 16.0549 15.1556
Au 20.1944 17.0391 12.5318
Au 19.843 18.4224 10.0334
Au 18.8552 10.4069 25.5222
Au 18.1936 11.3224 23.1504
Au 18.0704 12.8061 20.3174
Au 17.9188 13.9645 17.5002
Au 17.5589 15.1176 15.1691
Au 17.3393 16.3958 12.6036
Au 17.2544 17.4646 10.1738
Au 17.0919 12.4482 26.9085
Au 16.7787 13.4601 24.2023
Au 16.5218 14.9567 21.5681
Au 16.2943 15.9779 18.7611
Au 15.8413 17.1262 16.1814
Au 15.5602 18.495 13.5223
Au 15.326 19.771 11.0607
Au 15.4163 14.5799 27.9251
Au 15.2592 15.7881 25.3945
Au 14.7086 17.1332 22.8214
Au 14.4886 17.9579 20.108
Au 14.2932 19.4354 17.106
Au 14.1081 20.609 14.51
Au 13.803 21.8147 11.939
Au 11.529 17.39 28.03
Au 10.8233 18.3937 25.5241
Au 10.6449 19.489 22.9749
Au 10.4222 20.636 20.1739
Au 10.0902 21.8965 17.4622
Au 9.97365 23.1549 15.0708
Au 13.1329 19.5578 28.75
Au 12.7049 20.7712 26.1831
Au 12.4019 21.9282 23.5444
Au 12.0665 22.9163 20.8474
Au 11.613 23.9699 18.1951
Au 11.5701 25.3046 15.6672
Au 14.7004 21.6222 29.8
Au 14.4562 22.8168 27.1399
Au 14.2366 23.9938 24.1657
Au 14.098 25.2819 21.7418
Au 13.729 26.3658 18.9516
Au 13.4904 27.6058 16.2519
Au 16.5414 24.0434 30.5969
Au 16.2623 25.0232 27.8576
Au 16.1037 26.2586 24.8451
Au 15.7294 27.5406 22.2612
Au 15.3771 28.598 19.69
Au 15.4573 29.6721 17.0648
Au 18.3445 26.267 30.6905
Au 18.2002 27.3761 28.3257
Au 17.8282 28.374 25.8685
Au 17.3978 29.7503 23.25
Au 17.2608 30.757 20.7555
Au 17.0637 31.7775 18.1125
Au 20.9709 25.482 30.2723
Au 20.6787 26.4151 27.6677
Au 20.4993 27.6366 25.1885
Au 20.0703 28.9086 22.5635
Au 20.0186 29.9291 19.934
Au 19.7508 31.1145 17.286
Au 23.782 24.346 29.7815
Au 23.39 25.4982 27.0953
Au 23.0617 26.756 24.4185
Au 22.8243 27.9399 21.9294
Au 22.7598 29.0912 19.3144
Au 22.4413 30.2951 16.5394
Au 26.4192 23.5431 29.2612
Au 26.2809 24.9864 26.6322
Au 25.9152 26.2422 23.9398
Au 25.663 27.1929 21.3326
Au 25.4459 28.2325 18.7835
Au 25.0585 29.5276 16.0248
Au 29.0246 22.857 28.3929
Au 28.869 24.0736 25.9273
Au 28.7311 25.4959 23.4861
Au 28.3435 26.3679 20.7756
Au 28.0914 27.5681 18.0037
Au 27.7708 28.6013 15.5281
Au 29.0138 20.1525 27.3899
Au 28.7041 21.3521 24.8309
Au 28.7607 22.7484 22.2983
Au 28.5725 23.7832 19.5716
Au 28.069 24.8996 16.8923
Au 27.8416 26.074 14.5126
Au 29.2165 17.5709 26.079
Au 28.816 18.7337 23.6703
Au 28.4511 19.9022 21.0064
Au 28.0763 21.072 18.1512
Au 27.9208 22.4041 15.5716
Au 27.8064 23.4885 12.9493
Au 28.9964 14.9068 24.8558
Au 29.0041 16.0856 22.3176
Au 28.5669 17.1583 19.6999
Au 28.3013 18.3024 17.0103
Au 27.8072 19.559 14.4994
Au 27.5397 20.852 11.8738
Au 28.7277 12.4355 23.5879
Au 28.7231 13.5089 21.0148
Au 28.5686 14.682 18.4258
Au 28.1522 15.6474 15.7459
Au 27.851 17.1824 13.3185
Au 27.4121 18.2117 10.9535
Au 26.1293 11.528 23.8841
Au 25.7174 12.7189 20.9246
Au 25.6135 13.7438 18.3662
Au 25.435 14.9804 15.8191
Au 25.0439 16.1911 13.2631
Au 24.6958 17.22 10.654
Au 23.1297 10.5376 23.784
Au 22.7292 11.4103 21.1235
Au 22.4653 12.8597 18.2443
Au 22.5024 14.0706 15.5736
Au 22.2803 15.2116 12.979
Au 21.9305 16.4504 10.4707
Au 20.5045 9.53932 23.6152
Au 19.9765 10.9302 20.9777
Au 19.8812 11.9529 18.2861
Au 19.7066 13.1128 15.6116
Au 19.5477 14.4422 13.0617
Au 19.2072 15.5055 10.4291
Au 17.5542 8.80176 23.1664
Au 17.4553 9.95585 20.6819
Au 17.2915 11.1245 18.0981
Au 16.8766 12.0765 15.7194
Au 16.6207 13.2274 13.2041
Au 16.6885 14.613 10.8686
Au 16.02 10.8857 24.8354
Au 15.8206 12.149 21.8918
Au 15.5091 13.1864 19.0034
Au 15.2562 14.0954 16.5373
Au 14.9588 15.4669 13.9545
Au 14.8009 16.9108 11.5814
Au 14.6075 13.0725 25.7067
Au 14.1532 14.2108 23.3151
Au 13.9528 15.2823 20.4663
Au 13.8057 16.5799 17.8817
Au 13.3135 17.7466 14.8832
Au 13.0313 19.081 12.3777
Au 12.8574 15.3 26.8952
Au 12.5595 16.3938 24.2995
Au 12.1351 17.5456 21.6468
Au 12.0855 18.6596 18.9535
Au 11.7472 19.8609 16.277
Au 11.5813 21.1465 13.6922
Au 10.5729 19.8991 27.815
Au 10.192 21.2254 25.2473
Au 9.81859 22.2685 22.6578
Au 9.49393 23.4054 19.8513
Au 9.21022 24.6287 17.3618
Au 12.4305 22.2959 28.5562
Au 11.9869 23.4058 25.8376
Au 11.768 24.6892 23.2473
Au 11.714 25.7467 20.4741
Au 11.1271 26.8661 17.9493
Au 14.1746 24.4661 29.3336
Au 13.7784 25.575 26.3829
Au 13.2489 26.7495 23.9293
Au 13.1175 27.8959 21.3058
Au 12.8813 29.0572 18.3877
Au 15.8182 26.618 30.06
Au 15.6832 27.7121 27.403
Au 15.2055 28.7754 24.8524
Au 14.8235 30.13 22.2162
Au 14.7122 31.0271 19.2771
Au 20.5505 28.187 29.7691
Au 19.9435 29.4221 27.3749
Au 19.5003 30.5949 24.8752
Au 19.3821 31.7468 22.4174
Au 19.2084 32.2425 19.5728
Au 23.0777 27.125 29.5185
Au 22.5975 28.2228 26.8764
Au 22.3585 29.349 24.2582
Au 22.1288 30.5009 21.5887
Au 22.0657 31.8153 18.8992
Au 25.6789 26.3643 28.9626
Au 25.321 27.6755 26.3369
Au 25.1257 28.857 23.7441
Au 24.9473 29.9485 21.0467
Au 24.6897 30.9852 18.3754
Au 28.1948 25.5378 28.2888
Au 27.9504 26.8031 25.7028
Au 27.8906 28.2009 23.0898
Au 27.5148 28.9058 20.396
Au 27.0878 30.1663 17.7025
Au 30.7894 22.0957 26.4399
Au 30.8005 23.4916 23.9629
Au 30.5705 24.5833 21.415
Au 30.184 25.6914 18.5402
Au 29.8036 26.7555 15.8638
Au 30.7759 19.579 25.2516
Au 30.587 20.7898 22.5869
Au 30.3444 21.7538 20.1024
Au 29.9098 22.9188 17.3979
Au 29.881 24.4137 14.7147
Au 30.7742 16.7644 24.178
Au 30.4923 18.1499 21.4054
Au 30.2188 19.2078 18.6034
Au 30.0169 20.5889 16.2951
Au 29.7689 21.5671 13.7075
Au 30.6635 14.1803 22.8906
Au 30.6837 15.1382 20.1524
Au 30.3051 16.5938 17.5827
Au 30.1386 17.6915 14.7908
Au 29.6276 19.1528 12.4913
Au 27.6533 10.9656 21.7836
Au 27.538 12.0086 19.1421
Au 27.4798 12.9901 16.2392
Au 27.0376 14.2801 13.6847
Au 26.6581 15.5575 11.2983
Au 25.1051 9.93393 21.9811
Au 24.7016 11.123 19.0646
Au 24.5691 12.3657 16.1832
Au 24.304 13.4271 13.4864
Au 24.0631 14.5886 10.9564
Au 22.1958 9.04431 21.4225
Au 22.0198 10.2515 18.7112
Au 21.8616 11.3566 16.065
Au 21.7069 12.418 13.4197
Au 21.3514 13.6413 10.9223
Au 19.6028 8.18863 21.185
Au 19.3459 9.35879 18.6819
Au 19.218 10.3198 16.1435
Au 18.9731 11.4543 13.5398
Au 18.6144 12.8173 11.2871
Au 15.1264 9.51177 22.3117
Au 14.9074 10.4019 19.6891
Au 14.5574 11.3982 16.95
Au 14.2801 12.5868 14.2417
Au 13.9859 14.1924 11.8293
Au 13.6023 11.3805 23.6014
Au 13.3873 12.5921 20.9778
Au 13.0022 13.6993 18.3703
Au 12.7513 15.1025 15.7015
Au 12.5789 16.3569 12.834
Au 11.9266 13.5315 24.7529
Au 11.7833 14.6783 21.9598
Au 11.3619 15.8647 19.3341
Au 11.1141 17.2037 16.8064
Au 10.6638 18.2583 13.9004
Au 10.4874 15.6767 25.7822
Au 9.96081 16.8846 23.3646
Au 9.66399 18.0195 20.4309
Au 9.35577 19.1394 17.9059
Au 9.50159 20.3371 15.3837
Au 10.001 22.6832 27.4395
Au 9.46185 24.0023 24.987
Au 9.44648 24.8435 22.1216
Au 9.16058 26.1677 19.8252
Au 11.7357 24.8145 28.0722
Au 11.1355 26.0114 25.6854
Au 10.7054 27.0924 22.6387
Au 10.6308 28.3293 20.3818
Au 13.3189 26.9755 28.514
Au 12.8344 28.107 26.0274
Au 12.6139 29.2724 23.4433
Au 12.5429 30.393 20.7434
Au 22.2429 29.9247 28.8932
Au 21.8503 31.0785 26.3637
Au 21.5679 32.0493 23.8097
Au 21.508 33.0654 21.1796
Au 24.6386 29.115 28.507
Au 24.2822 30.3446 26.0336
Au 24.0435 31.3938 23.4774
Au 23.8171 32.4159 20.8248
Au 27.2626 28.2461 28.0169
Au 27.1179 29.3123 25.4766
Au 26.9648 30.4537 22.9164
Au 26.7588 31.5979 20.26
Au 32.3438 21.6528 24.4957
Au 32.4997 22.4414 21.6528
Au 32.0067 23.7062 19.4415
Au 31.8208 24.8286 16.5564
Au 32.5289 19.0341 23.0572
Au 32.4861 20.095 20.5116
Au 32.1418 21.2881 17.8779
Au 31.7579 22.3554 15.2276
Au 32.3845 16.3797 22.0763
Au 32.2447 17.6346 19.4387
Au 31.8615 18.5661 16.6321
Au 31.7789 19.7936 14.2017
Au 26.5936 9.50467 19.7619
Au 26.4431 10.7571 17.0029
Au 25.9564 11.5762 14.253
Au 26.0982 12.8989 11.5464
Au 24.0585 8.57921 19.5106
Au 23.8679 9.68723 16.7791
Au 23.5656 10.424 14.0799
Au 23.5566 11.9503 11.5502
Au 21.6107 7.69066 19.2845
Au 21.3011 8.75434 16.7671
Au 21.0341 9.68933 14.0647
Au 20.7401 11.0782 11.4915
Au 12.6367 10.1533 21.1883
Au 12.3186 11.167 18.7891
Au 12.1599 12.2987 16.129
Au 12.0295 13.5601 13.5343
Au 11.2249 12.0637 22.4361
Au 10.8182 13.1089 19.9177
Au 10.478 14.4093 17.0572
Au 10.3087 15.5359 14.4836
Au 9.90252 14.3055 23.5839
Au 9.365 15.3838 20.9681
Au 9.00853 16.3933 18.2717
Au 8.86599 17.7108 15.701
