531
 Atoms. Timestep: 50000
Au 21.9907 14.476 33.3452
Au 21.5911 15.5636 30.9761
Au 21.1744 16.7909 28.2427
Au 21.0104 18.1088 25.5568
Au 20.7402 19.1651 23.0322
Au 20.4035 20.4538 20.4734
Au 19.9804 21.5268 17.7074
Au 19.9483 22.8421 14.9975
Au 19.453 24.0134 12.524
Au 19.311 25.1322 9.85703
Au 18.938 26.5737 7.58091
Au 19.4398 14.7931 32.4176
Au 18.9418 16.2057 29.8013
Au 18.6214 17.373 27.3915
Au 18.2559 18.4953 24.8694
Au 18.0635 19.8257 22.1914
Au 17.8594 20.9675 19.2519
Au 17.4424 22.1901 16.4953
Au 17.334 23.5052 14.0971
Au 16.9928 24.6438 11.3062
Au 16.8014 25.7111 8.80897
Au 21.1808 17.3873 33.286
Au 20.675 18.419 30.6567
Au 20.292 19.5162 28.0643
Au 20.2226 20.7876 25.5395
Au 19.9107 21.7242 22.8879
Au 19.4315 23.0203 20.2233
Au 19.2143 24.2581 17.3656
Au 18.9395 25.5836 14.6905
Au 18.6202 26.7564 12.2847
Au 18.4944 27.7854 9.78641
Au 23.6801 16.5271 32.6488
Au 23.2885 17.6027 30.1835
Au 23.0633 18.7745 27.4708
Au 22.9073 19.9471 24.8724
Au 22.6168 21.16 22.2124
Au 22.2205 22.3096 19.6289
Au 22.0427 23.3757 16.8918
Au 21.9095 24.6564 14.2365
Au 21.5004 25.7989 11.5927
Au 21.1392 26.7433 9.00632
Au 23.6525 13.8542 31.3815
Au 23.2103 14.8375 28.8477
Au 23.0395 16.0824 26.3215
Au 22.7223 17.3515 23.6403
Au 22.5579 18.6439 20.973
Au 22.0833 19.6363 18.3678
Au 21.8383 20.8236 15.6935
Au 21.6273 22.1633 13.0795
Au 21.2916 23.206 10.3282
Au 20.9395 24.3926 7.72983
Au 20.9278 12.8223 31.2556
Au 20.5693 13.9553 28.724
Au 20.359 15.0966 25.9547
Au 19.8997 16.5025 23.4249
Au 19.882 17.6775 20.8867
Au 19.4286 18.8639 18.2882
Au 19.0548 20.0541 15.5802
Au 18.7671 21.3503 12.9993
Au 18.5805 22.2745 10.2907
Au 18.1954 23.673 7.81233
Au 16.8859 15.7423 31.3148
Au 16.1826 16.6973 28.9082
Au 16.0736 17.863 26.1748
Au 15.5756 19.1285 23.632
Au 15.4468 20.2942 20.8623
Au 15.234 21.6496 18.3473
Au 14.7237 22.8423 15.5222
Au 14.6979 24.0023 12.9658
Au 14.2838 25.0513 10.4588
Au 18.6764 17.7305 32.2349
Au 18.0221 18.9311 29.8259
Au 17.8432 20.0043 27.0745
Au 17.6963 21.1631 24.3117
Au 17.2065 22.5102 21.5728
Au 17.0269 23.6426 18.8817
Au 16.6444 25.0843 16.3163
Au 16.2124 26.2576 13.6224
Au 16.0579 27.0787 11.1231
Au 20.2275 20.0716 32.882
Au 19.9148 21.1577 30.475
Au 19.5797 22.3514 27.6985
Au 19.299 23.393 25.1203
Au 18.9959 24.5879 22.7122
Au 18.8519 25.8888 19.7684
Au 18.43 27.0839 17.1039
Au 18.0699 28.3682 14.4684
Au 17.9769 29.3509 11.7863
Au 22.8776 19.2396 32.4108
Au 22.5582 20.4692 29.7652
Au 22.4157 21.4837 27.143
Au 22.0766 22.5676 24.5668
Au 21.7387 23.8384 21.9207
Au 21.5202 24.9322 19.1514
Au 21.0995 26.1123 16.5249
Au 20.7861 27.4891 13.8277
Au 20.6016 28.5588 11.2435
Au 25.513 18.5835 31.6579
Au 25.2089 19.7485 29.0854
Au 25.0169 20.8206 26.3755
Au 24.7124 21.8749 23.8173
Au 24.5159 23.0794 21.2231
Au 24.118 24.3408 18.5893
Au 23.791 25.4584 15.9164
Au 23.5405 26.6268 13.2549
Au 23.161 27.7923 10.6755
Au 25.5273 15.8372 30.5377
Au 25.1525 16.7878 28.096
Au 24.8685 18.068 25.3062
Au 24.6316 19.3151 22.7728
Au 24.3546 20.4782 19.9221
Au 24.0813 21.5241 17.5186
Au 23.9412 22.7303 14.7237
Au 23.5257 23.8508 12.0434
Au 23.2966 24.873 9.38982
Au 25.4309 13.2247 29.3182
Au 25.3109 14.3364 26.7589
Au 24.9334 15.4815 24.1949
Au 24.5286 16.8168 21.5936
Au 24.2939 17.8583 18.8808
Au 24.006 18.8109 16.2609
Au 23.7263 20.1385 13.7016
Au 23.4229 21.2892 11.0039
Au 23.1296 22.3528 8.49513
Au 22.5635 12.047 29.2589
Au 22.3646 13.2606 26.6837
Au 22.2417 14.5806 24.1027
Au 21.8675 15.8381 21.4652
Au 21.5861 16.9481 18.7432
Au 21.0443 18.0071 16.1143
Au 20.9954 19.2954 13.5732
Au 20.7756 20.4276 10.9336
Au 20.3133 21.6019 8.30813
Au 19.8166 11.3735 29.1592
Au 19.5503 12.5521 26.5518
Au 19.4267 13.6915 23.8445
Au 19.0803 14.9547 21.0597
Au 18.9248 15.9851 18.5105
Au 18.2835 17.1732 15.9341
Au 18.3714 18.5931 13.4288
Au 17.6955 19.7645 10.687
Au 17.6252 20.91 8.0753
Au 18.2728 13.5407 30.2498
Au 17.8535 14.5814 27.6064
Au 17.6377 15.6358 25.0608
Au 17.4356 17.1537 22.3005
Au 17.2114 18.0537 19.8802
Au 16.9312 19.4895 17.0775
Au 16.4871 20.776 14.4818
Au 16.1138 22.0707 11.7591
Au 16.091 23.0986 9.14843
Au 13.9538 15.8726 29.9911
Au 13.6286 17.2547 27.6375
Au 13.3261 18.402 24.9617
Au 13.2613 19.5683 22.2132
Au 12.7641 20.948 19.6254
Au 12.4458 22.1005 17.0281
Au 12.2755 23.3884 14.5199
Au 12.0944 24.4532 11.8483
Au 15.9157 18.356 31.277
Au 15.4559 19.4684 28.715
Au 15.3309 20.5284 26.056
Au 15.1904 21.8386 23.2843
Au 14.5595 23.0171 20.6118
Au 14.2243 24.2486 18.0002
Au 13.9468 25.6686 15.3448
Au 13.6628 26.6977 12.541
Au 17.7281 20.4392 32.1158
Au 17.4047 21.4741 29.4177
Au 16.9611 22.87 26.7959
Au 16.7781 23.8683 23.9029
Au 16.5066 25.1045 21.341
Au 16.1777 26.2859 18.7559
Au 15.9508 27.6293 16.0283
Au 15.6447 29.0026 13.1804
Au 19.2638 22.9278 32.4576
Au 18.9246 23.8828 29.8321
Au 18.6096 25.1143 27.2488
Au 18.3865 26.1886 24.7665
Au 18.2223 27.3576 22.1124
Au 17.8416 28.5119 19.5407
Au 17.7223 29.8654 16.9641
Au 17.485 31.0047 14.2978
Au 22.0961 21.9829 32.016
Au 21.6233 23.2154 29.5549
Au 21.5721 24.0294 26.7511
Au 21.3615 25.3957 24.3871
Au 20.9987 26.4984 21.5517
Au 20.5014 27.8318 18.9124
Au 20.3136 28.9847 16.2877
Au 20.102 30.014 13.7027
Au 24.8703 21.1301 31.5563
Au 24.4261 22.3227 28.8386
Au 24.2646 23.6126 26.1543
Au 24.1025 24.6263 23.5487
Au 23.5663 25.6355 20.947
Au 23.1383 26.9024 18.1352
Au 23.0993 28.1766 15.5662
Au 22.715 29.2234 12.8632
Au 27.339 20.5254 30.6266
Au 27.0359 21.6736 28.2933
Au 26.9963 22.7239 25.5977
Au 26.7716 23.759 22.9965
Au 26.6342 25.0512 20.3413
Au 26.2925 26.1178 17.7515
Au 25.8232 27.3259 14.9435
Au 25.3771 28.6462 12.3815
Au 27.3317 17.834 29.3913
Au 27.1745 19.0385 27.0575
Au 26.7711 20.0699 24.385
Au 26.5618 21.2478 21.8298
Au 26.3533 22.4107 19.1546
Au 25.8693 23.4958 16.5799
Au 25.5583 24.8501 13.7869
Au 25.0964 25.918 11.1962
Au 27.3975 15.1007 28.3749
Au 27.1107 16.34 25.9298
Au 26.6869 17.5634 23.2817
Au 26.4773 18.6647 20.6259
Au 26.3132 19.7111 18.0031
Au 25.8328 20.9252 15.6155
Au 25.6855 22.1294 12.4396
Au 25.4099 23.3255 9.74355
Au 27.3682 12.5525 27.2898
Au 26.9366 13.4848 24.7585
Au 26.6268 14.8128 22.2269
Au 26.2914 15.8727 19.4949
Au 26.0743 17.0216 16.827
Au 25.6749 18.1414 14.2169
Au 25.5083 19.3546 11.5922
Au 25.4389 20.4955 9.00629
Au 24.5827 11.5149 27.2348
Au 24.3134 12.6954 24.8376
Au 23.8857 13.8977 22.018
Au 23.4997 15.0282 19.284
Au 23.2782 16.1279 16.6515
Au 22.8663 17.3476 14.1212
Au 22.6084 18.4214 11.3413
Au 22.5978 19.7418 8.74447
Au 21.7354 10.5033 27.0758
Au 21.3934 11.7992 24.5622
Au 21.1749 13.1002 21.7505
Au 20.7704 14.1616 19.1084
Au 20.3599 15.3765 16.4338
Au 20.1869 16.4485 13.6796
Au 19.7181 17.6447 11.1457
Au 19.596 19.027 8.75541
Au 19.0656 9.85834 26.8729
Au 18.7589 11.1273 24.1939
Au 18.3523 12.1993 21.6489
Au 18.1136 13.2616 18.9147
Au 17.5649 14.3482 16.4168
Au 17.5611 15.5901 13.7737
Au 17.2015 16.8719 11.1654
Au 16.8183 18.1152 8.75687
Au 17.3242 11.7902 28.1007
Au 16.9016 13.0224 25.4482
Au 16.7667 14.4297 22.6542
Au 16.4381 15.4181 20.0258
Au 16.2781 16.8003 17.6819
Au 15.8877 17.917 14.8135
Au 15.5275 18.9924 12.2854
Au 15.1312 20.4578 9.40131
Au 15.6135 13.867 29.1194
Au 15.3752 15.0927 26.6171
Au 15.1764 16.4558 23.8654
Au 14.887 17.4898 21.2267
Au 14.6585 18.8282 18.7711
Au 14.4139 20.1809 16.1697
Au 13.8405 21.1223 13.25
Au 13.726 22.4445 10.573
Au 11.4422 16.7176 28.9192
Au 10.9581 17.9148 26.4866
Au 10.5919 19.2504 23.8283
Au 10.5879 20.3003 21.133
Au 10.0553 21.293 18.7672
Au 9.84188 22.5348 16.2014
Au 9.77435 23.6041 13.4658
Au 13.2754 18.596 30.0009
Au 13.2118 19.9302 27.4447
Au 12.7457 21.0453 24.7773
Au 12.512 22.2722 22.2799
Au 12.0705 23.5522 19.4892
Au 11.7118 24.7277 16.8083
Au 11.5509 25.9181 14.0641
Au 15.1796 21.0444 31.0583
Au 14.753 22.2285 28.3487
Au 14.2812 23.5222 25.6832
Au 14.1075 24.5475 23.1647
Au 13.919 25.7817 20.392
Au 13.632 27.02 17.8297
Au 13.4591 28.277 14.7203
Au 16.7766 23.1452 31.4803
Au 16.3669 24.4676 28.9033
Au 15.9887 25.6579 26.1926
Au 15.776 26.6067 23.5406
Au 15.6571 27.912 20.8989
Au 15.3554 29.2371 18.3052
Au 15.2281 30.3006 15.6702
Au 18.3758 25.4812 31.8673
Au 18.0378 26.7227 29.4343
Au 17.665 28.0243 26.8768
Au 17.5367 28.8416 24.2674
Au 17.2509 30.0021 21.8623
Au 17.0697 31.307 19.2244
Au 17.009 32.4759 16.7827
Au 21.0859 24.868 31.6611
Au 20.8375 25.7321 28.903
Au 20.4673 27.0825 26.4399
Au 20.4095 28.0971 23.8076
Au 20.1044 29.2328 21.3421
Au 19.9423 30.4151 18.5914
Au 19.5437 31.5896 15.9033
Au 23.8399 23.9151 31.0715
Au 23.6695 24.9965 28.5886
Au 23.2255 26.2335 25.9597
Au 23.0145 27.2183 23.1556
Au 22.7514 28.5348 20.6468
Au 22.6178 29.6644 17.986
Au 22.0938 30.8543 15.3849
Au 26.5142 23.1714 30.6609
Au 26.2514 24.4103 27.9735
Au 25.9363 25.5462 25.4079
Au 25.8131 26.5285 22.6073
Au 25.5327 27.6143 19.893
Au 25.1082 28.7664 17.3698
Au 24.8106 30.0613 14.5571
Au 29.2176 22.4907 29.6215
Au 28.987 23.6379 27.3128
Au 28.6858 24.7192 24.7146
Au 28.7223 25.9143 22.1028
Au 28.223 26.998 19.4307
Au 27.993 28.0184 16.7486
Au 27.3902 29.3467 14.3033
Au 29.4458 19.9371 28.5564
Au 29.0093 20.9589 26.0159
Au 28.9264 22.0129 23.3553
Au 28.7515 23.2603 20.8926
Au 28.2459 24.245 18.3382
Au 27.8706 25.4028 15.6906
Au 27.5725 26.7191 12.7073
Au 29.4193 17.0567 27.4524
Au 28.9912 18.2452 24.7938
Au 28.7728 19.2772 22.2291
Au 28.5181 20.5161 19.7594
Au 28.2347 21.7323 17.1623
Au 27.5329 23.0086 14.3986
Au 27.2009 24.1555 11.7574
Au 29.1299 14.4258 26.4212
Au 28.8356 15.5416 23.8691
Au 28.4508 16.5616 21.2455
Au 28.3804 17.6423 18.7668
Au 27.9387 18.9963 15.9164
Au 27.4546 20.1813 13.2423
Au 27.3762 21.4183 10.5689
Au 29.0583 11.6213 25.0252
Au 28.53 12.8753 22.5593
Au 28.1382 13.9658 19.928
Au 28.016 15.0145 17.2368
Au 27.9602 16.1762 14.8509
Au 27.8478 17.4572 12.4939
Au 27.6833 18.8775 10.0652
Au 26.3154 10.82 25.1067
Au 25.9229 12.0047 22.5403
Au 25.4388 13.0901 19.9292
Au 25.3544 14.3136 17.1895
Au 25.2012 15.362 14.6146
Au 24.7302 16.7348 12.065
Au 24.675 17.9301 9.31198
Au 23.4622 10.0695 25.0118
Au 23.1785 11.1237 22.4102
Au 22.7856 12.2894 19.6205
Au 22.551 13.3757 16.8109
Au 22.4303 14.6398 14.3548
Au 22.0605 15.7114 11.6141
Au 21.7668 17.1152 9.17393
Au 20.7215 9.06428 24.8944
Au 20.302 10.3885 22.1266
Au 19.9317 11.5327 19.5863
Au 19.7358 12.5645 16.8067
Au 19.5922 13.7457 14.274
Au 19.3449 14.8719 11.6431
Au 19.0869 16.0637 8.95147
Au 18.1402 8.54512 24.5227
Au 17.4695 9.46588 22.0217
Au 17.195 10.4177 19.2959
Au 16.888 11.5959 16.7221
Au 16.5809 12.8259 14.1352
Au 16.6764 14.0632 11.6165
Au 16.5286 15.1393 9.25254
Au 16.5242 10.3611 25.8124
Au 16.1361 11.7709 23.2837
Au 15.6813 12.7898 20.5648
Au 15.481 13.9612 18.0167
Au 15.2448 15.0984 15.1957
Au 14.922 16.2992 12.7245
Au 14.6551 17.5243 10.0438
Au 14.6911 12.289 27.028
Au 14.4701 13.6412 24.2088
Au 14.0173 14.7508 21.7229
Au 13.7651 15.9971 19.1036
Au 13.7863 17.2806 16.5196
Au 13.2238 18.6183 13.8003
Au 12.7949 19.6164 10.8892
Au 13.0091 14.3685 28.0363
Au 12.6736 15.8234 25.3116
Au 12.2406 16.878 22.8043
Au 12.2461 18.1766 20.0768
Au 12.0199 19.2654 17.5491
Au 11.6238 20.6558 14.8599
Au 11.2834 21.6614 12.1466
Au 10.9662 19.3978 28.686
Au 10.7092 20.7503 26.2762
Au 10.2302 21.7409 23.7167
Au 9.99797 22.9798 21.141
Au 9.57709 24.0327 18.4779
Au 9.42426 25.183 15.5722
Au 12.7577 21.2543 29.6998
Au 12.2382 22.7227 27.4134
Au 11.7339 23.9407 24.6424
Au 11.6262 25.0503 21.9971
Au 11.4491 26.3935 19.3153
Au 11.5204 27.3802 16.3633
Au 14.2665 23.478 30.6086
Au 13.7317 24.8681 28.1037
Au 13.3055 25.9462 25.4785
Au 13.1989 27.3008 22.6745
Au 13.1665 28.6545 19.7775
Au 13.0754 29.465 17.098
Au 15.8792 25.6186 31.1649
Au 15.4731 26.9857 28.4896
Au 15.2196 28.147 25.7196
Au 14.9284 29.2091 23.2788
Au 14.7984 30.603 20.7381
Au 14.831 31.7493 18.1391
Au 20.2583 27.349 30.8184
Au 19.9763 28.6316 28.3916
Au 19.6986 29.6868 25.9685
Au 19.7526 30.6618 23.5735
Au 19.4314 31.9222 20.8113
Au 19.045 32.8516 18.4182
Au 22.9198 26.6104 30.5765
Au 22.6729 27.7056 28.1816
Au 22.5189 28.9645 25.3843
Au 22.2439 29.9942 22.9705
Au 22.0062 31.0296 20.3507
Au 21.7069 32.2112 17.7782
Au 25.6909 25.8117 30.3387
Au 25.4128 27.0209 27.6588
Au 25.2052 28.0878 24.8019
Au 24.8617 29.1657 22.345
Au 24.6696 30.4153 19.8399
Au 24.3659 31.4057 17.0209
Au 28.1997 25.1376 29.4324
Au 28.0672 26.3683 26.9291
Au 27.6925 27.3508 24.3155
Au 27.4005 28.3736 21.569
Au 27.1868 29.4607 18.7999
Au 26.782 30.6909 16.5362
Au 31.0149 21.7742 27.7477
Au 30.6295 23.0173 25.1627
Au 30.6592 23.967 22.5206
Au 30.3721 25.0116 19.87
Au 29.8708 26.1598 17.3003
Au 29.2534 27.4567 14.517
Au 30.9638 19.161 26.377
Au 30.7624 20.2652 24.0102
Au 30.6881 21.3107 21.3098
Au 30.3174 22.3922 18.6326
Au 29.8442 23.4783 15.907
Au 29.2468 24.7555 13.4586
Au 31.0168 16.2966 25.3073
Au 30.7248 17.3577 22.5706
Au 30.5939 18.7352 20.1579
Au 30.0798 19.7505 17.7048
Au 29.593 20.9122 14.9749
Au 29.3439 22.1718 12.5391
Au 30.6499 13.6885 24.2636
Au 30.4402 14.6505 21.7406
Au 30.0153 15.7693 19.1079
Au 29.7158 17.0772 16.6691
Au 29.8201 18.3747 14.106
Au 29.5863 19.8161 11.664
Au 27.904 10.2958 22.9708
Au 27.573 11.3601 20.2224
Au 27.1317 12.5754 17.7335
Au 26.8565 13.4733 14.9668
Au 26.8241 15.0565 12.543
Au 26.3707 16.4071 10.1304
Au 25.2244 9.47833 22.9444
Au 24.9209 10.4552 20.3187
Au 24.5853 11.657 17.75
Au 24.3776 12.6113 14.9207
Au 24.285 13.9499 12.5537
Au 24.0667 15.2598 9.99525
Au 22.6466 8.59674 22.7068
Au 22.0962 9.62368 20.203
Au 21.8695 10.6739 17.516
Au 21.4713 11.7355 14.9235
Au 21.6088 13.0891 12.4159
Au 21.1684 14.4862 9.75066
Au 20.2389 7.69953 22.4706
Au 19.3839 8.86477 20.1686
Au 19.1624 10.1831 17.454
Au 18.73 11.0861 14.8539
Au 18.5079 12.2477 12.3754
Au 18.6254 13.2193 9.87284
Au 15.1098 9.22979 23.569
Au 15.0476 10.3481 21.011
Au 14.6143 11.3773 18.3397
Au 14.3512 12.5782 15.8218
Au 14.0562 13.7801 13.2563
Au 14.1825 14.874 10.5828
Au 13.8598 11.0096 24.7576
Au 13.3945 12.0211 22.0525
Au 12.9566 13.1541 19.6773
Au 13.0748 14.5053 16.9565
Au 12.6852 15.8201 14.3244
Au 12.6165 17.1393 11.6267
Au 12.2129 13.1707 25.7694
Au 11.8155 14.1577 23.2861
Au 11.6677 15.2919 20.5718
Au 11.2361 16.5073 17.9575
Au 11.3038 17.7168 15.4407
Au 10.9027 18.9873 12.6791
Au 10.6042 15.2626 26.6116
Au 10.086 16.4198 24.3004
Au 10.1149 17.4413 21.6866
Au 9.62727 18.5612 19.0035
Au 9.56948 19.8383 16.6153
Au 9.32061 20.9748 13.891
