55
 Atoms. Timestep: 50000
Au 20.8099 24.3793 20.0187
Au 25.0077 23.3227 21.3913
Au 24.2251 21.5345 17.5081
Au 22.7739 22.492 20.2068
Au 22.8837 17.5535 19.691
Au 18.2247 22.4119 24.3357
Au 18.2639 15.9021 21.7069
Au 22.635 23.6448 17.8974
Au 17.1084 23.3154 17.3551
Au 21.5583 18.7009 23.7619
Au 16.6882 18.509 18.1772
Au 24.6543 19.0163 18.4806
Au 18.6863 21.2094 17.0499
Au 19.6505 19.0733 18.457
Au 19.6824 20.3094 24.9135
Au 16.6545 22.5496 22.0608
Au 18.5381 20.6054 22.0622
Au 25.4781 18.4208 21.2518
Au 21.9935 24.1343 22.3151
Au 20.0777 21.7314 19.6641
Au 19.0705 18.2549 23.4134
Au 15.3898 17.8179 20.4767
Au 23.4938 25.1076 20.2284
Au 17.0009 16.062 19.5303
Au 20.8546 18.9307 21.228
Au 17.3706 20.8508 19.56
Au 23.0455 19.3459 16.3243
Au 19.9971 16.5107 19.5784
Au 18.6195 16.727 17.3738
Au 22.3464 20.1525 18.9733
Au 22.3918 20.8394 25.1044
Au 20.8539 16.4781 22.165
Au 19.7011 23.5532 17.6337
Au 18.0806 18.2319 20.626
Au 15.9902 20.9099 17.1085
Au 21.422 21.3793 16.9945
Au 14.7757 20.2033 19.2689
Au 21.2129 21.4577 22.6259
Au 23.4255 17.1394 22.2288
Au 24.3677 19.1641 23.7287
Au 17.2093 20.0015 24.2328
Au 20.8644 22.8845 24.6297
Au 23.4114 19.7971 21.3644
Au 17.9549 18.7695 16.0095
Au 19.3169 23.3767 22.1003
Au 15.8082 20.1528 21.774
Au 25.4543 21.0736 19.7977
Au 23.7259 22.2904 23.4219
Au 16.5171 17.8006 22.6125
Au 20.4437 19.1672 15.8002
Au 21.4791 17.3185 17.3249
Au 15.4556 22.765 19.2188
Au 18.0707 23.7019 19.8514
Au 25.7409 20.9986 22.4756
Au 25.2684 23.6952 18.6351
