55
 Atoms. Timestep: 50000
Au 19.726 17.565 24.5974
Au 22.2777 18.0524 23.507
Au 19.1077 20.9405 21.0734
Au 19.6577 21.4932 18.2334
Au 19.7093 22.3002 15.7002
Au 19.0252 19.8523 25.7049
Au 18.8291 18.1852 21.6469
Au 17.0047 21.5531 19.304
Au 17.5659 22.8449 16.8841
Au 21.5642 19.3644 25.8595
Au 20.3321 19.9925 23.3958
Au 20.1676 23.3021 20.1985
Au 19.8406 24.2341 17.5185
Au 23.3044 20.3339 24.4796
Au 22.1115 21.4671 22.0572
Au 22.3973 21.4987 19.3128
Au 22.0254 22.8297 16.9752
Au 20.5543 16.2351 22.3765
Au 24.0852 19.24 21.9241
Au 21.4534 19.1524 18.1342
Au 21.8214 20.5599 15.9369
Au 17.8611 16.0642 23.5974
Au 21.476 19.1276 20.9316
Au 18.6504 19.1352 18.9651
Au 19.2147 19.5127 16.1223
Au 17.15 18.68 24.0142
Au 16.7535 20.0728 21.8536
Au 16.7346 20.3414 17.0858
Au 18.1027 21.3814 23.817
Au 17.4454 23.0117 21.6601
Au 17.6422 24.1358 19.1473
Au 20.0034 23.0096 23.0165
Au 18.5229 25.1429 21.5955
Au 19.8675 25.9858 19.59
Au 21.2538 21.8429 25.087
Au 21.2404 25.1263 21.7263
Au 22.1967 24.6692 19.0955
Au 22.6793 23.546 23.3994
Au 23.6186 23.6072 20.9636
Au 24.5058 23.4261 18.4284
Au 24.5598 21.8766 22.8848
Au 24.8767 21.351 20.2328
Au 24.2509 21.0661 17.4459
Au 23.1178 16.9366 21.0342
Au 23.9164 18.7497 19.2522
Au 23.7654 18.4069 16.5965
Au 20.4727 16.6049 19.8522
Au 22.3907 16.6282 18.1318
Au 21.4405 17.9943 15.6843
Au 18.4716 15.3271 21.1285
Au 19.7509 17.021 17.38
Au 17.2251 17.9168 16.8606
Au 16.507 17.2495 21.6922
Au 17.5229 16.8138 19.2769
Au 15.9766 18.967 19.3549
