561
 Atoms. Timestep: 50000
Au 20.4294 20.4412 20.3285
Au 22.8737 21.4013 20.514
Au 20.505 22.8732 21.4101
Au 20.1489 17.9335 19.4266
Au 17.8633 19.456 20.1025
Au 20.9328 22.6844 18.628
Au 21.4751 20.4913 22.8758
Au 19.3736 20.3162 17.819
Au 19.7778 18.4554 22.2623
Au 22.1485 19.8713 18.3262
Au 22.3169 18.592 20.91
Au 18.3973 22.3401 19.7758
Au 18.5464 20.8471 22.2835
Au 25.4851 22.4897 20.7683
Au 21.048 25.402 22.7049
Au 19.9942 15.5671 18.2662
Au 15.2159 18.516 19.9475
Au 21.66 24.6945 17.0411
Au 22.5889 20.655 25.39
Au 18.1783 20.1912 15.3926
Au 19.0041 16.4281 23.8143
Au 23.9627 19.2063 16.3995
Au 24.2458 16.7866 21.7024
Au 16.3875 23.898 19.1704
Au 17.0841 21.5952 24.5477
Au 23.2267 23.985 21.6832
Au 23.6377 23.5312 18.7988
Au 21.3156 25.1617 19.7722
Au 24.0694 21.5688 23.1099
Au 21.6909 23.0519 24.0864
Au 24.7433 20.8703 18.5216
Au 22.7238 21.991 16.6281
Au 24.8134 19.6376 21.162
Au 23.4656 18.7373 23.5156
Au 24.3421 17.9255 18.944
Au 18.6627 24.8062 21.1124
Au 18.9893 24.3985 18.0244
Au 19.0295 23.6614 23.6867
Au 19.7873 21.2168 25.0224
Au 16.6506 23.1105 21.8636
Au 17.4353 16.9363 19.1427
Au 18.9768 17.7749 16.8421
Au 16.7086 19.3268 17.6492
Au 19.4344 15.9376 21.0574
Au 17.0749 17.4178 21.9468
Au 21.8553 17.3623 17.0334
Au 21.091 19.7828 15.6853
Au 22.1383 16.0187 19.9443
Au 21.7476 16.4922 22.8294
Au 15.7843 21.1782 19.7106
Au 17.1831 22.1833 17.2611
Au 15.9952 19.9806 22.2502
Au 17.9608 18.9694 24.398
Au 19.9382 22.4292 16.102
Au 20.8973 18.5359 24.7661
Au 28.0979 23.3931 20.7635
Au 21.3506 27.9058 23.7905
Au 19.9253 12.8516 17.2252
Au 12.7116 17.6355 19.7985
Au 22.4141 26.5822 15.2558
Au 23.6942 20.7507 27.8515
Au 17.1515 20.0593 12.8689
Au 18.3508 14.2686 25.3908
Au 25.4584 18.4827 14.3192
Au 26.2605 14.95 22.0517
Au 14.3948 25.8058 18.6046
Au 15.339 22.1673 26.5603
Au 25.8376 24.8547 22.1047
Au 23.577 26.4308 22.7992
Au 26.2413 24.483 18.9311
Au 24.1978 25.5288 17.1832
Au 21.6803 27.6128 20.9804
Au 21.828 27.2325 17.9672
Au 24.0932 25.9644 19.9784
Au 26.7397 22.5286 23.4717
Au 25.3426 21.3714 25.6646
Au 22.1543 25.6097 25.3269
Au 22.9799 23.2469 26.5995
Au 24.332 24.1047 24.3499
Au 27.2127 21.8143 18.6361
Au 26.5077 20.1664 16.4673
Au 23.4556 23.8989 14.7971
Au 24.5514 21.1642 14.478
Au 25.5476 22.9564 16.574
Au 27.5265 20.6953 21.2277
Au 26.8388 17.7012 21.5328
Au 24.6838 18.6099 26.0073
Au 25.5171 16.7962 24.1209
Au 26.3006 19.5324 23.6402
Au 25.8999 17.3805 16.7305
Au 26.1152 15.9939 19.3246
Au 26.7709 18.9617 19.1352
Au 18.9831 27.2897 21.7586
Au 16.5231 26.5995 20.3177
Au 19.6411 26.4425 16.2289
Au 17.0093 26.1927 17.5219
Au 19.3824 26.8963 19.251
Au 19.3727 26.277 24.5912
Au 17.2019 24.0001 25.6861
Au 20.9088 21.3314 27.4275
Au 18.09 21.5524 27.1441
Au 20.0654 23.6697 26.3358
Au 14.8407 24.8928 21.4303
Au 14.8369 23.5156 23.861
Au 16.9864 25.5553 23.2036
Au 17.3804 14.4417 17.8383
Au 14.906 15.9367 18.8599
Au 18.8818 15.3995 15.6167
Au 18.0525 17.5325 14.1569
Au 14.13 18.2563 17.3888
Au 15.5285 19.0327 15.1207
Au 16.3825 16.8888 16.472
Au 19.3253 13.5083 19.9065
Au 18.8156 13.7726 22.7669
Au 14.5092 16.4799 21.8107
Au 16.4153 15.3706 23.7563
Au 16.8335 14.8531 20.8952
Au 21.6127 14.701 16.1884
Au 23.6818 16.4903 15.0852
Au 19.9659 19.6264 13.1243
Au 22.7762 18.8763 13.7811
Au 20.7512 17.1563 14.5194
Au 21.9944 13.5564 18.7744
Au 24.1904 14.2426 20.4543
Au 20.8841 14.3787 24.5066
Au 23.6359 14.5523 23.4432
Au 21.5491 13.7941 21.6828
Au 23.9423 15.4259 17.7017
Au 13.058 20.3766 19.5207
Au 13.8941 23.0262 19.0695
Au 16.3497 22.0589 14.7451
Au 15.2746 24.0486 16.7097
Au 14.714 21.2265 17.1644
Au 13.4003 19.123 22.1166
Au 14.3178 20.6112 24.3709
Au 17.3294 16.7075 25.9848
Au 16.1069 19.4576 26.2962
Au 15.3765 17.9738 24.1253
Au 14.0164 22.0386 21.7406
Au 20.6155 24.3581 14.2398
Au 18.8146 22.1738 13.5857
Au 21.8915 21.6948 13.9661
Au 17.9952 24.2944 15.3936
Au 21.8226 18.4717 27.3244
Au 20.0019 16.4803 26.3415
Au 22.9161 16.6587 25.4583
Au 18.9807 18.9863 26.8663
Au 30.5952 24.4345 20.9695
Au 21.6361 30.4135 24.7986
Au 19.6024 10.3007 16.0045
Au 10.0861 16.5842 19.6336
Au 23.1442 28.5756 13.6992
Au 24.8315 20.8036 30.3878
Au 16.1727 19.9338 10.2521
Au 17.8238 12.2773 27.4846
Au 26.9096 17.8225 12.1918
Au 28.1092 13.2086 22.92
Au 12.5339 27.6704 18.0876
Au 13.5532 22.818 28.541
Au 28.5104 25.8194 22.2137
Au 26.1081 27.4656 23.0563
Au 23.9867 29.0151 23.8074
Au 28.9296 25.4617 18.9823
Au 26.762 26.5895 17.3421
Au 25.0295 27.5901 15.3868
Au 21.8415 30.2787 21.9582
Au 22.1573 29.8197 19.1171
Au 22.6047 29.3496 16.4752
Au 26.6247 26.8012 20.3017
Au 24.2358 28.693 20.9503
Au 24.6686 28.2041 18.3066
Au 29.3045 23.454 23.5021
Au 27.8295 22.6408 25.9655
Au 26.2634 22.0079 28.2911
Au 22.4238 28.1403 26.3429
Au 23.1259 25.8197 27.8387
Au 24.0079 23.2936 29.0606
Au 27.3197 25.1832 24.6764
Au 24.8552 26.879 25.4112
Au 25.5565 24.3622 26.8763
Au 29.8565 22.8167 18.6478
Au 29.0574 21.3185 16.6162
Au 28.0354 19.554 14.2842
Au 24.0726 25.9934 13.0959
Au 25.1171 23.1616 12.7197
Au 26.163 20.4784 12.2143
Au 28.1463 24.0429 16.6153
Au 25.9567 25.0641 14.8184
Au 27.3297 22.2453 14.4551
Au 30.0477 21.5689 21.4539
Au 29.5319 18.8291 21.7139
Au 28.8843 16.0176 22.2351
Au 25.694 19.1002 28.5385
Au 26.7518 16.9544 26.7153
Au 27.4915 14.9738 24.8191
Au 28.7425 20.6875 23.9582
Au 27.3777 19.7662 26.3024
Au 28.3164 17.6497 24.0956
Au 27.7577 16.5665 14.6399
Au 27.6978 15.2445 17.3541
Au 27.9711 14.1362 19.823
Au 29.4799 19.796 19.1092
Au 28.62 18.1042 16.9672
Au 28.7392 16.9844 19.5615
Au 19.1194 29.9329 23.1231
Au 16.8661 29.1962 21.4334
Au 14.5232 28.5338 19.9328
Au 20.1935 28.409 14.4704
Au 17.69 28.4073 15.6799
Au 15.0057 27.9744 16.9206
Au 19.5877 29.7391 20.1972
Au 19.753 29.147 17.4076
Au 17.3588 28.8098 18.4661
Au 19.4331 28.7553 25.7062
Au 17.4427 26.6435 26.6782
Au 15.3789 24.7199 27.7752
Au 22.1128 21.3989 30.154
Au 19.2117 21.7813 29.7309
Au 16.4571 22.2744 29.1442
Au 20.3068 26.2492 27.1674
Au 21.1914 23.7663 28.8425
Au 18.1458 24.4468 28.362
Au 12.7132 26.4168 20.7016
Au 12.8719 25.2099 23.3694
Au 13.2013 24.02 25.933
Au 17.0028 28.0391 24.2564
Au 14.8371 27.3949 22.574
Au 15.025 26.0374 25.1778
Au 17.2522 11.7098 17.0039
Au 14.7162 13.3315 17.7863
Au 12.3587 14.6596 18.9775
Au 18.3602 12.6424 14.6207
Au 17.5102 15.0024 13.0482
Au 16.857 17.386 11.6941
Au 11.4545 17.3799 17.2979
Au 12.9384 17.9223 14.9954
Au 14.6877 18.8593 12.6304
Au 16.1843 14.1443 15.4022
Au 13.8225 15.5419 16.36
Au 15.155 16.3182 14.0639
Au 18.9027 10.7143 19.0125
Au 18.6922 11.3297 21.8971
Au 18.1126 11.581 24.6782
Au 11.8153 15.343 21.7142
Au 13.8268 14.4973 23.67
Au 15.782 13.3105 25.3957
Au 16.5034 12.22 19.8786
Au 14.1582 13.7913 20.7778
Au 16.1263 12.7457 22.7013
Au 21.4118 12.1692 14.9364
Au 23.3126 13.9468 13.9569
Au 25.2303 15.8654 13.0763
Au 18.6612 19.3886 10.567
Au 21.5869 18.788 10.8817
Au 24.4701 18.4007 11.3991
Au 20.5021 14.6512 13.3712
Au 19.6906 16.8788 11.9077
Au 22.503 16.4651 12.3942
Au 21.7259 10.8832 17.8959
Au 23.8503 11.5042 19.5041
Au 26.0732 12.3118 21.0786
Au 20.523 12.246 26.364
Au 23.105 12.7611 25.2228
Au 25.6192 12.805 24.148
Au 21.1911 11.2689 20.6772
Au 20.9255 11.6991 23.5535
Au 23.3797 11.8462 22.283
Au 23.6395 12.6997 16.6048
Au 25.7586 14.4386 15.4189
Au 25.7924 13.0911 18.2446
Au 10.5741 19.4592 18.9581
Au 10.9699 22.0205 18.6334
Au 11.8375 24.7998 18.2819
Au 14.9897 21.9297 12.1526
Au 14.1773 23.6603 14.1393
Au 13.3425 25.8165 15.9392
Au 12.2815 20.1246 16.8589
Au 13.4486 20.8304 14.3835
Au 12.6275 22.9662 16.3027
Au 10.8387 18.1481 22.0248
Au 11.591 19.7207 24.0774
Au 12.5104 21.2713 26.3399
Au 16.6696 14.8051 27.6794
Au 15.7369 17.4053 28.1718
Au 14.6312 20.1018 28.3443
Au 12.6372 17.0075 24.0218
Au 14.5652 15.9909 26.1903
Au 13.4723 18.5104 26.1935
Au 11.2587 21.1083 21.3511
Au 11.9134 23.7848 21.0346
Au 12.1029 22.5771 23.7576
Au 21.2502 26.4363 12.4854
Au 19.4686 24.2403 11.5832
Au 17.7803 22.1292 10.9821
Au 22.4249 23.799 11.943
Au 20.7002 21.6806 11.3678
Au 23.4333 21.1313 11.8404
Au 18.6286 26.2071 13.6294
Au 16.7607 24.1189 12.8655
Au 15.9568 26.1152 14.8418
Au 22.9963 18.7242 29.8467
Au 21.3088 16.4986 28.978
Au 19.5281 14.2781 28.2423
Au 24.0862 16.5768 27.9565
Au 22.1001 14.4573 27.3405
Au 24.8905 14.7957 26.0657
Au 20.2403 19.0701 29.7308
Au 18.5701 16.8791 28.6602
Au 17.3527 19.5036 28.948
Au 33.1408 25.4363 21.027
Au 21.8674 32.8652 25.6499
Au 19.1192 7.94642 15.1914
Au 7.65929 15.5379 19.5404
Au 23.6294 30.581 12.1202
Au 26.0972 20.8648 32.7536
Au 15.0978 19.7259 7.97501
Au 17.0477 10.3619 28.9151
Au 28.6661 17.4354 10.192
Au 30.0093 11.4714 23.2625
Au 10.6482 29.4881 17.6935
Au 11.9672 23.4258 30.3576
Au 30.9682 27.0462 22.3009
Au 28.7276 28.4438 23.1154
Au 26.4697 29.9963 23.9853
Au 24.1897 31.4366 24.8425
Au 31.3455 26.5447 19.4895
Au 29.4263 27.4303 17.4013
Au 27.6755 28.6041 15.5618
Au 25.676 29.626 13.888
Au 22.1783 32.6133 23.1049
Au 22.5096 32.2926 20.2252
Au 22.9868 31.8071 17.4717
Au 23.1939 31.2582 14.8032
Au 29.1796 27.9675 20.5463
Au 26.8705 29.4834 21.178
Au 27.2199 29.0123 18.5049
Au 24.4457 31.1924 21.9955
Au 24.9029 30.8645 19.1817
Au 25.3644 30.1995 16.6581
Au 31.6953 24.6214 23.3457
Au 30.3666 23.7592 26.0413
Au 28.9408 23.0213 28.3918
Au 27.3093 21.9366 30.7996
Au 22.6989 30.6511 27.1907
Au 23.4582 28.1595 28.9325
Au 24.3565 25.7539 30.1726
Au 25.0674 23.4765 31.4809
Au 29.785 26.1833 24.6275
Au 27.5642 27.6436 25.5875
Au 28.222 25.2219 27.1702
Au 25.1724 29.1785 26.5792
Au 25.9022 26.7635 28.0356
Au 26.7714 24.4525 29.5303
Au 32.1679 23.9627 18.8066
Au 31.6814 22.0832 16.705
Au 30.6013 20.6006 14.5719
Au 29.6392 18.6737 12.3921
Au 24.7606 27.9216 11.5164
Au 25.8826 25.2759 11.1378
Au 26.9711 22.7623 10.6996
Au 27.8258 19.9587 10.3303
Au 30.7542 24.878 16.7483
Au 28.7252 26.1441 15.0017
Au 29.939 23.1994 14.6165
Au 26.8149 27.0807 13.3313
Au 27.8271 24.3628 12.8742
Au 29.1236 21.3924 12.3065
Au 32.4573 22.5414 21.6604
Au 32.0748 19.7488 21.9647
Au 31.5132 16.84 22.2474
Au 30.7148 14.0302 22.738
Au 27.0558 19.0303 31.077
Au 27.7578 17.3559 29.1181
Au 28.7194 15.1826 27.1685
Au 29.5957 13.341 25.2085
Au 31.46 21.8721 24.1443
Au 29.8918 20.8652 26.5295
Au 30.7867 18.7569 24.1701
Au 28.4526 20.157 28.8118
Au 29.4467 17.9698 26.5404
Au 30.2544 15.8854 24.8954
Au 29.1011 15.8108 12.4398
Au 29.3306 14.6747 15.3494
Au 29.6823 13.4237 18.0679
Au 29.6933 12.3051 20.6716
Au 31.8928 21.0659 19.2898
Au 31.1572 19.2933 17.0419
Au 31.2353 17.8164 19.6007
Au 30.1227 17.7019 14.9799
Au 30.4183 15.9441 17.424
Au 30.6705 15.0229 20.1969
Au 19.5734 32.2593 24.1875
Au 17.2771 31.6643 22.3077
Au 15.008 31.0041 20.9534
Au 12.6198 30.2953 19.2466
Au 21.2081 30.3944 13.0922
Au 18.4733 30.2816 13.8448
Au 15.7282 30.0158 15.356
Au 12.9118 29.8102 16.4172
Au 19.9927 32.092 21.4195
Au 20.1545 31.6182 18.2638
Au 17.4988 31.3772 19.4632
Au 20.6008 31.1935 15.7179
Au 18.0626 31.0829 16.5283
Au 15.2694 30.6143 18.1734
Au 20.0156 31.061 26.8971
Au 17.7341 29.1128 27.6151
Au 15.894 27.1296 28.715
Au 13.567 25.5328 29.6316
Au 23.3333 21.4245 32.5454
Au 20.3452 21.8967 32.0527
Au 17.5092 22.5749 31.5362
Au 14.3891 23.0171 31.1811
Au 20.6089 28.6074 28.3379
Au 21.169 26.3927 29.7827
Au 18.4149 26.9416 29.3666
Au 22.3815 23.8499 31.2995
Au 19.4076 24.4873 30.7526
Au 16.3775 24.8956 30.5092
Au 10.6882 28.2985 20.1798
Au 10.8524 27.0826 22.5967
Au 11.048 25.7797 25.1315
Au 11.2719 24.5622 27.7295
Au 17.5211 30.6272 25.3288
Au 15.2319 29.9272 23.4764
Au 15.3103 28.5636 26.3411
Au 12.6087 29.0854 21.9553
Au 13.1288 27.7709 24.5663
Au 13.229 26.5352 27.1151
Au 16.856 9.27851 15.9865
Au 14.4722 10.6816 16.9555
Au 12.0054 12.3268 17.7677
Au 9.71725 13.9997 18.9156
Au 18.0436 10.204 13.7963
Au 17.2133 12.433 12.0865
Au 16.3326 14.9178 10.6264
Au 15.7902 17.3624 9.1796
Au 9.05602 16.3694 17.2465
Au 10.4694 16.9637 14.6793
Au 12.0043 17.7427 12.4072
Au 13.7539 18.8045 10.1898
Au 15.8035 11.7111 14.3858
Au 13.5984 13.0115 15.3517
Au 14.8859 13.9485 12.8456
Au 11.1694 14.7355 16.4411
Au 12.4625 15.288 13.9009
Au 14.3534 16.2476 11.3917
Au 18.8119 8.41271 17.8529
Au 18.2945 8.93276 20.6742
Au 17.7453 9.3723 23.5232
Au 17.4154 9.70385 26.3371
Au 9.27419 14.3884 21.5791
Au 11.3101 13.4052 23.4164
Au 13.2118 12.302 25.2276
Au 15.2312 11.2394 26.9211
Au 16.1624 9.76066 18.647
Au 13.8438 11.3589 19.682
Au 15.6608 10.1899 21.413
Au 11.5986 12.6374 20.6381
Au 13.5324 11.7616 22.4886
Au 15.5013 10.5418 24.3382
Au 20.9127 9.51283 13.8021
Au 23.0779 11.3115 13.1207
Au 24.9228 13.3733 11.9664
Au 26.757 15.4376 10.97
Au 17.9105 19.4378 8.0655
Au 20.4798 18.5527 8.60131
Au 23.3564 18.1144 9.09459
Au 26.1293 17.9795 9.46081
Au 20.0179 12.0277 12.5955
Au 19.3352 14.2691 10.9358
Au 22.1203 13.8072 11.2722
Au 18.4267 16.7653 9.44638
Au 21.2682 16.1365 9.94104
Au 23.9546 15.536 10.2657
Au 21.4289 8.39435 16.6811
Au 23.4783 9.05434 18.4453
Au 25.6311 9.71339 20.1588
Au 27.8829 10.4766 21.7727
Au 19.8203 10.1651 28.0983
Au 22.4033 10.7368 26.984
Au 25.1702 10.7869 25.8175
Au 27.7281 11.0268 24.4329
Au 21.0016 8.757 19.7751
Au 20.6184 9.21821 22.7815
Au 23.2532 9.3266 21.4098
Au 20.2409 9.72653 25.3772
Au 22.9381 9.98387 24.3157
Au 25.4326 10.1479 23.0422
Au 23.0394 10.0615 15.5353
Au 25.3347 11.7243 14.8462
Au 25.3467 10.5722 17.2768
Au 27.1888 14.0182 13.4489
Au 27.7206 12.627 16.2215
Au 27.7143 11.4141 19.0017
Au 8.14457 18.3986 18.9357
Au 8.49819 20.9712 18.1337
Au 9.22402 23.7551 18.0319
Au 10.065 26.6416 18.0835
Au 14.1516 21.8338 9.70213
Au 13.4024 23.9339 11.4039
Au 12.2753 25.4655 13.4423
Au 11.334 27.366 15.491
Au 9.38307 18.914 16.3446
Au 10.7848 19.6763 14.3235
Au 10.1156 21.884 15.8748
Au 12.6007 20.6421 12.0696
Au 11.4697 22.6849 13.749
Au 10.7499 24.8358 15.7195
Au 8.4613 17.1276 21.7625
Au 9.08545 18.7054 24.0015
Au 9.82288 20.204 26.2936
Au 10.8195 21.8057 28.5266
Au 16.0038 12.6075 29.4181
Au 14.9273 15.3373 29.6012
Au 14.0572 18.2714 30.1751
Au 12.7738 20.905 30.4251
Au 10.0912 15.9198 23.9348
Au 12.0797 14.9169 25.6569
Au 10.9267 17.7237 25.9763
Au 13.9657 13.8147 27.5704
Au 12.5542 16.5942 28.2556
Au 11.9678 19.191 28.4842
Au 8.86522 19.763 21.1371
Au 9.12408 22.6011 20.6242
Au 9.50373 21.4325 23.4974
Au 9.93281 25.3809 20.4162
Au 10.0235 24.2756 23.0283
Au 10.2354 22.8581 25.5916
Au 22.0629 28.6852 11.0491
Au 20.3353 26.3532 10.0982
Au 18.4757 24.2049 9.20265
Au 16.6486 21.9856 8.58976
Au 23.227 25.8104 10.431
Au 21.3942 23.6667 9.52612
Au 24.3092 23.1413 10.1816
Au 19.4149 21.5286 9.01397
Au 22.3662 21.0179 9.27126
Au 25.0606 20.4648 9.50447
Au 19.3366 28.4155 11.9324
Au 17.7201 26.3583 10.9847
Au 16.7669 28.0977 13.0492
Au 15.905 24.1403 10.3434
Au 14.9435 26.0403 12.1495
Au 14.0126 27.8256 14.0831
Au 24.3342 18.8287 32.1566
Au 22.5302 16.5375 31.4771
Au 20.7706 14.4253 30.547
Au 18.8503 12.3377 29.9846
Au 25.2186 16.9795 30.398
Au 23.4583 14.8042 29.8564
Au 26.1345 14.8378 28.6186
Au 21.8129 12.3864 29.0003
Au 24.3268 12.9074 27.7595
Au 26.9421 12.8099 26.5216
Au 21.383 19.0513 32.1454
Au 19.689 16.9337 31.2535
Au 18.5047 19.8416 31.6344
Au 17.6492 14.8143 30.2767
Au 16.9236 17.5563 30.7168
Au 15.6553 20.4227 30.9787
