656
 Atoms. Timestep: 50000
Au 5.96323 19.4222 21.7145
Au 7.34766 21.4813 22.4768
Au 9.1168 23.9405 23.2389
Au 10.7041 25.8714 24.1853
Au 12.6862 27.8639 24.7866
Au 14.647 30.004 25.4176
Au 16.4726 31.8407 26.0811
Au 6.51252 15.9007 20.0079
Au 8.09656 18.0144 20.7367
Au 9.5401 20.263 21.5743
Au 11.3358 22.2577 22.195
Au 13.133 24.3966 23.1971
Au 14.8834 26.5248 23.8399
Au 16.623 28.5813 24.5334
Au 18.5106 30.6088 25.2384
Au 19.8441 32.7468 26.1604
Au 8.40226 14.2515 19.0225
Au 10.3694 16.4144 19.9724
Au 11.9689 18.6911 20.4545
Au 13.6757 20.7853 21.2656
Au 15.4573 22.921 22.141
Au 17.255 25.2104 23.1143
Au 19.0604 27.0313 23.5363
Au 20.8307 29.2296 24.2663
Au 22.5207 31.4336 25.2187
Au 24.136 33.3798 25.9143
Au 10.7212 12.7024 18.1606
Au 12.4102 14.8539 18.9564
Au 14.2083 17.0036 19.8318
Au 16.2147 19.4265 20.5643
Au 18.007 21.5339 21.1857
Au 19.511 23.5243 22.0717
Au 21.2784 25.6248 22.9302
Au 23.0758 27.7121 23.601
Au 24.7387 29.8191 24.3123
Au 26.3183 31.7018 25.2962
Au 13.0219 11.1323 17.0441
Au 14.675 13.3402 18.1492
Au 16.5998 15.4932 18.783
Au 18.3424 17.8524 19.527
Au 20.0027 19.9321 20.1818
Au 21.7619 22.0603 20.9691
Au 23.3972 24.0539 21.8939
Au 25.1315 26.2777 22.5258
Au 27.0682 28.3196 23.4524
Au 28.4171 30.3961 24.0761
Au 15.3269 9.66423 16.4626
Au 16.9091 11.8826 17.1195
Au 18.7276 13.9147 17.9309
Au 20.6984 16.121 18.7526
Au 22.1494 18.3059 19.4034
Au 24.0872 20.4055 20.1154
Au 25.741 22.6588 20.9317
Au 27.4867 24.8415 21.7098
Au 29.2309 27.1916 22.6021
Au 30.8273 29.0934 23.199
Au 17.3116 8.30439 15.5848
Au 19.2699 10.3704 16.2704
Au 21.1084 12.5625 17.0311
Au 22.8729 14.5191 17.6693
Au 24.6311 17.0008 18.4852
Au 26.3392 18.9932 19.262
Au 28.0878 21.3144 20.0478
Au 29.7795 23.5283 20.7506
Au 31.5949 25.6115 21.8306
Au 33.057 27.7044 22.2112
Au 19.7779 6.92536 14.6513
Au 21.6296 8.85489 15.229
Au 23.4459 11.0134 15.9656
Au 25.2592 13.2398 16.7723
Au 27.1208 15.2097 17.4741
Au 28.5174 17.4574 18.3136
Au 30.3803 19.5457 19.3451
Au 32.0477 21.8749 19.9433
Au 33.6561 24.0504 21.0271
Au 23.7852 7.70663 14.4312
Au 25.8004 9.68741 15.2849
Au 27.2623 11.7947 16.2212
Au 29.116 13.7019 16.5681
Au 30.6643 15.9824 17.2808
Au 32.36 18.1243 18.2791
Au 33.9965 20.3034 18.9542
Au 6.05479 18.5575 19.0907
Au 7.54427 20.7062 19.833
Au 9.10462 22.8828 20.6015
Au 10.966 24.9401 21.3191
Au 12.5625 26.9141 22.1379
Au 14.571 28.9984 22.8593
Au 16.383 31.2036 23.323
Au 17.9255 33.3188 24.1881
Au 6.71031 14.9837 17.2918
Au 8.18259 17.0435 18.203
Au 9.82109 19.3153 18.856
Au 11.4639 21.482 19.6533
Au 13.2812 23.5144 20.3591
Au 14.9517 25.5598 21.2395
Au 16.6201 27.6982 21.8663
Au 18.518 29.6405 22.6247
Au 20.2454 31.8743 23.5894
Au 21.7437 33.7637 24.5362
Au 8.74894 13.4291 16.3007
Au 10.3771 15.3549 17.2096
Au 11.8773 17.5334 18.0157
Au 13.7099 19.8055 18.6699
Au 15.4552 21.9931 19.4664
Au 17.1158 24.1515 20.3132
Au 19.0399 26.1237 21.0479
Au 20.8013 28.1532 21.8144
Au 22.6689 30.461 22.4289
Au 24.3764 32.2899 23.467
Au 10.7242 11.697 15.6185
Au 12.6374 13.7543 16.2319
Au 14.3408 15.9759 17.2078
Au 15.8841 18.131 17.8988
Au 17.8657 20.4688 18.4971
Au 19.3988 22.6872 19.2063
Au 21.3961 24.806 19.8986
Au 23.0824 26.8887 20.9385
Au 24.8094 29.0095 21.5574
Au 26.5851 31.0653 22.4108
Au 13.234 10.3346 14.7531
Au 14.8704 12.5052 15.5028
Au 16.5794 14.5684 16.2437
Au 18.4261 16.5999 17.0306
Au 20.1345 18.7814 17.6094
Au 21.5916 21.1434 18.4604
Au 23.6272 23.2221 19.1128
Au 25.3208 25.4066 19.8992
Au 27.0838 27.5025 20.6645
Au 28.7759 29.6154 21.3156
Au 15.3255 8.93513 13.6851
Au 17.047 10.9161 14.5176
Au 18.8503 13.0519 15.3478
Au 20.6781 15.3543 15.9792
Au 22.4225 17.2392 16.8208
Au 23.9361 19.584 17.5707
Au 26.0114 21.6206 18.1458
Au 27.4964 23.8021 19.0481
Au 29.4061 26.0762 19.8053
Au 31.013 28.0765 20.6041
Au 17.771 7.55579 12.9695
Au 19.1088 9.58662 13.651
Au 21.2002 11.6435 14.3176
Au 22.9014 13.8558 15.0385
Au 24.7327 15.7501 15.8513
Au 26.3979 18.0708 16.6438
Au 28.2056 20.2343 17.5302
Au 29.9163 22.4055 18.226
Au 31.7108 24.5985 18.9332
Au 33.254 26.4866 19.7978
Au 21.3296 7.935 12.6265
Au 23.4736 10.1565 13.3256
Au 25.2001 12.2295 14.2419
Au 26.9562 14.2015 14.7465
Au 28.4382 16.4251 15.562
Au 30.2834 18.6644 16.4563
Au 32.0544 20.8799 17.1997
Au 33.6921 23.0231 17.9655
Au 25.6257 8.89808 12.6941
Au 27.4569 10.8735 13.4225
Au 29.1248 12.8674 14.0319
Au 30.682 15.1481 14.7802
Au 32.3429 17.2068 15.558
Au 33.8721 19.2964 16.3884
Au 6.30502 17.5281 16.3362
Au 7.70853 19.752 16.9755
Au 9.18125 21.9938 17.8708
Au 10.8724 23.9219 18.552
Au 12.7658 26.0794 19.5582
Au 14.5384 28.3718 20.1542
Au 16.2466 30.2957 20.8633
Au 18.0496 32.5933 21.7711
Au 20.0617 34.195 22.5407
Au 8.23108 15.9172 15.31
Au 9.6688 18.1276 16.1704
Au 11.4809 20.3257 16.8842
Au 13.1281 22.4031 17.6975
Au 14.8977 24.5534 18.6841
Au 16.7152 27.0411 19.1146
Au 18.5496 28.9897 19.9177
Au 20.3091 30.8791 20.816
Au 22.3239 33.0164 21.7844
Au 10.4799 14.1837 14.5522
Au 12.1415 16.5158 15.4765
Au 13.8792 18.6436 16.1982
Au 15.5965 20.9314 16.981
Au 17.093 23.2484 17.5985
Au 18.795 25.4488 18.2438
Au 20.6608 27.4315 19.0849
Au 22.6196 29.4203 19.7385
Au 24.4937 31.5073 20.7589
Au 12.7641 12.7617 13.556
Au 14.4218 15.0026 14.3961
Au 16.1298 17.2484 15.1236
Au 17.8229 19.1583 16.0486
Au 19.376 21.4682 16.7029
Au 21.1999 23.7633 17.3763
Au 23.2593 25.9491 18.2673
Au 25.0978 28.1776 18.9477
Au 26.8419 30.2473 19.6184
Au 15.0184 11.3442 12.7129
Au 16.6661 13.3999 13.4195
Au 18.3301 15.9031 14.2902
Au 20.2385 17.8132 15.0213
Au 21.7277 20.1117 15.6949
Au 23.6236 22.224 16.7259
Au 25.5295 24.3429 17.2972
Au 27.3411 26.571 17.9526
Au 28.9031 28.7758 18.6681
Au 17.091 9.9566 11.6685
Au 18.8348 12.1224 12.4808
Au 20.6328 14.4151 13.3359
Au 22.5267 16.3385 13.8502
Au 24.1105 18.3561 14.9045
Au 25.9235 20.542 15.5695
Au 27.8682 22.9879 16.4868
Au 29.5189 25.2519 17.0384
Au 31.322 27.2033 17.9913
Au 19.4198 8.69433 11.0059
Au 21.2698 10.6257 11.7464
Au 22.994 12.7624 12.4107
Au 24.7627 14.8663 13.0435
Au 26.4257 17.0936 13.9455
Au 28.2536 19.1862 14.6792
Au 29.8868 21.2692 15.4692
Au 31.5741 23.6603 16.2597
Au 33.3147 25.7151 16.9251
Au 23.4748 8.94892 11.1056
Au 25.2488 11.2791 11.5992
Au 26.9015 13.2933 12.2035
Au 28.7469 15.5181 13.0985
Au 30.376 17.7628 13.6609
Au 32.2102 19.7082 14.4038
Au 33.9111 21.8002 15.3797
Au 7.89504 18.7684 14.2282
Au 9.4414 20.6986 14.9355
Au 11.0165 23.0652 15.955
Au 12.638 25.1152 16.6566
Au 14.3783 27.2334 17.6789
Au 16.338 29.4253 18.277
Au 18.2158 31.4786 19.1452
Au 20.2174 33.5415 19.9171
Au 10.0939 17.1423 13.5743
Au 11.7737 19.2197 14.3112
Au 13.3872 21.423 15.0778
Au 14.932 23.6163 15.899
Au 16.5392 25.8172 16.4152
Au 18.7326 28.0245 17.2407
Au 20.56 29.9835 18.0307
Au 22.2744 31.9798 18.9649
Au 12.2776 15.4222 12.6803
Au 13.9628 17.5677 13.2602
Au 15.4996 19.9012 14.4275
Au 17.3054 22.1811 15.119
Au 18.9418 24.1897 15.7287
Au 20.9991 26.2485 16.6935
Au 22.81 28.5313 17.1728
Au 24.601 30.7235 18.0729
Au 14.3553 14.1532 11.6467
Au 16.3015 16.0956 12.4946
Au 17.9632 18.3904 13.0847
Au 19.4945 20.4973 14.0965
Au 21.4676 22.6813 14.9551
Au 23.1432 24.8467 15.6189
Au 25.0747 27.0599 16.231
Au 26.6881 29.2063 17.0736
Au 16.7139 12.3798 10.6639
Au 18.4355 14.6094 11.4707
Au 20.1082 16.7864 12.2259
Au 21.9706 19.0956 12.8254
Au 23.7844 21.1248 14.0726
Au 25.466 23.2141 14.8155
Au 27.2649 25.5703 15.3792
Au 28.9908 27.8531 16.0186
Au 18.9954 11.0944 9.84968
Au 20.9484 13.2493 10.6117
Au 22.7181 15.3636 11.2569
Au 24.2815 17.596 12.0224
Au 25.948 19.7518 12.9123
Au 27.8316 21.8283 13.7645
Au 29.6052 24.0597 14.4711
Au 31.2338 26.1795 15.3152
Au 21.2806 9.53169 9.42583
Au 23.1656 11.6526 9.82567
Au 24.8064 13.9142 10.4695
Au 26.4775 15.9123 11.2183
Au 28.1444 18.0844 12.0007
Au 29.886 20.2988 12.6335
Au 31.663 22.4913 13.6784
Au 33.3002 24.4268 14.5203
Au 9.82369 19.4442 12.4117
Au 11.2176 22.084 13.431
Au 12.8165 24.0577 14.2113
Au 14.5323 26.1314 14.8481
Au 16.2539 28.4588 15.7474
Au 18.0234 30.3989 16.3512
Au 20.0187 32.3004 17.0163
Au 11.8602 18.1185 11.7242
Au 13.3221 20.3351 12.3168
Au 15.0005 22.4792 13.0978
Au 16.6974 24.7079 13.8612
Au 18.6379 26.79 14.6284
Au 20.4405 29.0205 15.3657
Au 22.2418 31.0689 16.2051
Au 14.2993 16.6888 10.6938
Au 15.7352 18.9058 11.3055
Au 17.3103 21.1255 12.3452
Au 19.0085 23.2124 13.1443
Au 20.8973 25.2442 14.0034
Au 22.6983 27.5112 14.6405
Au 24.5431 29.5176 15.4588
Au 16.2226 15.0636 9.5516
Au 17.8625 17.1558 10.6494
Au 19.7599 19.6587 11.4322
Au 21.3294 21.7629 12.3645
Au 23.2219 23.6585 12.9577
Au 24.9353 25.9142 13.7116
Au 26.8743 28.3778 14.3817
Au 18.6333 13.5938 9.02287
Au 20.3825 15.7564 9.56512
Au 22.0614 18.0145 10.2189
Au 23.8678 20.2913 11.1481
Au 25.4432 22.3927 11.9796
Au 27.3108 24.4723 12.8962
Au 29.1173 26.6588 13.7491
Au 21.0426 12.0966 8.2691
Au 22.8054 14.1843 8.59086
Au 24.4995 16.5755 9.45377
Au 26.0657 18.7399 10.279
Au 27.7821 21.0568 11.2016
Au 29.6923 23.0166 11.9594
Au 31.3183 25.0557 12.8467
Au 11.5396 20.9228 10.7768
Au 12.9387 23.0992 11.4352
Au 14.6444 25.2629 12.304
Au 16.4283 27.3677 13.0044
Au 18.3587 29.53 13.8291
Au 20.0161 31.5634 14.3944
Au 13.4784 19.277 9.80149
Au 15.1841 21.5273 10.6361
Au 16.9364 23.6371 11.3491
Au 18.8725 25.6476 11.9363
Au 20.5324 27.8984 12.6634
Au 22.4052 30.0476 13.5972
Au 15.8911 17.8608 8.81449
Au 17.4987 20.3015 9.67585
Au 19.2996 22.2938 10.5168
Au 21.0541 24.421 10.9828
Au 22.6614 26.524 11.9178
Au 24.6222 28.6734 12.7141
Au 17.9975 16.2257 8.10576
Au 19.57 18.4582 8.8551
Au 21.5191 20.7596 9.55798
Au 23.2733 22.8082 10.3228
Au 24.9919 24.9919 11.23
Au 26.8308 27.1592 11.8916
Au 20.5723 14.7624 7.17936
Au 22.4022 16.8909 7.77347
Au 24.0321 19.2964 8.60374
Au 25.7334 21.3324 9.30624
Au 27.4402 23.5273 10.1906
Au 28.9546 25.4481 11.2058
Au 13.349 21.7697 8.87555
Au 14.8425 24.0883 9.64799
Au 16.5317 26.3355 10.5425
Au 18.3559 28.1837 11.1585
Au 20.1919 30.4128 11.8478
Au 15.3065 20.2734 7.95674
Au 16.918 22.7775 8.77678
Au 19.0159 24.7296 9.21838
Au 20.7783 27.0253 10.1008
Au 22.4406 29.1581 10.9312
Au 17.8509 19.1024 7.08144
Au 19.2672 21.4079 7.89692
Au 21.2416 23.3356 8.46952
Au 22.9216 25.5606 9.30631
Au 24.598 27.5518 10.1663
Au 19.9849 17.0909 6.50619
Au 21.6222 19.519 7.27469
Au 23.4864 21.8001 7.66673
Au 25.1029 24.0674 8.77381
Au 26.9461 26.1255 9.56383
Au 5.82188 20.1604 24.3241
Au 7.40337 22.391 25.1724
Au 9.13998 24.4367 25.9301
Au 10.9402 26.8448 26.6003
Au 12.7025 28.8696 27.6428
Au 14.5455 30.8595 27.9191
Au 6.25071 16.9442 22.8408
Au 7.92712 18.8845 23.6391
Au 9.51921 21.1818 24.1949
Au 11.3727 23.2756 25.0695
Au 13.0209 25.3202 25.9128
Au 14.6876 27.479 26.5701
Au 16.6595 29.5275 27.2373
Au 18.3615 31.661 28.0051
Au 8.21962 15.4117 21.8398
Au 10.0944 17.2399 22.687
Au 11.8719 19.6087 23.212
Au 13.7288 21.6207 24.1277
Au 15.4135 23.8585 24.8221
Au 17.0465 26.0457 25.7092
Au 18.8819 28.0607 26.1933
Au 20.7265 30.1249 27.0043
Au 22.3065 32.3579 27.6109
Au 10.5883 14.0425 20.9126
Au 12.4778 16 21.6884
Au 14.1219 18.2823 22.2965
Au 16.0014 20.3281 23.0828
Au 17.7616 22.3955 23.7874
Au 19.4312 24.5659 24.7961
Au 21.2305 26.7049 25.591
Au 23.1529 28.9332 26.2306
Au 24.7722 30.7301 27.2023
Au 12.7749 12.286 19.898
Au 14.7675 14.4013 20.7438
Au 16.6402 16.666 21.4444
Au 18.2888 18.7322 22.4166
Au 20.0739 20.7893 23.0044
Au 21.668 22.8939 23.8534
Au 23.5854 25.1802 24.6714
Au 25.2478 27.3387 25.333
Au 26.7615 29.2615 26.1527
Au 14.9886 10.727 19.0162
Au 16.7755 12.6506 19.7839
Au 18.5467 15.0249 20.6993
Au 20.5061 17.0621 21.5062
Au 22.1555 19.1786 22.1294
Au 23.8562 21.6438 22.7823
Au 25.728 23.7876 23.6517
Au 27.5219 25.8704 24.4957
Au 29.2501 28.1925 25.2802
Au 17.3329 9.26519 18.1688
Au 19.2017 11.2962 18.8608
Au 21.0221 13.6513 19.7995
Au 22.8484 15.6077 20.3909
Au 24.5425 17.8268 21.1704
Au 26.2198 20.0569 22.1037
Au 27.7991 22.3079 22.7246
Au 29.6713 24.5582 23.4795
Au 31.4003 26.4545 24.447
Au 19.6192 7.67421 17.2835
Au 21.3762 9.70407 17.9013
Au 23.2791 11.9651 18.7848
Au 25.1282 14.3631 19.4213
Au 26.7379 16.3274 20.3191
Au 28.4845 18.5497 20.9712
Au 30.0857 20.5863 21.8591
Au 31.6797 22.7366 22.5582
Au 33.3402 24.9102 23.6562
Au 21.9967 6.72693 16.4846
Au 23.8143 8.29174 17.2376
Au 25.4992 10.4901 18.0943
Au 27.1712 12.7979 18.913
Au 29.0261 14.8397 19.4638
Au 30.6742 16.9916 20.0282
Au 32.3564 19.1075 20.92
Au 33.8311 21.1157 21.908
Au 6.35041 17.6691 25.3343
Au 7.8377 19.7544 26.3621
Au 9.50787 22.0246 27.0562
Au 11.3353 24.1777 27.6689
Au 12.9587 26.5008 28.5678
Au 15.046 28.4561 29.2844
Au 16.7995 30.6453 29.8665
Au 8.3959 16.1207 24.5116
Au 10.1615 18.4692 25.348
Au 11.7833 20.6707 26.1758
Au 13.7368 22.7192 26.8285
Au 15.2923 24.99 27.642
Au 17.1872 26.9358 28.4861
Au 18.8747 29.0838 28.9267
Au 20.5616 31.0349 29.6183
Au 10.7583 14.6838 23.6457
Au 12.3517 16.9745 24.298
Au 13.9513 18.9987 25.1918
Au 15.9449 21.0048 25.8037
Au 17.5073 23.2148 26.539
Au 19.3584 25.5391 27.3681
Au 21.2796 27.6898 28.2893
Au 22.8648 29.8432 28.8879
Au 13.0074 13.3931 22.5261
Au 14.7319 15.5598 23.3184
Au 16.2949 17.6281 24.1751
Au 17.9983 19.5835 25.0644
Au 19.8017 21.8165 25.6624
Au 21.6178 23.9983 26.56
Au 23.3656 26.2269 27.2309
Au 25.0901 28.0516 28.1112
Au 15.1711 11.71 21.864
Au 16.7102 13.797 22.5636
Au 18.553 15.924 23.5404
Au 20.3638 18.0896 24.1894
Au 22.1478 20.2514 24.7478
Au 23.9271 22.4236 25.544
Au 25.7958 24.4672 26.366
Au 27.2479 26.6572 27.2137
Au 17.2685 10.1373 20.8811
Au 19.0428 12.4215 21.3798
Au 20.9976 14.5122 22.2844
Au 22.8327 16.6846 23.0821
Au 24.4323 18.8643 23.9028
Au 26.0917 20.9847 24.7921
Au 28.0401 23.3339 25.4103
Au 29.7294 25.5486 26.3194
Au 19.5757 8.74207 19.9934
Au 21.4715 10.7457 20.5315
Au 23.3001 13.017 21.2564
Au 24.9666 15.1676 22.0849
Au 26.6656 17.4343 23.002
Au 28.3254 19.5508 23.8355
Au 29.9966 21.736 24.5759
Au 31.6271 23.8147 25.2071
Au 21.8918 7.21332 19.1475
Au 23.6744 9.28936 19.9977
Au 25.3153 11.4954 20.5594
Au 27.0474 13.7284 21.4507
Au 28.8518 16.1697 22.0915
Au 30.615 18.022 22.7207
Au 32.3102 20.0148 23.7093
Au 33.5143 22.2719 24.3528
Au 8.70099 17.3517 27.3896
Au 10.1637 19.5282 27.9925
Au 11.8324 21.6863 28.7557
Au 13.6276 23.7402 29.5683
Au 15.0726 25.9159 30.4189
Au 17.0226 27.9675 31.0341
Au 18.7338 30.1845 31.5314
Au 10.7139 15.8731 26.4544
Au 12.2096 17.8387 27.17
Au 13.8176 20.1526 27.8017
Au 15.8803 22.2479 28.6558
Au 17.3959 24.2419 29.4135
Au 19.3338 26.4476 30.2023
Au 21.1281 28.5972 30.8712
Au 12.9589 14.4486 25.1426
Au 14.5166 16.5209 26.0611
Au 16.1338 18.6193 26.9338
Au 17.9708 20.8943 27.6733
Au 19.8812 22.933 28.3531
Au 21.6274 24.9565 29.2082
Au 23.2848 27.1881 29.9338
Au 14.923 12.692 24.5161
Au 16.7684 14.7853 25.2363
Au 18.5261 16.9146 26.012
Au 20.4539 19.1942 26.7367
Au 22.0715 21.2776 27.3743
Au 23.9845 23.2812 28.1873
Au 25.4546 25.3913 28.9402
Au 17.3759 11.2624 23.4663
Au 19.1132 13.3475 24.28
Au 20.9538 15.4805 25.0542
Au 22.6961 17.6309 25.915
Au 24.2803 19.8463 26.504
Au 26.3175 21.9969 27.3495
Au 27.9238 24.1382 28.2247
Au 19.5238 9.84329 22.5557
Au 21.5251 11.8823 23.1433
Au 23.1425 13.9361 23.9374
Au 24.8677 16.0947 25.0013
Au 26.733 18.1547 25.7575
Au 28.5065 20.487 26.5404
Au 29.938 22.7022 27.4632
Au 21.7009 8.35603 21.7474
Au 23.6827 10.4886 22.719
Au 25.603 12.6707 23.2966
Au 27.1679 14.8867 23.9741
Au 28.9736 16.7835 24.9232
Au 30.4934 19.0106 25.5741
Au 31.9585 21.1684 26.3693
Au 10.7659 16.7565 29.0199
Au 12.1191 18.9969 29.8279
Au 13.873 21.1016 30.482
Au 15.6893 23.4706 31.2423
Au 17.4976 25.4045 32.0052
Au 19.2133 27.346 32.6679
Au 12.8801 15.139 28.0009
Au 14.3932 17.4651 28.9382
Au 16.051 19.5339 29.6341
Au 17.9961 21.7848 30.4112
Au 19.6402 23.9573 31.1218
Au 21.3863 26.0545 32.0231
Au 14.9635 13.4924 27.1235
Au 16.5828 15.9327 27.9272
Au 18.3991 18.297 28.5705
Au 20.1411 20.2402 29.3099
Au 22.1049 22.1271 30.0033
Au 23.9102 24.3463 30.8488
Au 17.0283 12.1612 26.0137
Au 18.9264 14.0291 26.8676
Au 20.8035 16.6229 27.5641
Au 22.5744 18.7291 28.3563
Au 24.324 20.8107 29.2042
Au 26.2706 22.8265 30.1429
Au 19.3553 10.8261 25.1981
Au 21.2565 12.7583 25.9071
Au 23.0557 14.8754 26.7789
Au 24.8962 17.0507 27.8795
Au 26.4784 19.363 28.3065
Au 28.2166 21.4024 29.2023
Au 21.7729 9.45944 24.415
Au 23.6955 11.5676 25.1569
Au 25.3478 13.587 25.8931
Au 27.0683 15.6202 26.7757
Au 28.6394 17.6821 27.4727
Au 30.5289 19.8643 28.1363
Au 12.9105 16.6151 30.7801
Au 14.2853 18.5456 31.6281
Au 16.0504 20.8465 32.1205
Au 17.9643 22.7386 32.9805
Au 19.5673 24.8027 33.703
Au 14.9271 14.6773 29.7244
Au 16.5861 16.9386 30.4071
Au 18.1844 19.2757 31.3034
Au 20.1319 21.1996 32.0188
Au 21.8768 23.1951 32.6122
Au 17.1247 13.221 28.6246
Au 18.733 15.4132 29.5753
Au 20.608 17.6685 30.3044
Au 22.4809 19.7405 31.2695
Au 24.2989 21.7892 31.9706
Au 19.4873 11.7371 27.9741
Au 21.2918 13.9347 28.5119
Au 22.9768 15.9359 29.4063
Au 24.5946 18.1318 30.3312
Au 26.3507 20.1472 30.9709
Au 21.4986 10.407 27.0107
Au 23.4174 12.3337 27.8013
Au 25.1721 14.3954 28.6201
Au 26.962 16.4407 29.5311
Au 28.4777 18.7526 29.9613
Au 14.977 15.7432 32.485
Au 16.4365 18.1519 33.061
Au 18.1003 20.2211 33.9991
Au 20.1131 22.2479 34.5073
Au 17.0772 14.0848 31.5191
Au 18.6992 16.4809 32.0881
Au 20.4054 18.5524 33.0662
Au 22.2514 20.525 33.9301
Au 19.2255 12.6968 30.4405
Au 20.986 14.8907 31.0797
Au 22.6923 17.0022 32.1037
Au 24.6083 19.1312 33.0392
Au 21.4199 11.2328 29.7835
Au 23.1913 13.3028 30.4576
Au 24.773 15.5183 31.0975
Au 26.5621 17.51 32.0718
Au 17.1466 15.2535 33.9071
Au 18.3864 17.3839 34.6463
Au 20.2287 19.4866 35.4335
Au 19.2638 13.8178 33.1214
Au 20.6726 15.9822 33.9023
Au 22.5149 18.0316 34.7104
Au 21.4213 12.5057 32.2177
Au 22.9277 14.5054 33.1129
Au 24.6461 16.5918 33.8374
