58
 Atoms. Timestep: 50000
Au 24.0446 21.3833 17.0173
Au 21.1141 22.2245 25.2377
Au 16.8688 16.8405 19.5652
Au 20.4659 22.159 22.4835
Au 17.4331 21.4258 16.1103
Au 19.923 22.4807 15.7776
Au 19.3638 24.9802 21.7762
Au 18.2924 21.4452 20.8903
Au 22.051 19.377 22.9859
Au 18.7769 18.5492 19.9138
Au 19.2157 20.8543 18.1822
Au 22.4026 23.0944 15.7668
Au 22.614 16.5813 23.0013
Au 18.2072 23.7107 17.5599
Au 17.3859 23.955 20.1342
Au 17.6429 18.4453 24.2419
Au 20.0075 23.2308 19.8738
Au 15.6057 22.2729 21.0359
Au 19.0661 19.3498 15.8785
Au 18.874 17.2572 17.54
Au 18.6028 16.821 22.0376
Au 16.4678 17.9964 21.9012
Au 21.6455 22.0047 18.0892
Au 22.6701 22.6941 20.6482
Au 23.0273 22.2345 23.3944
Au 23.1674 20.5386 25.185
Au 20.8989 24.607 17.4253
Au 21.6562 25.2635 20.087
Au 21.6142 24.6357 22.6371
Au 19.3773 24.1252 24.1682
Au 20.4365 19.609 25.1195
Au 19.1701 19.62 22.5454
Au 21.1932 16.029 18.0047
Au 21.1618 17.6698 15.7838
Au 21.5278 20.4561 15.7063
Au 20.5144 15.0932 21.9904
Au 22.4188 18.0795 25.354
Au 16.6232 20.4825 22.8493
Au 16.1598 19.7742 20.1179
Au 17.1221 19.1966 17.7958
Au 16.552 21.9305 18.4975
Au 24.4589 18.5299 23.631
Au 23.9536 17.9412 21.1734
Au 24.2246 20.6453 21.7358
Au 24.8737 22.166 19.5204
Au 23.3375 23.9376 18.4056
Au 19.2753 15.7056 19.7079
Au 21.0855 20.4765 20.5663
Au 20.1151 17.273 24.0605
Au 21.3086 17.5313 20.8239
Au 19.2429 25.7117 18.9553
Au 18.57 21.4935 24.6231
Au 23.3156 18.9485 16.5644
Au 23.5098 19.6423 19.2792
Au 21.1172 18.8013 18.1834
Au 23.3343 17.047 18.4925
Au 22.3717 15.2957 20.1553
Au 17.4534 23.2851 22.722
