585
 Atoms. Timestep: 50000
Au 21.3734 15.363 32.2002
Au 21.1673 16.0562 29.6416
Au 21.0363 17.508 27.0239
Au 20.5781 18.3771 24.33
Au 20.6496 19.7386 21.4966
Au 20.1941 20.8143 18.819
Au 20.1028 22.1219 16.3494
Au 19.8796 23.425 13.7426
Au 19.4966 24.5269 11.3732
Au 19.5431 25.6391 8.91799
Au 18.8776 15.6649 31.2135
Au 18.6211 16.5713 28.6066
Au 18.303 17.9648 26.0366
Au 18.224 19.124 23.2553
Au 18.067 20.2779 20.5834
Au 17.6661 21.6102 18.0204
Au 17.5323 22.8444 15.3277
Au 17.0187 23.9657 12.6278
Au 17.0392 25.0952 10.1199
Au 20.766 17.9354 31.9846
Au 20.5554 18.7271 29.3425
Au 20.4156 20.0093 26.6444
Au 20.1646 21.2046 23.8261
Au 19.677 22.4631 21.3193
Au 19.5934 23.6358 18.6316
Au 19.1595 25.0772 16.0955
Au 18.9515 26.3157 13.4652
Au 18.7163 27.235 10.8392
Au 23.3757 17.1634 31.2315
Au 23.2981 18.0356 28.5034
Au 23.1777 19.1803 26.0688
Au 22.832 20.5133 23.3202
Au 22.3632 21.6645 20.736
Au 22.1471 22.8556 18.1107
Au 22.0095 24.097 15.5652
Au 21.7579 25.2371 12.6878
Au 21.5014 26.6857 10.4243
Au 23.4142 14.4988 30.2309
Au 23.2969 15.3884 27.4669
Au 22.8528 16.7669 24.9887
Au 22.5947 17.8316 22.3422
Au 22.4348 18.8835 19.4496
Au 22.2045 20.283 16.8879
Au 21.9566 21.4464 14.3284
Au 21.7275 22.5693 11.6325
Au 21.5076 23.9911 9.43109
Au 20.4856 13.4552 30.2657
Au 20.4813 14.5515 27.4755
Au 20.1812 15.7678 24.854
Au 19.8045 16.9009 22.2578
Au 19.488 18.0919 19.544
Au 19.4521 19.4124 16.7373
Au 19.0028 20.7715 14.1512
Au 18.7209 21.8862 11.5251
Au 18.5299 23.0933 9.11925
Au 16.5139 16.1863 30.2785
Au 16.3103 17.1818 27.5075
Au 15.998 18.6632 24.811
Au 15.693 19.7365 22.0892
Au 15.4433 20.9544 19.5382
Au 15.1774 22.1679 16.7676
Au 14.7131 23.3593 14.2138
Au 14.6179 24.445 11.8432
Au 18.1117 18.3103 30.9853
Au 18.0819 19.3369 28.5272
Au 17.8514 20.6755 25.8053
Au 17.2352 21.8963 23.1483
Au 16.9884 23.0016 20.285
Au 16.9756 24.3141 17.6881
Au 16.5492 25.439 14.8843
Au 16.1721 26.7272 12.1644
Au 19.9911 20.4795 31.4222
Au 19.6094 21.6267 29.0024
Au 19.366 22.8342 26.5188
Au 19.1261 23.8933 23.5863
Au 18.8561 25.0967 20.9181
Au 18.7993 26.3807 18.4745
Au 18.3842 27.7433 15.6085
Au 17.9597 28.7948 13.052
Au 22.6858 19.7461 30.9046
Au 22.2759 20.8084 28.3553
Au 22.1804 21.9362 25.7142
Au 21.8729 23.2599 23.0345
Au 21.6681 24.5444 20.3124
Au 21.4611 25.755 17.6828
Au 21.0477 26.8858 15.0722
Au 20.7739 27.9383 12.5363
Au 25.136 18.8257 30.3943
Au 24.9328 20.0616 27.8252
Au 25.0248 21.3206 25.1595
Au 24.5892 22.4221 22.3583
Au 24.2572 23.7601 19.7269
Au 24.1938 24.8428 17.2148
Au 23.7979 26.0392 14.5364
Au 23.5722 27.1562 12.257
Au 25.3194 16.1932 29.2401
Au 25.2589 17.3267 26.564
Au 24.8718 18.632 23.9442
Au 24.5143 19.6779 21.1535
Au 24.2041 21.0848 18.5865
Au 24.0185 22.2861 15.9485
Au 23.7724 23.4411 13.3353
Au 23.8331 24.5728 10.7316
Au 25.3405 13.477 28.0191
Au 25.0964 14.6808 25.455
Au 24.8452 15.9427 22.9137
Au 24.4654 16.9872 20.2596
Au 24.159 18.3919 17.4992
Au 24.0664 19.5352 14.7834
Au 23.8455 20.9358 12.2432
Au 23.3333 22.1085 9.55751
Au 22.6194 12.8732 27.9761
Au 22.3586 13.8363 25.3969
Au 21.8883 15.2413 22.789
Au 21.5345 16.1486 20.1768
Au 21.4644 17.5882 17.2691
Au 21.1961 18.5892 14.7153
Au 20.8083 19.8849 12.0658
Au 20.658 21.1415 9.51289
Au 19.8759 11.9139 27.7469
Au 19.7161 13.0482 25.4661
Au 19.2009 14.239 22.8491
Au 18.8581 15.4105 20.1297
Au 18.6256 16.6866 17.1247
Au 18.3397 18.1175 14.495
Au 17.8925 19.2906 11.8626
Au 17.8437 20.3039 9.20526
Au 18.1712 13.8175 29.0576
Au 17.9105 14.954 26.4993
Au 17.6665 16.3722 24.0639
Au 17.2973 17.5814 20.9471
Au 17.1021 18.8469 18.2869
Au 16.6928 20.2516 15.6642
Au 16.1559 21.3791 12.9131
Au 16.2349 22.5948 10.425
Au 13.8747 16.6516 28.7792
Au 13.7484 17.9072 26.3543
Au 13.2728 19.0545 23.6768
Au 12.9805 20.2692 21.1704
Au 12.8693 21.3964 18.5737
Au 12.4617 22.7119 16.0194
Au 12.229 23.8998 13.4689
Au 15.5134 18.8426 29.8913
Au 15.4003 20.0443 27.3655
Au 15.0764 21.0628 24.5773
Au 14.7267 22.3936 21.7922
Au 14.6584 23.5647 19.0393
Au 14.047 24.789 16.6624
Au 14.0348 26.1238 14.0598
Au 17.4452 21.1004 30.6343
Au 16.9957 22.0885 28.0618
Au 16.846 23.2633 25.3528
Au 16.4894 24.6937 22.6913
Au 16.2342 25.8036 19.9516
Au 15.8778 26.821 17.1359
Au 15.8662 28.1853 14.7386
Au 19.1071 23.2437 31.0215
Au 18.7292 24.4244 28.5201
Au 18.5485 25.5425 25.9092
Au 18.3077 26.859 23.2848
Au 18.1174 28.0576 20.4842
Au 17.7997 29.1016 18.0791
Au 17.8323 30.3409 15.4211
Au 21.7355 22.4853 30.7802
Au 21.5123 23.6067 28.2414
Au 21.3361 24.6357 25.4876
Au 20.945 25.8598 22.6366
Au 20.7625 27.2486 19.9218
Au 20.5099 28.4006 17.4204
Au 20.1817 29.5748 14.8011
Au 24.4496 21.7566 30.0038
Au 24.2604 22.78 27.5816
Au 24.0041 23.9071 25.0579
Au 23.7479 25.0607 22.1132
Au 23.4232 26.3496 19.5325
Au 23.2051 27.6989 16.8861
Au 22.9708 28.8558 14.3423
Au 27.0777 20.8558 29.2959
Au 26.8439 22.2028 26.9534
Au 26.6546 23.1827 24.2813
Au 26.503 24.3587 21.4638
Au 26.1508 25.709 18.9737
Au 25.956 26.8995 16.4643
Au 25.6984 27.9993 13.9887
Au 27.1114 18.2686 28.3641
Au 26.8951 19.3447 25.6495
Au 26.5887 20.6159 22.721
Au 26.3403 21.7585 20.2355
Au 26.2144 22.9879 17.5993
Au 25.8899 24.2887 15.0494
Au 25.7609 25.1722 12.5082
Au 27.1575 15.3512 27.215
Au 26.912 16.6853 24.5031
Au 26.6921 17.8572 21.7464
Au 26.2101 19.1299 19.0429
Au 26.062 20.3169 16.4922
Au 26.0965 21.6859 13.7403
Au 25.7435 22.9938 11.0924
Au 27.0805 12.6139 25.9216
Au 26.8004 13.9883 23.354
Au 26.4534 15.2921 20.6251
Au 26.2315 16.5063 18.0692
Au 26.03 17.6678 15.3988
Au 25.9361 18.8922 12.7228
Au 25.3325 20.1514 10.4057
Au 24.3481 12.0043 25.8412
Au 24.0584 13.156 23.2703
Au 23.6772 14.3879 20.7578
Au 23.4179 15.7078 18.0303
Au 23.282 16.7387 15.3331
Au 23.0181 18.2538 12.6598
Au 22.6986 19.6167 10.1116
Au 21.8192 11.0611 25.7538
Au 21.3456 12.4432 23.1293
Au 21.0326 13.5821 20.5476
Au 20.6497 14.8962 17.7985
Au 20.2756 16.042 15.1176
Au 19.8948 17.3896 12.5197
Au 19.8091 18.3486 9.88865
Au 18.8772 10.4513 25.5584
Au 18.633 11.5844 23.2657
Au 18.1614 12.7252 20.5753
Au 17.9364 13.8777 17.7182
Au 17.5731 15.2657 15.0083
Au 17.2196 16.3649 12.4261
Au 17.0832 17.6791 9.82204
Au 17.3321 12.3722 27.0264
Au 16.8419 13.5076 24.349
Au 16.5953 14.8219 21.7138
Au 16.5911 16.1863 18.6667
Au 15.8912 17.5688 16.1025
Au 15.6425 18.4741 13.5038
Au 15.4342 19.8813 10.9128
Au 15.5992 14.5876 28.0352
Au 15.2132 15.5575 25.4109
Au 14.9977 16.9164 22.6463
Au 14.5979 18.3724 19.9124
Au 14.3615 19.5401 17.1937
Au 14.1676 20.5499 14.5743
Au 13.6545 22.0346 11.9569
Au 11.2391 17.3269 27.9476
Au 11.0441 18.3268 25.2866
Au 10.5937 19.8209 22.7615
Au 10.374 20.7587 20.0903
Au 10.2026 21.9133 17.5408
Au 10.0191 23.3213 15.1463
Au 13.0047 19.4156 28.8627
Au 12.7877 20.5914 26.3018
Au 12.5212 21.8902 23.539
Au 11.9814 22.8841 20.7363
Au 11.7738 24.2342 18.2668
Au 11.4747 25.5128 15.5396
Au 14.6921 21.5895 29.5544
Au 14.4722 22.8994 26.9568
Au 14.3715 23.8975 24.2062
Au 13.9374 25.0737 21.409
Au 13.5886 26.3744 18.8624
Au 13.2842 27.5092 16.3361
Au 16.5362 23.8553 30.1837
Au 16.1484 25.0155 27.4844
Au 16.008 26.0696 24.7751
Au 15.7803 27.4071 22.1863
Au 15.4902 28.4981 19.4653
Au 15.3386 29.78 16.9713
Au 18.3022 26.031 30.6041
Au 18.0179 27.1346 28.2135
Au 17.6951 28.4727 25.7192
Au 17.4068 29.6256 23.1682
Au 17.2881 30.7449 20.6007
Au 17.048 31.7459 17.8751
Au 20.9268 25.3049 30.2628
Au 20.7749 26.4516 27.7644
Au 20.5195 27.3689 25.04
Au 20.168 28.6966 22.5032
Au 19.9237 30.0988 20.0004
Au 19.7065 31.1539 17.2452
Au 23.66 24.6149 29.8444
Au 23.4201 25.5552 27.4307
Au 23.1354 26.5454 24.6228
Au 22.8823 27.7992 22.0729
Au 22.6021 29.1602 19.26
Au 22.3806 30.2682 16.4186
Au 26.293 23.6422 29.2071
Au 26.1248 24.9068 26.7832
Au 25.7464 25.846 23.9562
Au 25.5038 27.1098 21.3479
Au 25.3631 28.4599 18.6657
Au 25.1636 29.6174 15.9779
Au 29.0015 22.6338 28.4976
Au 28.7719 23.9725 26.002
Au 28.6208 25.0935 23.3912
Au 28.2425 26.2821 20.6864
Au 28.1884 27.7521 18.0413
Au 27.8611 29.0514 15.4852
Au 28.9935 20.0718 27.4641
Au 28.7612 21.271 24.9718
Au 28.5156 22.5856 22.1867
Au 28.3039 23.8143 19.3224
Au 28.1687 25.0729 16.7612
Au 27.7123 26.2972 14.1793
Au 28.807 17.4847 26.3578
Au 28.7939 18.6806 23.5398
Au 28.4582 19.9554 20.8992
Au 28.2272 21.0948 18.3553
Au 28.062 22.2854 15.6394
Au 28.0573 23.6381 13.0871
Au 28.9631 14.8432 25.0003
Au 28.9107 16.213 22.5173
Au 28.3039 17.4101 19.7047
Au 28.026 18.5128 17.2344
Au 28.0496 19.5781 14.3692
Au 27.7203 21.1326 11.8153
Au 28.8555 12.148 23.8016
Au 28.5771 13.3503 21.1313
Au 28.4383 14.5678 18.5315
Au 27.963 15.8009 15.9668
Au 27.8944 17.0362 13.2251
Au 27.5809 18.1403 10.721
Au 26.2156 11.3409 23.8406
Au 25.7882 12.5068 21.245
Au 25.4486 13.8669 18.6196
Au 25.277 14.8517 15.8801
Au 25.1758 16.2392 13.1673
Au 24.535 17.3386 10.6833
Au 23.5177 10.4446 23.7195
Au 23.0912 11.6351 21.1509
Au 22.8672 12.9324 18.3211
Au 22.5022 14.0202 15.7644
Au 22.0644 15.4224 13.1625
Au 21.7493 16.6573 10.6792
Au 20.7323 9.89653 23.6902
Au 20.3246 10.82 21.0535
Au 19.9882 12.2486 18.3036
Au 19.5209 13.3363 15.5305
Au 19.481 14.4291 12.9173
Au 19.0646 15.5988 10.4113
Au 18.0111 8.86414 23.5371
Au 17.6896 10.0808 20.9353
Au 17.0273 11.1631 18.3496
Au 16.8301 12.3098 15.722
Au 16.627 13.7013 13.0512
Au 16.3283 14.8129 10.4319
Au 16.3191 10.7933 24.7217
Au 15.973 12.1445 22.1139
Au 15.6521 13.4922 19.4475
Au 15.3317 14.5031 16.7872
Au 14.8678 15.7944 14.0753
Au 14.7049 16.9952 11.3741
Au 14.4822 12.8478 25.7731
Au 14.2058 14.2032 23.1608
Au 14.3234 15.6102 20.2873
Au 13.8515 16.6455 17.8436
Au 13.1516 17.8764 15.1339
Au 13.1596 19.1291 12.6555
Au 12.9504 14.9942 26.7261
Au 12.5783 16.2278 24.3571
Au 12.6241 17.5939 21.589
Au 12.1193 18.7924 18.8986
Au 11.6813 19.9546 16.1298
Au 11.6319 21.2409 13.8286
Au 8.74139 17.5759 26.5689
Au 8.24673 19.1008 24.3384
Au 7.91251 20.3742 21.7435
Au 7.75455 21.3574 19.1984
Au 7.6985 22.6606 16.8406
Au 10.5452 19.8958 27.7516
Au 10.2124 21.0011 25.0934
Au 9.7479 22.5704 22.527
Au 9.53884 23.5069 19.8933
Au 9.33202 24.8003 17.2199
Au 12.145 22.28 28.3155
Au 11.7561 23.3405 25.7868
Au 11.6294 24.5788 23.1034
Au 11.5239 25.7444 20.5062
Au 11.1337 26.8503 17.9348
Au 13.9525 24.1772 29.2534
Au 13.7768 25.5755 26.421
Au 13.3591 26.5383 23.8274
Au 13.0858 27.9092 21.336
Au 12.8139 28.9103 18.5383
Au 15.7557 26.4601 29.7017
Au 15.3275 27.6999 27.1576
Au 15.0119 28.7505 24.6865
Au 14.8546 30.1133 21.8802
Au 14.5979 31.0493 19.2711
Au 17.3073 28.4675 30.2669
Au 16.9674 30.0215 28.0251
Au 16.8181 31.1772 25.4644
Au 16.4233 32.3373 22.6708
Au 16.2699 33.1676 20.0719
Au 19.9904 28.0094 30.0733
Au 19.8094 28.9779 27.3982
Au 19.6398 30.0969 24.7536
Au 19.3105 31.4813 22.2842
Au 19.0474 32.6751 19.6175
Au 22.7369 27.5564 29.3729
Au 22.5915 28.4184 26.8846
Au 22.2989 29.342 24.2213
Au 21.9495 30.515 21.6338
Au 21.998 31.8185 18.7877
Au 25.3916 26.6308 28.8857
Au 25.3751 27.5442 26.3793
Au 25.0284 28.4164 23.7531
Au 24.7315 29.8896 21.0504
Au 24.7546 31.177 18.3228
Au 28.2688 25.4994 28.413
Au 27.8991 26.6559 25.796
Au 27.6652 27.6698 23.0847
Au 27.5351 28.9676 20.5269
Au 27.1859 30.2035 17.916
Au 30.7583 24.8099 27.4222
Au 30.7305 25.8566 25.0203
Au 30.5539 27.0597 22.4478
Au 30.3076 28.3104 19.97
Au 30.0792 29.3524 17.6084
Au 30.9621 22.1343 26.4566
Au 30.7499 23.0991 23.6828
Au 30.463 24.4887 21.1424
Au 30.1639 25.7079 18.6303
Au 29.8748 27.0978 16.0208
Au 30.8137 19.5624 25.5056
Au 30.4092 20.5799 22.5873
Au 30.4047 21.8867 20.0159
Au 30.0641 23.062 17.3223
Au 29.8391 24.4425 14.7944
Au 30.9881 16.7908 24.3517
Au 30.6188 18.0386 21.4573
Au 30.3731 19.2733 19.0292
Au 30.0535 20.3742 16.3709
Au 29.7924 21.6822 13.708
Au 30.7041 14.3201 22.8542
Au 30.3435 15.4126 20.3106
Au 30.3106 16.7741 17.7117
Au 29.9284 17.7503 15.0723
Au 29.6106 19.0153 12.4071
Au 30.6534 11.6399 21.6999
Au 30.4671 12.6039 19.2443
Au 30.3783 14.1406 16.5671
Au 29.7615 14.8326 13.8373
Au 29.4166 16.1394 11.3354
Au 27.8901 10.7304 21.6619
Au 27.6791 11.7699 19.0497
Au 27.2416 13.0305 16.5055
Au 27.0135 14.2163 13.8673
Au 26.6662 15.4658 11.0752
Au 25.2021 9.79452 21.6796
Au 24.783 11.2101 18.9271
Au 24.5077 12.1845 16.2602
Au 24.2418 13.3998 13.6124
Au 23.8113 14.7265 11.26
Au 22.2888 8.99483 21.5427
Au 22.0366 10.3608 18.7705
Au 21.7531 11.3241 15.9822
Au 21.5663 12.6424 13.4283
Au 21.2513 13.7651 10.8406
Au 19.5848 8.06862 21.4035
Au 19.3273 9.59333 18.6637
Au 18.8947 10.7113 16.2059
Au 18.8379 11.7478 13.5743
Au 18.4314 12.8404 10.8444
Au 16.7674 7.45655 21.401
Au 16.4955 8.34948 18.7933
Au 16.0929 9.64837 16.2368
Au 16.0432 10.6738 13.4454
Au 15.8013 12.1444 11.0902
Au 15.2707 9.29681 22.6126
Au 15.0358 10.4915 19.9423
Au 14.6276 11.7554 17.1896
Au 14.3134 13.0937 14.5835
Au 14.0524 14.3044 11.8058
Au 13.849 11.6162 23.5525
Au 13.5351 12.7593 20.9489
Au 12.976 13.9834 18.411
Au 12.643 15.1085 15.7826
Au 12.3263 16.4602 12.9486
Au 12.028 13.4845 24.6163
Au 11.7409 14.7625 21.8329
Au 11.3718 16.0108 19.3739
Au 10.8787 17.0464 16.8786
Au 10.5733 18.097 14.0744
Au 10.2881 15.5203 25.8069
Au 10.2763 17.0046 22.9822
Au 9.74634 18.1543 20.5797
Au 9.55951 19.2986 17.8462
Au 9.07657 20.4941 15.1631
Au 8.11428 20.4433 26.7415
Au 7.7832 21.767 24.2896
Au 7.27919 23.2159 21.509
Au 7.16629 23.9845 19.0627
Au 9.6236 22.4703 27.3102
Au 9.30952 23.96 24.8627
Au 8.94633 25.3126 22.1441
Au 9.02603 26.2553 19.5329
Au 11.5476 25.0049 27.8124
Au 11.0093 26.2492 25.1921
Au 10.7514 27.3108 22.8251
Au 10.6913 28.3951 20.2316
Au 13.2699 26.8476 28.7318
Au 12.8381 28.0685 26.1725
Au 12.575 29.262 23.6282
Au 12.4066 30.6767 20.7605
Au 14.8044 29.2156 29.3506
Au 14.3826 30.2495 26.835
Au 14.2805 31.2741 24.2658
Au 14.15 32.5237 21.539
Au 19.0176 30.3675 29.5945
Au 19.2223 31.6115 26.9765
Au 19.0243 32.7614 24.5564
Au 18.4656 33.9648 21.8506
Au 22.0969 30.1768 28.9235
Au 21.8972 31.033 26.2794
Au 21.6252 31.9705 23.8229
Au 21.2848 33.1261 21.2843
Au 24.792 29.4471 28.3924
Au 24.598 30.2061 25.7668
Au 24.3973 31.1597 23.2412
Au 23.9308 32.216 20.545
Au 27.2913 28.1553 27.9913
Au 27.1102 29.3725 25.4802
Au 26.9682 30.383 22.8642
Au 26.7122 31.582 20.4304
Au 29.8251 27.4378 27.3073
Au 29.7964 28.5173 24.723
Au 29.55 29.7407 22.2094
Au 29.3742 30.8142 19.7582
Au 32.592 24.0732 25.0859
Au 32.393 25.1995 22.715
Au 32.2871 26.3852 20.2966
Au 32.0101 27.5527 17.8124
Au 32.6088 21.3397 24.4298
Au 32.4518 22.4702 21.6966
Au 32.2184 23.755 19.0142
Au 31.7607 25.0848 16.4783
Au 32.4673 19.0235 23.1366
Au 32.4389 19.83 20.6116
Au 32.3439 21.031 17.8755
Au 31.9036 22.3826 15.4648
Au 32.4484 16.2096 22.0208
Au 32.435 17.295 19.3457
Au 32.4446 18.7107 16.7184
Au 31.6368 19.5442 14.1709
Au 32.4203 13.945 20.7824
Au 32.1173 14.6588 18.5219
Au 31.934 15.9902 15.8063
Au 31.2922 17.1726 12.9634
Au 29.525 10.0724 19.2832
Au 29.1797 11.4226 16.9791
Au 29.1784 12.3289 14.4208
Au 28.4622 13.6387 11.9996
Au 26.6426 9.32631 19.3816
Au 26.5871 10.3429 17.0012
Au 26.2553 11.7284 14.0984
Au 25.8638 12.9804 11.6603
Au 23.8243 8.61928 19.4492
Au 23.7569 9.65885 16.739
Au 23.57 10.6703 13.9904
Au 23.361 11.6538 11.4748
Au 21.2998 7.60506 19.2834
Au 20.8833 8.68206 16.5983
Au 20.8518 9.89059 13.8441
Au 20.5358 11.1827 11.3153
Au 18.728 6.9258 19.2847
Au 18.3522 7.90056 16.7447
Au 18.1643 9.16451 14.0935
Au 18.0756 10.2025 11.5513
Au 14.089 8.15962 20.3285
Au 13.9029 9.17136 17.9085
Au 13.8244 10.3675 14.9073
Au 13.6332 11.7008 12.512
Au 12.7774 10.0317 21.559
Au 12.3671 11.1939 18.9817
Au 12.1578 12.4851 16.1756
Au 11.8536 13.7014 13.6528
Au 11.2517 12.2624 22.5682
Au 10.7102 13.3128 19.7677
Au 10.1719 14.3934 17.3784
Au 10.0791 15.4856 14.8467
Au 9.65516 14.266 23.4992
Au 9.24366 15.4706 20.9781
Au 8.79185 16.3027 18.3749
Au 8.37232 17.7716 15.9725
Au 8.00111 16.3921 24.2613
Au 7.57548 17.705 22.1723
Au 7.52677 18.5472 19.4927
Au 7.13708 19.9335 16.8796
