586
 Atoms. Timestep: 50000
Au 7.97451 23.8008 23.2139
Au 9.48979 25.9662 23.9395
Au 11.0853 28.0342 24.5522
Au 12.9683 29.9804 25.5642
Au 8.18716 20.2308 21.4304
Au 9.78425 22.1409 22.3538
Au 11.3745 24.495 23.0188
Au 13.1532 26.62 23.9714
Au 15.0542 28.6523 24.6671
Au 16.8525 30.8671 25.6395
Au 8.70787 16.8554 19.9699
Au 10.4108 18.678 20.9
Au 12.1491 21.0086 21.288
Au 13.8624 23.1398 22.2958
Au 15.4415 25.3365 22.9588
Au 17.3925 27.3843 23.8723
Au 19.068 29.5496 24.432
Au 20.5905 31.3235 25.7059
Au 9.51612 13.2076 18.2189
Au 10.9467 15.1788 19.1003
Au 12.7101 17.3678 19.8305
Au 14.4661 19.3626 20.5346
Au 16.1824 21.7317 21.2312
Au 17.9177 23.9493 21.962
Au 19.6825 25.9232 22.9238
Au 21.3602 27.9644 23.5748
Au 22.9593 30.111 24.4352
Au 24.609 31.9781 25.2951
Au 11.4815 11.5614 17.2411
Au 13.12 13.4778 18.0121
Au 14.7868 15.575 19.0075
Au 16.5164 17.656 19.619
Au 18.3801 19.9496 20.1693
Au 20.1803 22.3588 21.087
Au 21.9267 24.5054 21.9196
Au 23.6214 26.554 22.669
Au 25.3351 28.7084 23.7978
Au 26.8647 30.7562 24.0998
Au 13.4408 10.2521 16.4032
Au 15.3358 12.1015 17.3354
Au 17.0289 14.438 18.0005
Au 18.7796 16.398 18.7072
Au 20.6687 18.6447 19.4061
Au 22.4066 20.7775 20.1373
Au 24.1708 22.9297 21.1097
Au 25.7341 25.1636 21.8985
Au 27.4993 27.2581 22.7614
Au 29.3925 29.103 23.3379
Au 15.805 8.95384 15.5586
Au 17.5312 10.5944 16.3912
Au 19.3015 12.7191 17.0626
Au 21.0212 14.8209 17.8393
Au 22.7504 17.0136 18.5729
Au 24.7481 18.992 19.4374
Au 26.4584 21.2428 20.1688
Au 28.003 23.4553 20.9501
Au 29.6668 25.4358 21.7823
Au 31.4517 27.2703 22.332
Au 19.8631 8.96909 15.6287
Au 21.6194 11.2065 16.1155
Au 23.4269 13.5544 17.0495
Au 25.1437 15.6154 17.5918
Au 27.109 17.7553 18.4244
Au 28.7162 19.9641 19.1811
Au 30.567 22.0236 20.2232
Au 32.085 23.9952 20.9779
Au 23.836 9.88286 15.2285
Au 25.7327 12.0399 16.1666
Au 27.5326 14.3232 16.7617
Au 29.2966 16.1951 17.4808
Au 31.046 18.3814 18.2563
Au 32.5326 20.5036 19.1103
Au 27.8269 10.6216 15.1523
Au 29.7573 12.7478 16.0865
Au 31.609 14.8779 16.7374
Au 33.0943 17.1518 17.3355
Au 8.15209 22.8597 20.4501
Au 9.29489 25.1196 21.2795
Au 11.1133 27.113 21.9493
Au 12.8382 29.2732 22.8592
Au 14.6786 31.3311 23.9414
Au 8.13277 19.3228 18.8235
Au 9.98752 20.9872 19.5417
Au 11.3539 23.6052 20.3325
Au 13.2109 25.8107 21.2768
Au 15.1203 27.8715 21.981
Au 16.8321 29.864 22.8485
Au 18.6269 32.1518 23.6898
Au 8.95668 15.7454 17.2092
Au 10.2383 17.9824 17.9599
Au 12.3222 19.87 18.6628
Au 13.823 22.0847 19.4821
Au 15.43 24.2964 20.2631
Au 17.315 26.5468 20.9849
Au 19.1229 28.5366 21.8018
Au 21.0731 30.5804 22.7426
Au 22.4079 32.5595 23.864
Au 11.0476 14.1565 16.1946
Au 12.6645 16.4458 17.0951
Au 14.5585 18.5043 17.8682
Au 16.2519 20.5535 18.5965
Au 17.9767 22.7393 19.3964
Au 19.6691 24.9237 20.1444
Au 21.4612 27.0794 20.855
Au 23.2576 29.1933 21.5448
Au 24.6889 31.4065 22.5273
Au 13.0497 12.7537 15.1413
Au 14.8052 14.8645 16.1915
Au 16.5142 16.9438 16.7672
Au 18.3379 19.0621 17.5445
Au 20.0764 21.2634 18.4447
Au 22.2904 23.3799 19.4142
Au 23.7993 25.7275 19.8808
Au 25.4797 27.711 20.9891
Au 27.3181 29.8019 21.626
Au 15.2681 11.2294 14.3687
Au 16.8875 13.2323 15.282
Au 18.8317 15.3033 15.9929
Au 20.5274 17.4825 16.6278
Au 22.5108 19.7122 17.6025
Au 24.3663 21.6742 18.356
Au 25.9133 23.962 19.3335
Au 27.7524 26.2625 20.0232
Au 29.4474 28.2359 20.7465
Au 17.8732 9.45336 13.8799
Au 19.4521 11.7876 14.5966
Au 21.247 13.9275 15.1723
Au 22.9497 16.1192 15.9012
Au 24.871 18.2583 16.747
Au 26.585 20.3045 17.5064
Au 28.1434 22.4536 18.3665
Au 30.0663 24.4975 19.0277
Au 31.4763 26.6166 19.767
Au 21.6877 10.1348 13.4813
Au 23.4201 12.3952 14.3754
Au 25.2688 14.5758 14.9762
Au 27.0712 16.6087 15.6013
Au 29.0844 18.9113 16.5304
Au 30.5368 21.1705 17.3537
Au 32.3426 23.1832 18.3573
Au 25.7722 11.0967 13.762
Au 27.5386 13.2646 14.244
Au 29.5054 15.2495 14.8637
Au 31.0364 17.4948 15.575
Au 32.5821 19.5752 16.4535
Au 7.97419 21.8743 17.7498
Au 9.50769 24.2102 18.4455
Au 11.3369 26.3176 19.3159
Au 12.9642 28.3941 20.1757
Au 14.5104 30.556 20.9828
Au 16.3027 32.2855 21.9348
Au 8.35231 18.5106 16.2308
Au 10.0775 20.505 16.8072
Au 11.7116 22.5309 17.6673
Au 13.31 24.7679 18.5005
Au 15.1033 26.8029 19.2973
Au 16.9335 29.2332 20.2645
Au 18.6724 31.1749 21.0956
Au 20.2606 33.0534 21.6134
Au 10.3689 16.8041 15.1662
Au 12.3364 18.9839 15.9344
Au 13.9622 21.1672 16.6565
Au 15.6233 23.2362 17.7363
Au 17.5497 25.3513 18.5407
Au 19.3788 27.6083 19.2253
Au 21.029 29.8515 20.0268
Au 22.7589 31.9511 20.6846
Au 12.5368 15.3433 14.4245
Au 14.2894 17.3712 15.0614
Au 16.3093 19.6235 15.8486
Au 17.9969 21.7371 16.6894
Au 19.9152 23.9253 17.3463
Au 21.5707 26.2578 18.3344
Au 23.4035 28.4596 19.0153
Au 25.0615 30.4945 19.8539
Au 14.8168 13.7172 13.3235
Au 16.5411 15.8086 14.2362
Au 18.3808 17.8189 14.9456
Au 20.2053 20.0558 15.7816
Au 22.0782 22.385 16.7233
Au 23.972 24.5004 17.4212
Au 25.6443 27.1195 18.1367
Au 27.3042 28.8389 19.0761
Au 17.1768 12.0535 12.7815
Au 18.7695 14.3227 13.2758
Au 20.791 16.3127 14.1534
Au 22.7249 18.6879 14.9054
Au 24.2386 20.9923 15.6148
Au 26.0071 22.9137 16.5477
Au 27.8211 25.1148 17.4971
Au 29.4066 27.3466 18.0929
Au 19.5179 10.8933 11.9624
Au 21.1614 12.7721 12.5602
Au 23.0131 14.9406 13.1093
Au 24.8445 17.2319 14.0832
Au 26.7584 19.2557 14.8683
Au 28.2399 21.4456 15.5459
Au 30.1496 23.6606 16.3999
Au 31.5642 25.5398 17.1471
Au 23.4709 11.4902 11.7344
Au 25.1756 13.3807 12.0267
Au 27.0179 15.5093 13.0283
Au 28.9028 17.8544 13.8689
Au 30.6008 20.26 14.6281
Au 32.2689 22.3931 15.5153
Au 8.23586 21.0742 15.1752
Au 9.69559 23.3239 15.9019
Au 11.233 25.2759 16.6403
Au 12.9606 27.4773 17.6298
Au 14.87 29.4204 18.2777
Au 16.2522 31.5781 19.2605
Au 18.0334 33.6263 20.3422
Au 9.96974 19.4295 14.0858
Au 11.8282 21.7874 14.6687
Au 13.426 23.9277 15.7615
Au 15.2742 25.9314 16.465
Au 17.0609 27.936 17.5216
Au 18.6682 30.1491 18.1858
Au 20.2944 32.3111 19.0744
Au 12.2663 17.977 13.3521
Au 14.0793 20.065 13.96
Au 15.6878 22.1052 14.8718
Au 17.5976 24.4302 15.8977
Au 19.3974 26.5273 16.4574
Au 20.9921 28.8784 17.3348
Au 22.7945 31.0493 18.1443
Au 14.4269 16.2932 12.4121
Au 16.1243 18.4787 13.1971
Au 18.0277 20.6528 13.9469
Au 19.9997 22.8174 15.0054
Au 21.8281 25.1394 15.615
Au 23.4063 27.4048 16.474
Au 25.1502 29.7193 17.2056
Au 16.7563 14.8873 11.6054
Au 18.3541 17.049 12.2652
Au 20.2135 18.9394 13.2713
Au 22.1539 21.2452 14.15
Au 23.8208 23.5095 14.7211
Au 25.7692 25.7379 15.5744
Au 27.3295 28.0348 16.2896
Au 18.8805 13.2392 10.7534
Au 20.7804 15.4982 11.5128
Au 22.6775 17.5529 12.1369
Au 24.5043 19.7541 13.0519
Au 26.3176 21.9255 13.6595
Au 27.8571 24.1283 14.6561
Au 29.5161 26.2628 15.436
Au 21.3128 11.9856 10.1755
Au 22.9643 13.9705 10.6238
Au 25.0257 16.0916 11.4177
Au 26.7814 18.3689 12.2225
Au 28.459 20.372 12.8231
Au 30.0621 22.7584 13.684
Au 31.6529 24.7137 14.5543
Au 9.68394 22.0933 13.0777
Au 10.968 24.5401 13.9253
Au 13.1641 26.5622 14.8879
Au 14.6852 28.8087 15.5575
Au 16.6026 30.5626 16.5853
Au 18.1191 32.7347 17.4832
Au 11.7761 20.4117 12.2087
Au 13.5786 22.9131 13.1353
Au 15.4582 24.8999 13.9262
Au 17.0216 27.034 14.8248
Au 19.0553 29.1558 15.4882
Au 20.6454 31.3189 16.4965
Au 14.1511 19.0463 11.3504
Au 15.8271 21.1388 12.1538
Au 17.5992 23.34 13.209
Au 19.4949 25.2656 13.9368
Au 21.2222 27.7267 14.5165
Au 22.8573 29.8864 15.387
Au 16.2158 17.3629 10.5166
Au 18.0438 19.6567 11.4789
Au 19.9739 21.7834 12.3361
Au 21.5726 24.1481 12.9059
Au 23.4598 26.3016 13.7607
Au 25.1345 28.2674 14.5938
Au 18.7698 15.8869 9.56835
Au 20.3768 18.1417 10.613
Au 22.2339 20.3008 11.5595
Au 23.8759 22.458 12.1112
Au 25.8988 24.6865 12.9953
Au 27.4177 27.0207 13.7368
Au 20.9713 14.5276 9.06999
Au 22.808 16.5652 9.63573
Au 24.6754 18.8308 10.5924
Au 26.2186 21.0279 11.2237
Au 27.9842 23.2762 11.6951
Au 29.5474 25.3119 12.8177
Au 11.3924 23.2468 11.5234
Au 13.2348 25.2927 12.1049
Au 14.7729 27.6125 13.2177
Au 16.5868 29.813 13.9409
Au 18.4641 31.6071 14.93
Au 13.5068 21.7292 10.717
Au 15.5667 23.878 11.3335
Au 17.4626 25.9461 12.192
Au 18.8622 28.1198 12.9403
Au 20.7907 30.3593 13.7161
Au 15.8226 20.0166 9.58237
Au 17.7665 22.4574 10.4859
Au 19.5073 24.5692 11.1762
Au 21.0531 26.6665 12.053
Au 23.0261 28.7945 12.6813
Au 18.0331 18.3651 8.87268
Au 19.8235 20.7714 9.74031
Au 21.7458 22.8539 10.3632
Au 23.4422 25.0421 11.2174
Au 25.1889 27.3386 11.7922
Au 20.4568 17.1183 8.08779
Au 22.2081 19.3081 9.09528
Au 24.1357 21.1984 9.4512
Au 25.6631 23.6415 10.5054
Au 27.4156 25.8416 11.2625
Au 13.5135 24.2395 9.70277
Au 15.063 26.4364 10.7864
Au 16.8341 28.7798 11.5403
Au 18.6175 30.6135 12.3065
Au 15.6968 22.6565 8.75531
Au 17.2217 24.9095 9.53431
Au 18.9425 27.1298 10.2895
Au 20.6887 29.2612 11.2409
Au 17.7101 20.9872 8.08276
Au 19.5547 23.2725 8.43283
Au 21.3771 25.3994 9.41068
Au 22.7035 27.5557 9.98704
Au 20.109 19.7464 7.42677
Au 21.8763 21.8227 8.0369
Au 23.5225 24.0197 8.59072
Au 25.1373 26.1875 9.53571
Au 8.17462 21.1323 24.2394
Au 9.82154 23.3577 25.0268
Au 11.445 25.3606 25.7957
Au 13.1629 27.4836 26.6615
Au 14.907 29.5272 27.2853
Au 8.54866 17.7387 22.7968
Au 10.4246 19.7297 23.5445
Au 12.0072 21.9565 24.0839
Au 13.6225 23.9833 24.9581
Au 15.3328 26.0308 25.6875
Au 17.2215 28.2365 26.3987
Au 18.9898 30.3107 27.3684
Au 9.29303 14.2834 21.0007
Au 10.7908 16.159 21.7906
Au 12.6401 18.2506 22.4938
Au 14.3212 20.6525 23.2343
Au 16.0825 22.7717 24.1208
Au 17.7597 24.8896 24.7278
Au 19.6521 26.8415 25.5877
Au 21.4137 28.8087 26.3158
Au 22.9982 30.9766 27.0068
Au 11.4035 12.519 20.0776
Au 13.0121 14.7025 20.8552
Au 14.7562 16.7058 21.6513
Au 16.5707 18.9108 22.2793
Au 18.2359 21.2091 22.9152
Au 20.0081 23.3578 23.788
Au 21.9837 25.4253 24.7865
Au 23.6952 27.5064 25.7114
Au 25.3487 29.5938 26.3316
Au 13.4722 10.9794 19.0465
Au 15.2137 13.0186 20.1294
Au 17.1061 15.1363 20.8931
Au 18.9421 17.3919 21.3669
Au 20.4843 19.5325 22.1966
Au 22.4 21.7675 22.8463
Au 24.0974 23.9601 23.8418
Au 25.9417 26.1671 24.6237
Au 27.5303 28.1952 25.3996
Au 15.6523 9.47963 18.2359
Au 17.4597 11.6578 19.1624
Au 19.2241 13.9599 19.919
Au 21.2414 15.9803 20.4785
Au 22.9252 17.9573 21.2931
Au 24.6051 20.1646 22.001
Au 26.1244 22.3999 22.8618
Au 28.0702 24.4536 23.769
Au 29.8855 26.543 24.4426
Au 17.969 8.16575 17.4146
Au 19.807 10.1812 18.1359
Au 21.5579 12.3109 18.8504
Au 23.475 14.3588 19.7221
Au 25.3384 16.4639 20.3824
Au 26.8769 18.5533 21.1618
Au 28.5068 20.8207 22.0906
Au 30.3286 22.8189 22.7472
Au 31.7979 24.8535 23.5745
Au 22.2279 8.7656 17.1534
Au 23.8558 10.6944 18.1153
Au 25.8791 13.0279 18.7922
Au 27.5382 15.1208 19.3987
Au 29.1045 17.1127 20.3272
Au 30.9337 19.322 21.0054
Au 32.6622 21.3336 21.8862
Au 26.1728 9.48115 16.8459
Au 27.9413 11.5405 17.7918
Au 29.7042 13.6936 18.7172
Au 31.4279 15.7559 19.2595
Au 32.9762 17.9319 20.1143
Au 8.52012 18.6611 25.5816
Au 10.1746 20.7471 26.2214
Au 11.8781 22.7878 26.9599
Au 13.576 25.1179 27.7055
Au 15.4977 27.1312 28.3209
Au 17.3329 29.137 29.0604
Au 9.16555 15.0088 23.7991
Au 10.6641 17.2245 24.4432
Au 12.4233 19.2626 25.4393
Au 14.1394 21.3677 25.9987
Au 15.9331 23.5482 26.7624
Au 17.6203 25.7433 27.4567
Au 19.4349 27.6317 28.1947
Au 21.3102 29.7445 28.9129
Au 11.3674 13.5408 22.7366
Au 12.9522 15.7075 23.7509
Au 14.6474 17.7632 24.3509
Au 16.5132 20.0193 25.0299
Au 18.2272 22.1158 25.7355
Au 20.001 24.3017 26.5758
Au 21.9504 26.3446 27.6693
Au 23.6565 28.3242 28.2095
Au 13.4466 11.7936 22.1171
Au 15.0926 14.0143 22.6616
Au 17.0254 16.3123 23.3976
Au 18.7899 18.4546 24.2548
Au 20.5586 20.6365 24.8115
Au 22.2738 22.9268 25.6714
Au 24.3353 24.9084 26.553
Au 25.8566 26.9481 27.512
Au 15.6213 10.511 20.9024
Au 17.3222 12.4585 21.792
Au 19.3537 14.8361 22.3845
Au 21.131 16.9293 23.3633
Au 22.8032 19.0172 23.9578
Au 24.4704 21.3284 24.6809
Au 26.3224 23.2796 25.6584
Au 27.9351 25.4593 26.3087
Au 17.8511 9.19518 19.9381
Au 19.7921 11.3628 20.6789
Au 21.6863 13.1729 21.5455
Au 23.4818 15.3993 22.3539
Au 25.2208 17.5988 23.1117
Au 26.7951 19.6945 23.9349
Au 28.5575 21.7026 24.8297
Au 30.2203 23.8408 25.6103
Au 20.0241 7.78515 19.2989
Au 21.9927 9.77592 19.8928
Au 23.9044 11.7499 20.5301
Au 25.7027 13.8475 21.3721
Au 27.4691 15.9407 22.2924
Au 29.0347 18.1341 23.0211
Au 30.8428 20.1614 23.6791
Au 32.1815 22.3574 24.5378
Au 24.3977 8.53483 19.2588
Au 26.2518 10.4171 19.6057
Au 28.0381 12.4655 20.4987
Au 29.7747 14.4132 21.4377
Au 31.0185 16.7345 21.9618
Au 33.0706 18.8635 22.9279
Au 9.13067 16.0935 26.4622
Au 10.668 18.0482 27.3023
Au 12.1997 20.3204 27.9235
Au 14.0874 22.5287 28.5992
Au 15.884 24.5386 29.456
Au 17.6054 26.6618 30.2305
Au 19.4899 28.7208 30.614
Au 11.1117 14.4203 25.5935
Au 12.929 16.4494 26.2297
Au 14.4616 18.8298 27.0639
Au 16.2698 20.9646 27.8114
Au 18.0464 23.1593 28.5924
Au 20.056 25.1806 29.4168
Au 21.6403 27.3218 30.1704
Au 13.3628 12.9354 24.5546
Au 15.1814 15.1371 25.2606
Au 16.7875 17.4971 26.1602
Au 18.6341 19.5975 26.8236
Au 20.3922 21.8785 27.4527
Au 22.4729 23.8266 28.5866
Au 24.3499 25.696 29.379
Au 15.5634 11.5272 23.6694
Au 17.471 13.7116 24.3389
Au 19.2417 16.0438 25.0611
Au 21.0275 18.1723 25.9355
Au 22.9386 20.1486 26.6613
Au 24.6797 22.2092 27.7293
Au 26.4183 24.2041 28.4573
Au 18.0177 10.0621 22.5451
Au 19.7607 12.0617 23.3836
Au 21.4221 14.0248 24.1836
Au 23.3685 16.5024 25.0995
Au 25.1233 18.2927 25.8578
Au 26.813 20.5465 26.701
Au 28.4288 22.5862 27.3927
Au 20.1557 8.62843 21.9086
Au 22.1253 10.6551 22.6125
Au 23.8899 12.8684 23.5131
Au 25.6602 14.9235 24.2141
Au 27.3075 17.0464 24.9551
Au 28.9429 19.1906 25.7567
Au 30.7509 21.1766 26.5172
Au 22.3196 7.65838 20.861
Au 24.4677 9.38706 21.904
Au 26.0763 11.3563 22.4613
Au 27.9063 13.326 23.2152
Au 29.4313 15.5434 24.106
Au 31.3204 17.6914 24.7039
Au 32.7491 19.8583 25.3765
Au 11.2367 15.4777 28.1788
Au 12.8748 17.6718 28.8436
Au 14.4968 19.7267 29.8365
Au 16.3146 22.0742 30.3906
Au 18.2145 24.0147 31.3054
Au 19.98 26.2599 31.9005
Au 13.5591 13.9991 27.3285
Au 15.1055 16.1026 27.9493
Au 16.7393 18.3834 28.8536
Au 18.6673 20.7107 29.4175
Au 20.642 22.6708 30.4286
Au 22.2884 24.8175 31.075
Au 15.7816 12.6109 26.0461
Au 17.3337 14.7053 26.8989
Au 19.1465 16.8811 27.5002
Au 20.9704 18.9928 28.5333
Au 22.7866 21.2095 29.4305
Au 24.6015 23.1771 30.336
Au 17.8533 10.9495 25.2086
Au 19.586 13.1495 26.1297
Au 21.4617 15.426 26.6608
Au 23.1534 17.4437 27.6209
Au 24.9282 19.4559 28.7657
Au 26.6905 21.7169 29.4266
Au 20.0959 9.48535 24.4099
Au 21.8918 11.5249 25.2962
Au 23.8988 13.7998 25.9543
Au 25.7021 15.6326 26.8156
Au 27.1673 17.9211 27.7658
Au 28.8764 20.2155 28.4314
Au 22.4886 8.32753 23.5416
Au 24.2895 10.2534 24.3753
Au 26.1197 12.2841 25.0726
Au 27.9184 14.272 26.0619
Au 29.4627 16.545 26.5869
Au 31.0083 18.5745 27.3582
Au 13.5161 14.9528 29.7516
Au 14.8888 17.1846 30.6721
Au 16.882 19.5859 31.337
Au 18.5768 21.5887 32.2014
Au 20.2373 23.5749 32.9404
Au 15.6755 13.4998 28.9149
Au 17.454 15.7328 29.5961
Au 19.1636 17.9829 30.2377
Au 20.8966 19.9704 31.2587
Au 22.8459 21.9509 32.1727
Au 18.0318 12.2677 28.0779
Au 19.7041 14.3467 28.8356
Au 21.3124 16.3742 29.6374
Au 23.163 18.5171 30.3874
Au 24.8983 20.402 31.1839
Au 19.895 10.6197 27.0878
Au 21.9086 12.9595 27.7136
Au 23.5186 14.8236 28.7249
Au 25.4828 16.8076 29.3364
Au 27.1439 18.7807 30.5732
Au 22.4678 9.13979 26.1379
Au 24.2008 11.2582 26.9559
Au 25.9923 13.1245 27.8196
Au 27.9659 15.2744 28.4824
Au 29.3512 17.4295 29.254
Au 15.8337 14.5099 31.4598
Au 17.2448 16.7482 32.0629
Au 19.084 18.8955 32.8625
Au 20.9978 20.932 33.6317
Au 18.0401 13.3789 30.7434
Au 19.4934 15.4277 31.4552
Au 21.4447 17.1453 32.2537
Au 22.8192 19.3528 33.0051
Au 20.0363 11.661 29.5476
Au 21.5639 13.7978 30.7226
Au 23.555 15.8804 31.3113
Au 25.3122 17.7209 32.0923
Au 22.1624 10.5156 28.6243
Au 23.9242 12.4956 29.6465
Au 25.7547 14.2714 30.3487
Au 27.4291 16.3449 30.7895
