600
 Atoms. Timestep: 50000
Au 7.82904 22.0231 22.588
Au 9.66631 24.3705 23.1613
Au 11.3249 26.4042 23.6216
Au 12.9001 28.6383 24.6735
Au 14.7564 30.7598 25.3157
Au 16.6958 32.665 26.2424
Au 8.52507 18.566 20.5236
Au 10.1092 20.7453 21.4233
Au 11.7753 22.93 22.0623
Au 13.4627 24.9999 22.819
Au 15.0073 27.1133 23.8363
Au 16.9823 29.1025 24.5193
Au 18.8279 31.1712 25.0879
Au 20.7283 33.1774 25.8221
Au 8.94503 15.1852 18.5889
Au 10.6268 17.1069 19.5924
Au 12.4083 19.082 20.4512
Au 13.9172 21.2626 21.2667
Au 15.7464 23.6365 22.0508
Au 17.574 25.5362 22.8231
Au 19.2656 27.618 23.4157
Au 21.2412 29.8283 24.2429
Au 22.8979 32.1724 24.991
Au 11.4661 13.5106 17.7632
Au 13.0011 15.5622 19.0189
Au 14.6652 17.463 19.6272
Au 16.1731 19.7527 20.4039
Au 18.0735 21.932 21.1194
Au 19.9588 24.1701 21.9186
Au 21.5678 26.3533 22.6846
Au 23.3434 28.3485 23.3537
Au 24.9925 30.5713 24.2853
Au 13.5459 11.8979 16.965
Au 15.1786 14.1589 18.0499
Au 16.9891 16.0192 18.806
Au 18.6427 18.2223 19.4625
Au 20.3917 20.3664 20.1929
Au 22.1085 22.595 20.9907
Au 23.7799 24.6367 21.8759
Au 25.5781 27.0264 22.5867
Au 27.3693 29.1341 23.0963
Au 15.6337 10.1888 16.3001
Au 17.3696 12.3132 17.1972
Au 19.0391 14.5345 17.848
Au 20.9185 16.6196 18.5263
Au 22.8008 18.9533 19.271
Au 24.2897 21.253 20.1831
Au 26.2222 23.1081 20.859
Au 27.8036 25.4831 21.3735
Au 29.5792 27.7704 22.0405
Au 18.0157 8.71083 15.2806
Au 19.3206 10.8596 16.193
Au 21.252 13.1481 16.7781
Au 23.3794 15.0936 17.4305
Au 24.8901 17.1079 18.3991
Au 26.5036 19.5554 19.1225
Au 28.2955 21.5232 19.7667
Au 29.9342 23.6826 20.5681
Au 31.3095 25.5094 21.7719
Au 20.2969 7.68809 14.4858
Au 21.6927 9.75824 15.4291
Au 23.7176 11.8391 15.8333
Au 25.6053 13.6093 16.7408
Au 27.292 15.6258 17.5803
Au 29.0562 18.0527 18.3168
Au 30.6268 20.3606 18.9785
Au 32.2923 22.3795 19.958
Au 23.8085 8.3321 14.3874
Au 25.7899 10.2261 14.9675
Au 27.8315 12.2166 15.6538
Au 29.3992 14.3561 16.5837
Au 31.1282 16.4558 17.3526
Au 32.4604 18.5858 18.0591
Au 8.09146 21.189 19.8152
Au 9.5552 23.3602 20.4816
Au 11.3683 25.3225 21.0362
Au 13.1271 27.7305 21.9519
Au 14.7807 29.7894 22.8316
Au 16.6761 31.7887 23.5037
Au 18.4951 33.6577 24.4142
Au 8.60434 17.7403 17.7434
Au 10.2646 19.7797 18.723
Au 11.8297 21.9727 19.4753
Au 13.5344 23.9072 20.2236
Au 14.9892 26.1808 20.8718
Au 16.9124 28.086 21.9754
Au 18.7808 30.258 22.4999
Au 20.6117 32.2774 23.1901
Au 9.35867 13.8335 16.219
Au 10.7999 16.0679 16.8929
Au 12.513 18.1836 17.8645
Au 14.2161 20.3464 18.6246
Au 15.9744 22.3722 19.4814
Au 17.5899 24.6197 20.1105
Au 19.2806 26.7678 20.7477
Au 21.1431 28.8395 21.5216
Au 23.0431 30.9611 22.3502
Au 11.6378 12.6482 15.0407
Au 13.0685 14.5827 15.9455
Au 14.6926 16.6693 16.6676
Au 16.385 18.5884 17.6812
Au 18.1784 20.9994 18.3222
Au 19.8548 23.1491 19.1218
Au 21.6111 25.3682 19.923
Au 23.4075 27.3804 20.714
Au 25.1806 29.5639 21.5908
Au 13.7203 10.8887 14.5293
Au 15.2718 13.2162 15.2076
Au 17.101 15.3428 16.1444
Au 18.8892 17.3392 16.8496
Au 20.5408 19.455 17.4792
Au 22.1834 21.5462 18.2717
Au 23.7904 23.8096 19.1628
Au 25.5865 25.9235 19.896
Au 27.3151 27.9897 20.5262
Au 15.8908 9.23035 13.438
Au 17.2216 11.3423 14.3577
Au 19.0922 13.5733 14.8793
Au 21.0029 15.7264 15.8511
Au 22.6892 17.8549 16.4971
Au 24.4517 20.0592 17.3438
Au 26.0263 22.1322 18.0796
Au 27.9966 24.4494 18.8369
Au 29.7418 26.4254 19.6849
Au 18.2466 8.19466 12.613
Au 19.6379 10.361 13.3765
Au 21.4759 12.2245 14.2027
Au 23.1528 14.2735 14.8271
Au 25.1427 16.2692 15.6575
Au 26.6409 18.5052 16.3215
Au 28.3462 20.6613 17.1506
Au 30.1327 22.7661 17.9199
Au 31.6855 24.6878 18.739
Au 21.7418 8.80362 12.6378
Au 23.7437 10.7108 13.0625
Au 25.3594 12.8187 13.9249
Au 27.3942 14.8821 14.8159
Au 28.938 17.0693 15.6258
Au 30.591 19.3605 16.2215
Au 32.4933 21.2866 17.3142
Au 25.9558 9.45809 12.5284
Au 27.6828 11.5323 13.099
Au 29.4731 13.4537 14.011
Au 30.9809 15.4817 14.8492
Au 32.6322 17.894 15.6333
Au 8.2686 20.4007 16.7439
Au 9.69532 22.3617 17.7072
Au 11.4635 24.5098 18.3554
Au 12.8982 26.6561 19.239
Au 14.9992 28.898 19.9929
Au 16.6419 30.7895 20.8898
Au 18.3583 32.8474 21.6863
Au 8.58895 16.4741 15.1762
Au 10.4583 18.6122 15.9372
Au 11.8788 20.9943 16.841
Au 13.4671 23.0611 17.5369
Au 15.2044 24.9657 18.4078
Au 17.1007 27.2512 19.2812
Au 18.873 29.3859 19.7713
Au 20.5486 31.5958 20.6387
Au 10.767 15.0923 14.1975
Au 12.5363 17.1849 15.0136
Au 14.1625 19.3178 15.764
Au 15.948 21.4599 16.5248
Au 17.6378 23.5477 17.1086
Au 19.2711 25.7782 18.1192
Au 21.117 28.1183 18.9277
Au 23.0456 30.0619 19.8392
Au 13.0607 13.4954 13.094
Au 14.8802 15.6398 13.9084
Au 16.5535 17.717 15.0156
Au 18.0975 20.0091 15.553
Au 19.958 22.1288 16.4702
Au 21.6249 24.314 17.2083
Au 23.4905 26.478 18.0682
Au 25.0939 28.5475 18.7821
Au 15.2305 12.0296 12.638
Au 16.9143 14.2064 13.0332
Au 18.7537 16.2645 14.0505
Au 20.4564 18.4097 14.8089
Au 22.2528 20.6241 15.5683
Au 23.8029 22.8334 16.3972
Au 25.6083 24.8308 17.1573
Au 27.4812 26.8982 17.967
Au 17.4609 10.8132 11.5622
Au 19.1002 12.7104 11.9254
Au 20.89 14.8527 13.0653
Au 22.8833 16.791 13.8418
Au 24.6309 18.9114 14.6567
Au 26.3065 21.1472 15.3598
Au 28.0047 23.3591 16.2167
Au 29.9287 25.5696 16.9004
Au 19.7953 9.6656 10.7926
Au 21.5154 11.5287 11.4887
Au 23.2544 13.4703 12.1263
Au 25.1025 15.453 12.6416
Au 26.89 17.5434 13.6119
Au 28.4845 19.4995 14.3353
Au 30.0918 21.7393 15.388
Au 31.9034 23.8203 15.885
Au 23.6033 9.78966 10.7171
Au 25.4054 11.8263 11.0918
Au 27.2989 13.8898 12.017
Au 28.9271 15.8849 12.641
Au 30.9471 18.0657 13.6979
Au 32.3365 20.4887 14.5295
Au 8.43616 19.0514 14.4424
Au 9.90704 21.445 14.7672
Au 11.4781 23.6969 15.674
Au 13.1965 25.863 16.6019
Au 14.9746 27.6479 17.5228
Au 16.6586 29.8776 18.0524
Au 18.5038 31.8308 18.964
Au 10.3281 17.5568 13.1195
Au 11.8617 19.8222 13.9824
Au 13.6944 21.8775 14.9587
Au 15.1436 24.2708 15.535
Au 16.9638 26.234 16.4034
Au 18.7695 28.4192 17.1826
Au 20.7499 30.5374 17.7712
Au 12.7449 16.2119 12.308
Au 14.2808 18.367 13.1855
Au 16.0634 20.4878 13.9789
Au 17.714 22.6608 14.6555
Au 19.4927 24.7902 15.4952
Au 21.1755 26.9434 16.3084
Au 22.979 29.1819 17.0521
Au 14.8433 14.6707 11.2007
Au 16.5851 16.7096 12.028
Au 18.4084 18.7675 12.9006
Au 20.1448 21.0207 13.8176
Au 21.5997 23.289 14.6228
Au 23.4575 25.4174 15.4094
Au 25.3594 27.5047 16.1659
Au 16.7971 13.1775 10.1771
Au 18.6716 15.3436 11.0584
Au 20.6307 17.4213 11.9789
Au 22.3581 19.4914 12.9424
Au 24.2375 21.5413 13.7569
Au 25.9401 23.9606 14.5251
Au 27.6395 25.9879 15.3368
Au 19.236 11.7313 9.41091
Au 20.9235 13.8101 10.1915
Au 22.6873 15.8086 11.0574
Au 24.6343 17.9966 11.886
Au 26.3844 20.0716 12.6238
Au 28.2639 22.2484 13.4158
Au 29.6497 24.4481 14.268
Au 21.5673 10.5027 8.598
Au 23.2921 12.366 9.51377
Au 25.0604 14.4714 10.1234
Au 26.8738 16.5026 10.9588
Au 28.7261 18.6181 11.7878
Au 30.2623 20.884 12.4044
Au 31.5724 22.9207 13.3553
Au 9.96301 20.3691 12.2417
Au 11.6794 22.5196 13.2202
Au 13.2147 24.7325 13.7445
Au 15.1338 26.737 14.5646
Au 16.7184 28.842 15.2539
Au 18.4182 30.8258 16.3241
Au 12.1169 18.8495 11.466
Au 13.8533 20.9702 12.1434
Au 15.5295 23.1239 12.9696
Au 17.3316 25.3371 13.5935
Au 19.0406 27.4816 14.5239
Au 20.5198 29.3921 15.4521
Au 14.4512 17.6133 10.5564
Au 16.175 19.5533 11.2374
Au 17.9466 21.5323 12.1516
Au 19.5667 23.6629 12.7256
Au 21.4122 26.0099 13.6779
Au 23.1342 28.0685 14.4554
Au 16.6731 15.9222 9.2399
Au 18.1874 18.0113 10.1433
Au 20.2725 20.1373 11.278
Au 22.0606 22.3178 12.0796
Au 23.6708 24.5574 12.8484
Au 25.3785 26.6144 13.6665
Au 18.706 14.284 8.40475
Au 20.5035 16.368 9.09967
Au 22.4782 18.5584 10.2108
Au 24.1222 20.7612 10.9854
Au 26.0301 22.9476 11.9184
Au 27.7104 25.0827 12.7736
Au 21.2892 12.8128 7.69614
Au 22.913 15.0412 8.32496
Au 24.7218 16.9659 9.23284
Au 26.5249 19.2382 10.0473
Au 28.2834 21.3726 10.7204
Au 29.9307 23.4082 11.4895
Au 11.9617 21.69 10.5779
Au 13.3132 23.7954 10.9092
Au 15.0818 25.6654 11.8821
Au 16.8714 27.8152 12.776
Au 18.622 29.7801 13.5792
Au 13.9073 20.1578 9.40971
Au 15.6435 22.1583 10.3776
Au 17.4506 24.1473 11.0712
Au 19.1855 26.2564 11.9542
Au 20.9764 28.549 12.7315
Au 16.2011 18.8151 8.51159
Au 18.0361 20.8197 9.48674
Au 19.893 22.7635 10.1573
Au 21.3993 25.0484 10.9671
Au 23.2704 27.0895 11.8316
Au 18.4909 16.9509 7.57178
Au 20.3581 19.1883 8.5755
Au 21.9842 21.306 9.31929
Au 23.7464 23.6785 10.1664
Au 25.6502 25.5715 11.0415
Au 20.7287 15.5731 6.66303
Au 22.4774 17.7532 7.47873
Au 24.273 19.7354 8.44101
Au 26.0293 22.1018 9.12798
Au 28.0192 24.0718 10.1326
Au 13.6403 22.6086 8.3628
Au 15.2441 24.8134 9.27288
Au 17.0709 26.7225 10.1982
Au 18.5826 28.7724 10.9792
Au 16.0047 21.3546 7.69
Au 17.5895 23.4139 8.27806
Au 19.301 25.4858 9.16387
Au 20.9386 27.5506 10.3412
Au 18.1125 19.7886 7.01491
Au 19.9549 21.7886 7.35087
Au 21.7203 23.9651 8.3737
Au 23.1893 25.9796 9.13543
Au 20.353 18.6184 6.03694
Au 22.198 20.3746 6.7371
Au 23.6481 22.515 7.54106
Au 25.6053 24.5498 8.58731
Au 8.12683 23.3138 24.8873
Au 9.73834 25.3258 25.7131
Au 11.2684 27.368 26.5654
Au 13.0633 29.478 27.2422
Au 14.6821 31.6209 28.0609
Au 8.37904 19.5283 23.422
Au 10.1296 21.6525 23.999
Au 11.7309 23.9238 24.9619
Au 13.3797 26.0647 25.6803
Au 15.0819 28.1572 26.3719
Au 16.9487 30.2407 27.3681
Au 18.96 32.3657 27.601
Au 8.99027 15.7161 21.1855
Au 10.5811 18.0525 22.3384
Au 12.3466 20.2061 23.2102
Au 14.1477 22.4428 24.0377
Au 15.7734 24.476 24.7038
Au 17.4346 26.543 25.3083
Au 19.3623 28.5304 26.1394
Au 21.0632 30.8099 26.8927
Au 22.563 32.7435 27.6786
Au 11.2128 14.3081 20.4689
Au 12.7842 16.5122 21.5299
Au 14.5416 18.6024 22.3183
Au 16.0929 20.9347 22.9291
Au 18.004 22.9523 23.7231
Au 19.7224 25.046 24.5845
Au 21.4511 27.3183 25.2924
Au 23.3679 29.3774 26.1571
Au 24.9928 31.5089 26.7314
Au 13.4479 12.8207 19.8715
Au 14.9725 14.8322 20.5663
Au 16.8077 17.0748 21.4485
Au 18.4231 19.2641 22.0941
Au 20.2022 21.4582 22.8181
Au 22.1165 23.4771 23.7152
Au 23.7695 25.7267 24.4282
Au 25.4596 28.0019 25.2336
Au 27.2107 30.0683 25.6391
Au 15.6133 11.357 18.9921
Au 17.2867 13.3472 19.8905
Au 19.1288 15.5847 20.5044
Au 20.7786 17.7679 21.137
Au 22.653 20.012 21.9598
Au 24.478 22.0363 22.9146
Au 26.0989 24.3002 23.534
Au 28.011 26.5739 24.217
Au 29.3898 28.6051 24.9032
Au 17.7617 9.81176 18.2002
Au 19.6994 11.9486 18.9567
Au 21.4753 14.021 19.4809
Au 23.119 16.1452 20.1229
Au 24.9743 18.3835 21.054
Au 26.7449 20.4483 21.8841
Au 28.3008 22.4159 22.5881
Au 29.7332 24.6263 23.5211
Au 31.0458 26.847 24.0838
Au 20.0241 8.31976 17.4098
Au 21.7813 10.463 18.0251
Au 23.7212 12.6324 18.733
Au 25.5384 14.4828 19.5759
Au 27.335 16.8053 20.185
Au 28.9378 18.9814 20.937
Au 30.5148 21.0908 21.7935
Au 32.1163 23.1695 22.8417
Au 22.38 7.09538 16.4264
Au 24.0058 9.19012 17.0261
Au 25.9357 11.0604 17.6637
Au 27.6826 13.1475 18.3713
Au 29.3645 15.2231 19.3912
Au 31.1488 17.5264 20.0502
Au 32.4996 19.6177 20.6876
Au 8.34303 20.3371 25.8442
Au 10.0781 22.6015 26.6387
Au 11.754 24.889 27.7048
Au 13.3563 26.888 28.5846
Au 14.8978 29.1753 29.028
Au 16.7837 31.1886 29.8232
Au 8.82126 16.891 24.1194
Au 10.5887 18.8613 25.0856
Au 12.1485 21.1899 25.8851
Au 13.8787 23.3919 26.821
Au 15.6364 25.5564 27.4571
Au 17.4638 27.6044 28.0182
Au 19.2639 29.649 28.7221
Au 20.8509 31.8907 29.5153
Au 10.7764 15.2013 23.1319
Au 12.8369 17.266 24.2473
Au 14.4788 19.6968 25.0065
Au 16.2636 21.8084 25.7351
Au 17.9789 24.0685 26.5407
Au 19.8507 26.0471 27.3908
Au 21.6606 28.232 28.0508
Au 23.3549 30.4062 28.5067
Au 13.134 13.8427 22.5952
Au 15.0232 15.7701 23.2806
Au 16.8659 18.022 23.9754
Au 18.3831 20.3086 24.8049
Au 20.2024 22.4434 25.6462
Au 21.9673 24.57 26.3068
Au 23.7303 26.8095 27.216
Au 25.6766 28.8275 27.6688
Au 15.5054 12.2545 21.7441
Au 17.476 14.4258 22.4878
Au 19.1204 16.5252 23.0826
Au 20.5869 18.8182 23.8906
Au 22.5462 20.9019 24.6959
Au 24.4421 23.1758 25.6287
Au 26.1244 25.4922 26.4177
Au 27.7979 27.4337 26.9087
Au 17.7076 10.5825 20.7669
Au 19.6827 12.7275 21.6476
Au 21.4384 15.1289 22.0896
Au 23.0615 17.4465 22.8701
Au 24.7077 19.5386 23.7578
Au 26.5591 21.633 24.7834
Au 28.1998 23.922 25.5785
Au 29.937 25.9562 26.3439
Au 20.0454 9.17577 20.1922
Au 21.8415 11.4477 20.6857
Au 23.6703 13.3895 21.3641
Au 25.2787 15.7812 21.9698
Au 27.1734 17.8912 22.8455
Au 28.8875 19.9985 23.7262
Au 30.3328 22.0466 24.5351
Au 31.951 24.5572 25.2019
Au 22.2285 8.23421 19.0666
Au 24.1454 10.2148 19.5651
Au 26.0943 11.7921 20.3254
Au 27.7128 14.0905 21.1275
Au 29.3832 16.3152 21.9662
Au 31.1333 18.5638 22.8324
Au 32.6095 20.7633 23.4484
Au 8.79362 17.9126 26.6472
Au 10.2738 19.9755 27.7225
Au 12.2101 22.0229 28.585
Au 13.8915 24.2701 29.4549
Au 15.6118 26.4322 30.0405
Au 17.4485 28.6554 30.568
Au 19.0649 30.8791 31.1853
Au 10.8926 16.2473 25.8319
Au 12.6774 18.6562 26.7671
Au 14.4015 20.7724 27.6172
Au 16.1293 22.8752 28.4883
Au 17.9064 25.1074 29.2402
Au 19.8135 27.0761 29.9208
Au 21.5792 29.5048 30.4755
Au 13.0331 14.8319 24.9384
Au 15.0247 17.007 25.7834
Au 16.7269 19.1771 26.8023
Au 18.5315 21.3068 27.5133
Au 20.1789 23.5307 28.371
Au 22.011 25.6328 29.0739
Au 23.7118 28.0157 29.754
Au 15.3809 13.24 24.2349
Au 17.2325 15.2909 25.1198
Au 19.0406 17.5999 25.7703
Au 20.7057 19.7609 26.6283
Au 22.5336 21.9613 27.4489
Au 24.2518 24.2654 28.268
Au 26.0364 26.2971 29.1174
Au 17.7319 11.8282 23.2575
Au 19.5706 13.8163 24.2428
Au 21.3932 16.0839 24.8521
Au 22.9671 18.3407 25.802
Au 24.8477 20.57 26.5094
Au 26.5444 22.9034 27.5963
Au 28.3248 24.7436 28.2667
Au 19.9137 10.1702 22.696
Au 21.9527 12.4142 23.4685
Au 23.5963 14.6355 23.9464
Au 25.3216 16.9483 24.6632
Au 27.1365 18.7592 25.5381
Au 28.6768 21.0985 26.5207
Au 30.3821 23.2635 27.1728
Au 22.4324 9.14902 21.7585
Au 24.202 11.0469 22.2784
Au 25.936 13.061 23.0261
Au 27.53 15.1298 23.7819
Au 29.2551 17.3217 24.7106
Au 30.9437 19.6518 25.537
Au 32.3399 21.8824 26.042
Au 10.9067 17.5927 28.4695
Au 12.6495 19.3716 29.5831
Au 14.3293 21.5441 30.3158
Au 16.016 23.6537 31.1162
Au 18.0284 26.0706 31.9202
Au 19.7158 28.4288 32.1892
Au 13.0242 15.9648 27.7157
Au 14.827 18.0498 28.4764
Au 16.4089 20.3711 29.5894
Au 18.2767 22.4001 30.2816
Au 19.898 24.3762 31.0069
Au 21.8642 26.8174 31.4948
Au 15.2027 14.3835 26.9498
Au 17.0262 16.4573 27.6653
Au 18.8488 18.7006 28.5239
Au 20.7335 20.7489 29.2646
Au 22.4771 22.9699 30.0495
Au 24.207 25.3588 30.9439
Au 17.6128 12.772 26.1076
Au 19.4821 15.0716 26.7546
Au 21.4487 17.0937 27.6779
Au 22.936 19.3318 28.3733
Au 24.6655 21.4077 29.4049
Au 26.3649 23.8671 30.0892
Au 19.9086 11.3463 25.1986
Au 21.7757 13.4154 25.9611
Au 23.6398 15.6776 26.5994
Au 25.3366 17.8877 27.5669
Au 26.9229 19.9832 28.3538
Au 28.5908 22.0273 29.3583
Au 22.2134 9.88943 24.3168
Au 24.0165 11.9707 25.2658
Au 25.7973 14.0708 25.658
Au 27.3522 16.1187 26.3099
Au 29.2869 18.4624 27.2856
Au 30.94 20.5859 28.1227
Au 13.1074 16.9259 30.1853
Au 14.8434 18.9224 31.4857
Au 16.5638 21.1336 32.2464
Au 18.2525 23.2909 32.9699
Au 20.201 25.5559 33.2909
Au 15.2046 15.2374 29.5187
Au 16.8907 17.6157 30.2962
Au 18.7231 19.7052 31.3102
Au 20.5604 21.841 31.9573
Au 22.2206 24.2246 32.5772
Au 17.6766 13.9689 28.6749
Au 19.3042 15.9846 29.4158
Au 21.2319 18.1921 30.1881
Au 22.8111 20.4335 31.1244
Au 24.6276 22.7482 31.8055
Au 19.8971 12.4366 27.7761
Au 21.6149 14.4809 28.4548
Au 23.6498 16.3905 29.2755
Au 25.2205 18.7871 30.1905
Au 26.7594 20.9548 30.9774
Au 22.14 10.9146 26.8353
Au 23.9763 12.983 27.8248
Au 25.8875 15.0413 28.4425
Au 27.5255 17.3011 29.1127
Au 29.1515 19.4914 29.7226
Au 15.2651 16.3706 32.0367
Au 16.9412 18.8159 33.0764
Au 18.815 20.7673 33.9073
Au 20.5468 22.6704 34.4029
Au 17.3533 14.8545 31.0326
Au 19.4306 17.2593 31.9873
Au 21.1818 19.1298 32.8647
Au 22.841 21.4321 33.6857
Au 19.7097 13.4092 30.2497
Au 21.5261 15.4769 31.1216
Au 23.4005 17.6879 31.7431
Au 25.0546 20.1929 32.9483
Au 21.9865 12.1326 29.4386
Au 23.889 14.0147 30.4614
Au 25.7425 15.9989 31.3168
Au 27.378 18.364 31.6941
Au 17.4401 16.0934 33.3712
Au 19.2547 17.847 34.5406
Au 20.9 20.0867 35.2577
Au 19.5767 14.458 32.8031
Au 21.4017 16.5136 33.7598
Au 23.1567 18.415 34.3336
Au 21.81 13.1006 32.0564
Au 23.6994 15.2037 32.7145
Au 25.4309 17.6738 33.334
