675
 Atoms. Timestep: 50000
Au 21.5874 14.94 31.874
Au 21.2584 16.2702 29.6032
Au 20.9671 17.4081 27.0699
Au 20.9026 18.8103 24.4992
Au 20.3948 19.8888 21.7271
Au 20.2058 21.1646 19.0427
Au 20.0374 22.1693 16.2801
Au 19.7247 23.3215 13.7817
Au 19.3939 24.6045 11.2651
Au 19.1555 25.6437 8.85161
Au 18.9361 15.8386 31.1226
Au 18.5285 16.9407 28.6581
Au 18.5152 18.0381 25.8784
Au 18.2174 19.296 23.2573
Au 17.9018 20.5009 20.7431
Au 17.7448 21.6429 17.8551
Au 17.3093 22.7153 15.324
Au 17.1572 24.0977 12.7235
Au 16.7701 25.0539 10.0912
Au 20.9669 17.8478 31.8644
Au 20.4939 19.1059 29.4734
Au 20.3816 20.2469 26.7723
Au 19.9123 21.5841 24.0466
Au 19.7381 22.813 21.3936
Au 19.3966 23.8684 18.7125
Au 19.1472 24.9981 16.142
Au 18.8618 26.2369 13.4506
Au 18.5333 27.0138 10.9114
Au 23.3924 16.9319 31.2254
Au 23.2441 18.2029 28.6325
Au 23.0782 19.5056 26.139
Au 22.4899 20.6774 23.5161
Au 22.4636 21.7054 20.7819
Au 22.0291 22.8675 18.0509
Au 21.965 24.0962 15.4751
Au 21.5669 25.3847 12.9857
Au 21.2763 26.4515 10.506
Au 23.3051 14.4334 29.947
Au 23.0583 15.4285 27.327
Au 22.8119 16.8333 24.8934
Au 22.6445 18.1617 22.2137
Au 22.2047 19.3514 19.6405
Au 21.9681 20.4136 16.8739
Au 21.8881 21.403 14.3275
Au 21.5195 22.6819 11.7682
Au 21.3208 24.1166 9.38013
Au 20.3939 13.5216 29.9341
Au 20.303 14.8131 27.5002
Au 20.0099 16.1897 24.7228
Au 19.9115 17.1283 22.1615
Au 19.5677 18.3006 19.4665
Au 19.3642 19.4789 16.839
Au 18.9915 20.5226 14.1344
Au 18.7146 21.887 11.7165
Au 18.5141 23.0455 9.37732
Au 16.4567 16.2108 30.1279
Au 16.1449 17.4022 27.4129
Au 15.8989 18.3992 24.9324
Au 15.7617 19.6757 22.2245
Au 15.4803 21.0973 19.548
Au 15.0952 22.1465 16.9663
Au 14.7043 23.3142 14.112
Au 14.6138 24.3904 11.8023
Au 18.2018 18.3075 31.0079
Au 17.8924 19.5485 28.3916
Au 17.6028 20.7513 25.6207
Au 17.524 21.9617 22.8613
Au 17.0764 23.2534 20.2621
Au 16.4388 24.2984 17.7871
Au 16.5823 25.4043 15.1151
Au 16.1503 26.7461 12.4298
Au 20.0683 20.3644 31.6404
Au 19.6778 21.6823 29.0375
Au 19.3764 22.8803 26.3657
Au 19.1003 24.2474 23.6657
Au 18.9505 25.4006 20.948
Au 18.6236 26.6329 18.3502
Au 18.3533 27.6986 15.6325
Au 18.0294 28.8727 13.1599
Au 22.7515 19.8117 31.0101
Au 22.523 21.0493 28.4091
Au 22.1653 22.2144 25.8773
Au 21.7779 23.3491 22.9847
Au 21.5115 24.5049 20.4301
Au 21.3029 25.6893 17.7083
Au 21.2406 26.9689 15.1384
Au 20.6511 28.2065 12.6215
Au 25.3668 18.758 30.1725
Au 25.2683 20.1747 27.6877
Au 24.9939 21.3055 25.1132
Au 24.5745 22.4424 22.4843
Au 24.342 23.6358 19.8374
Au 24.145 24.9456 17.3998
Au 23.8503 25.9345 14.5366
Au 23.5125 26.9798 12.0844
Au 25.1763 16.3074 29.1934
Au 25.0313 17.3626 26.5508
Au 24.7552 18.834 23.947
Au 24.7176 19.8513 21.4855
Au 24.2844 20.8881 18.7004
Au 24.1877 22.2856 16.1068
Au 23.8771 23.4503 13.4277
Au 23.5134 24.5168 10.9425
Au 25.1026 13.7776 27.7788
Au 24.8041 15.0179 25.1639
Au 24.8286 16.3609 22.6894
Au 24.5178 17.4479 20.0697
Au 24.1144 18.408 17.3203
Au 23.9051 19.4378 14.8418
Au 23.5703 20.8219 12.2335
Au 23.3528 21.9636 9.7681
Au 22.4328 12.6911 27.8744
Au 22.1125 13.999 25.2055
Au 22.0443 15.3262 22.6273
Au 21.6809 16.5039 20.0327
Au 21.5026 17.6139 17.2454
Au 21.1019 18.6736 14.6621
Au 20.7668 19.9758 12.0378
Au 20.6243 21.3211 9.50089
Au 19.4905 12.3705 27.7855
Au 19.3649 13.4722 25.2206
Au 18.9886 14.5724 22.6439
Au 18.7654 15.6086 19.9573
Au 18.6249 16.8167 17.2633
Au 18.407 17.7367 14.7145
Au 17.9702 19.0635 12.0608
Au 17.9004 20.2727 9.61564
Au 17.8967 14.1853 29.0664
Au 17.6683 15.2763 26.387
Au 17.3911 16.467 23.7425
Au 17.1612 17.5431 20.9991
Au 17.1715 18.8939 18.4028
Au 16.7466 19.9719 15.5823
Au 16.3667 21.3414 13.2041
Au 16.1294 22.3685 10.4977
Au 14.0226 16.5129 28.9428
Au 13.4832 17.8021 26.2627
Au 13.2278 19.1242 23.7521
Au 13.1168 20.2791 21.254
Au 12.7356 21.5197 18.6189
Au 12.3723 22.4265 15.8763
Au 12.1652 23.8336 13.3358
Au 15.6672 18.8115 29.8315
Au 15.2964 20.1687 27.307
Au 15.0037 21.1828 24.6872
Au 14.6981 22.3739 22.0542
Au 14.373 23.7701 19.4499
Au 14.1923 24.766 16.4948
Au 13.9538 26.0962 14.0699
Au 17.3986 21.0371 30.627
Au 17.1379 22.24 27.9723
Au 16.8002 23.315 25.0907
Au 16.6033 24.7802 22.6671
Au 16.2079 25.9198 19.9914
Au 15.9204 27.0419 17.4043
Au 15.7518 28.1072 14.801
Au 19.1499 23.1291 31.2122
Au 18.7414 24.4003 28.9233
Au 18.5537 25.6658 26.2551
Au 18.1655 26.9762 23.4798
Au 18.0638 28.1241 20.6337
Au 17.8414 29.3095 17.9491
Au 17.5443 30.223 15.4514
Au 21.7577 22.4747 30.8004
Au 21.5501 23.717 28.1513
Au 21.4022 24.8902 25.4568
Au 20.948 26.0505 22.7219
Au 20.766 27.2821 19.9396
Au 20.4664 28.5906 17.5285
Au 20.2943 29.7076 14.8781
Au 24.5932 21.5879 30.1135
Au 24.4644 22.8803 27.5332
Au 24.031 24.1075 24.7016
Au 24.0548 25.1394 22.1789
Au 23.4883 26.2828 19.6564
Au 23.3183 27.5167 16.8351
Au 22.8626 28.6786 14.1034
Au 27.3088 21.0045 29.3828
Au 27.0953 22.1526 26.8384
Au 26.8565 23.4338 24.2398
Au 26.6468 24.2845 21.4368
Au 26.3083 25.4508 19.0441
Au 25.9646 26.7618 16.3965
Au 25.5604 28.0213 14.0044
Au 27.0816 18.1803 28.1527
Au 26.9297 19.414 25.7084
Au 26.9026 20.7236 23.1656
Au 26.5054 21.7491 20.4668
Au 26.1723 22.95 17.7868
Au 25.9776 24.2179 15.1259
Au 25.572 25.3365 12.5264
Au 27.0081 15.653 27.0135
Au 26.9378 16.8194 24.429
Au 26.7541 18.0456 21.6805
Au 26.4915 19.155 19.1314
Au 26.117 20.2188 16.4383
Au 25.8466 21.4522 13.9346
Au 25.592 22.5432 11.287
Au 26.8392 13.3127 25.7379
Au 26.6809 14.2227 23.2128
Au 26.4295 15.411 20.595
Au 26.3718 16.5297 17.8958
Au 26.0887 17.563 15.383
Au 25.6989 18.8748 12.783
Au 25.4103 19.9042 10.1563
Au 24.2282 12.1008 25.8682
Au 23.9172 13.1512 23.1598
Au 23.6446 14.6153 20.442
Au 23.3674 15.7754 17.8158
Au 23.1874 16.6564 15.199
Au 23.0306 18.0425 12.6172
Au 22.7443 19.3284 10.2195
Au 21.4551 11.3286 25.6611
Au 21.2238 12.3973 23.0388
Au 20.8912 13.9465 20.3121
Au 20.6831 15.0231 17.8228
Au 20.3693 15.8072 15.1426
Au 20.1458 17.2593 12.4827
Au 19.995 18.44 9.99977
Au 18.6355 10.7401 25.4391
Au 18.4932 11.8866 23.0456
Au 18.2133 12.9754 20.2304
Au 18.0123 13.9559 17.4813
Au 17.6261 15.0379 15.1897
Au 17.3921 16.3847 12.4156
Au 17.2569 17.5147 9.94493
Au 17.0322 12.6562 26.766
Au 16.6345 13.7002 24.2585
Au 16.5097 14.8669 21.5129
Au 16.2781 16.1112 18.8785
Au 16.0239 17.2012 16.2617
Au 15.6234 18.3518 13.4657
Au 15.3853 19.6011 11.0163
Au 15.2528 14.614 28.0462
Au 15.038 15.7187 25.3598
Au 14.7846 17.0121 22.6506
Au 14.7937 18.2826 19.9313
Au 14.5706 19.3426 17.3547
Au 14.1149 20.5735 14.4991
Au 13.7441 21.7921 11.8365
Au 11.4142 17.2872 27.8776
Au 10.9557 18.6582 25.4489
Au 10.7306 19.6927 22.7083
Au 10.5516 20.7522 20.2065
Au 10.1999 21.8198 17.5524
Au 9.90202 23.1973 14.8837
Au 13.0049 19.2307 28.8437
Au 12.6697 20.638 26.3375
Au 12.5237 21.796 23.6513
Au 12.0666 23.1438 20.941
Au 11.8942 24.252 18.2174
Au 11.5597 25.3586 15.5557
Au 14.932 21.3794 29.6345
Au 14.5037 22.768 26.9952
Au 14.0731 24.1414 24.2742
Au 13.8396 25.3303 21.7465
Au 13.6677 26.4098 18.79
Au 13.3309 27.5106 16.3573
Au 16.5675 23.7775 30.4407
Au 16.3166 24.8663 27.6052
Au 16.0653 26.1992 25.1883
Au 15.7142 27.3913 22.2645
Au 15.2867 28.7008 19.5526
Au 15.0827 29.8442 17.1094
Au 18.4552 25.8475 31.0932
Au 18.0331 27.235 28.6129
Au 17.7393 28.44 25.8541
Au 17.4385 29.5203 22.9651
Au 17.0104 30.7519 20.4592
Au 16.9473 31.7441 18.0133
Au 21.1405 25.1346 30.4118
Au 20.6357 26.545 27.8839
Au 20.4469 27.6262 25.0269
Au 20.1638 28.6636 22.3893
Au 19.847 29.9272 19.847
Au 19.5885 31.2814 17.0178
Au 23.6868 24.1835 29.9012
Au 23.344 25.5171 27.3034
Au 23.1315 26.842 24.3246
Au 22.8748 27.8721 21.6012
Au 22.6661 29.2255 19.1627
Au 22.3448 30.0643 16.4791
Au 26.3293 23.5522 29.2652
Au 26.0227 24.7686 26.5561
Au 25.9464 25.9426 23.8829
Au 25.6894 27.1421 21.2265
Au 25.3329 28.3284 18.6277
Au 24.9958 29.456 16.0706
Au 29.2077 23.0922 28.5579
Au 29.009 23.9314 25.9548
Au 28.9643 25.4144 23.3499
Au 28.6874 26.3804 20.6552
Au 28.1469 27.3604 18.1268
Au 27.6089 28.5074 15.7046
Au 28.9944 20.0321 27.479
Au 28.9717 21.2942 25.0535
Au 28.7883 22.6044 22.2802
Au 28.5465 23.7788 19.4442
Au 28.1284 25.0611 16.7821
Au 27.7436 26.1157 14.1446
Au 29.0192 17.5715 26.0589
Au 28.7286 18.7876 23.6884
Au 28.4689 20.0171 20.8092
Au 28.327 21.2124 18.242
Au 27.874 22.2574 15.6055
Au 27.6399 23.3374 12.9902
Au 28.9286 14.798 24.8956
Au 28.5493 16.0624 22.4443
Au 28.3992 17.1288 19.7315
Au 28.3264 18.4367 16.9188
Au 27.9791 19.4511 14.4382
Au 27.6644 20.6463 11.8027
Au 28.7726 12.2987 23.7134
Au 28.4047 13.4619 21.0523
Au 28.2809 14.6145 18.5755
Au 28.1483 15.6098 15.8706
Au 27.8004 16.8734 13.2931
Au 27.6041 18.2587 10.8633
Au 26.1155 11.4774 23.86
Au 25.6908 12.7477 20.9978
Au 25.43 13.8975 18.4946
Au 25.3645 14.8957 15.755
Au 24.9773 15.9814 13.0587
Au 24.7784 17.1968 10.5358
Au 23.2171 10.5604 23.6647
Au 22.8419 11.7226 20.9835
Au 22.5575 12.8771 18.4011
Au 22.4648 14.0805 15.8608
Au 22.1523 15.2628 12.976
Au 22.1578 16.4684 10.4169
Au 20.4661 9.89236 23.5414
Au 20.2102 10.7996 20.837
Au 20.1208 12.0391 18.1655
Au 19.9184 13.1471 15.5171
Au 19.3462 14.4138 12.8622
Au 19.3559 15.7914 10.2689
Au 17.6671 9.42717 23.3961
Au 17.5775 10.2005 20.7877
Au 17.3485 11.1723 18.0831
Au 17.0221 12.4262 15.2604
Au 16.7981 13.4545 12.7959
Au 16.8061 14.7293 10.3739
Au 15.9166 10.9141 24.5567
Au 15.8817 12.1584 21.8543
Au 15.6709 13.3028 19.2978
Au 15.2563 14.4433 16.6852
Au 15.0264 15.6858 14.1292
Au 14.8685 16.7744 11.2145
Au 14.2989 13.1056 25.8184
Au 14.2724 14.2896 23.0545
Au 13.9089 15.4901 20.4964
Au 13.6634 16.6953 17.8995
Au 13.489 17.9096 15.1645
Au 13.1894 19.0031 12.3079
Au 12.6892 15.1222 26.7767
Au 12.6223 16.3118 24.0491
Au 12.1731 17.4512 21.3766
Au 12.129 18.962 18.9738
Au 11.9556 19.9295 16.2829
Au 11.5201 21.3015 13.4315
Au 8.77926 17.9885 26.7526
Au 8.3877 19.0135 24.3136
Au 7.98895 20.0763 21.8311
Au 8.0467 21.342 19.2491
Au 7.8693 22.4543 16.6464
Au 10.3561 19.8626 27.8835
Au 10.2045 21.2551 25.0144
Au 9.48201 22.2951 22.3824
Au 9.57821 23.3497 19.8049
Au 9.24725 24.8359 17.4248
Au 12.2328 22.0477 28.542
Au 11.9129 23.4893 25.9294
Au 11.5829 24.491 23.1527
Au 11.3844 25.7915 20.3535
Au 11.0107 26.8985 17.9411
Au 14.1272 24.1704 29.3617
Au 13.6889 25.4646 26.8499
Au 13.4261 26.7251 24.1331
Au 13.1694 27.8525 21.1078
Au 12.7372 29.1536 18.4674
Au 15.6717 26.3997 30.1779
Au 15.4441 27.6516 27.5988
Au 15.3346 28.7134 24.7903
Au 14.8406 30.0788 22.101
Au 14.5653 31.256 19.389
Au 17.4011 28.4663 30.7637
Au 17.2406 29.8972 28.279
Au 17.0004 30.9577 25.5493
Au 16.4344 32.3237 23.0002
Au 16.3559 33.3312 20.1357
Au 20.3619 27.6909 30.3624
Au 19.8405 29.056 27.4048
Au 19.4853 30.1803 24.8248
Au 19.151 31.4239 22.2055
Au 19.0028 32.6361 19.4583
Au 23.032 27.0874 29.4703
Au 22.7104 28.1469 26.9226
Au 22.4628 29.5274 24.3131
Au 21.9702 30.471 21.5849
Au 21.7373 31.8688 18.9759
Au 25.4545 26.2663 28.9428
Au 25.3143 27.3327 26.3371
Au 25.2281 28.6014 23.6133
Au 24.9348 29.9072 20.9405
Au 24.4406 31.2154 18.5228
Au 28.1048 25.7862 28.3161
Au 28.0906 26.6487 25.7013
Au 27.9302 27.8808 22.8818
Au 27.6911 28.9372 20.2732
Au 26.9662 30.1224 17.8456
Au 30.6908 24.9409 27.6446
Au 31.1536 25.9389 24.8962
Au 30.733 27.2186 22.5002
Au 30.4904 28.3404 19.7154
Au 29.674 29.2984 17.2864
Au 31.0727 22.1672 26.7673
Au 30.8536 23.268 23.9162
Au 30.7999 24.513 21.1409
Au 30.4021 25.762 18.3453
Au 29.7148 26.9724 15.7775
Au 30.984 19.6915 25.4275
Au 30.7567 20.6855 22.7264
Au 30.4337 21.8607 19.9579
Au 30.1026 23.1811 17.0796
Au 29.8001 24.3362 14.6988
Au 30.7475 16.7931 24.1009
Au 30.4783 17.7708 21.658
Au 30.1562 19.1037 18.8407
Au 29.8857 20.5744 15.9835
Au 29.6519 21.5109 13.4765
Au 30.7439 14.0335 22.7575
Au 30.6055 15.287 20.1947
Au 30.1142 16.5396 17.6799
Au 30.0903 17.7747 15.1004
Au 29.8059 18.93 12.4371
Au 30.3874 11.7887 21.5199
Au 30.3989 12.6077 18.7745
Au 30.2498 13.8521 16.3199
Au 29.8979 15.0086 13.8477
Au 29.5559 16.4144 11.3352
Au 27.7659 10.7923 21.572
Au 27.5664 11.8622 19.0092
Au 27.4992 12.9845 16.4528
Au 27.0542 14.2729 13.7483
Au 26.9859 15.4211 11.0173
Au 24.9307 10.0721 21.5815
Au 24.6544 11.1582 18.9372
Au 24.6716 12.2139 16.2743
Au 24.2231 13.3594 13.7034
Au 24.102 14.5958 11.0029
Au 22.2309 9.07554 21.6127
Au 22.0563 9.9757 18.8382
Au 21.9401 11.3625 16.1211
Au 21.5555 12.5375 13.3609
Au 21.3058 13.6195 10.5925
Au 19.4547 8.17415 21.4325
Au 19.2803 9.11073 18.7695
Au 19.0098 10.3683 16.0306
Au 18.8094 11.8284 13.3619
Au 18.7307 12.8854 10.8239
Au 16.8977 7.61315 21.2821
Au 16.3488 8.17303 18.4962
Au 16.1296 9.50174 16.0087
Au 16.0258 10.6767 13.4042
Au 16.0215 11.8617 10.9188
Au 15.1112 9.58328 22.4098
Au 15.0053 10.4065 19.7671
Au 14.7278 11.6605 17.0593
Au 14.5412 12.8577 14.3427
Au 14.2836 14.0636 11.7928
Au 13.437 11.5594 23.4603
Au 13.1437 12.61 20.8397
Au 12.9298 14.0757 18.4084
Au 12.8799 15.1207 15.6402
Au 12.6999 16.1954 12.8025
Au 11.7816 13.6397 24.6258
Au 11.5357 14.7247 21.8529
Au 11.2706 16.0165 19.3101
Au 11.074 17.2739 16.8395
Au 10.9393 18.3562 14.0565
Au 10.2766 15.7894 25.7993
Au 10.1888 17.0105 23.1556
Au 9.69562 18.1823 20.4933
Au 9.54956 19.2421 17.9303
Au 9.55128 20.5082 15.2107
Au 8.18482 20.751 26.5452
Au 7.45282 21.8435 24.2334
Au 6.96685 22.7644 21.559
Au 7.10568 23.879 19.1113
Au 9.89955 22.4979 27.5336
Au 9.4282 23.8756 24.8194
Au 9.00305 24.9314 22.0404
Au 8.58633 26.1319 19.4951
Au 11.3826 24.9023 28.4231
Au 11.0815 25.995 25.7671
Au 10.9501 27.1775 22.8686
Au 10.4353 28.6296 20.3113
Au 13.145 27.0844 28.9793
Au 13.0439 28.297 26.3054
Au 12.6214 29.2472 23.6825
Au 12.3292 30.5881 20.952
Au 14.9183 29.1017 29.7033
Au 14.6307 30.2821 27.1738
Au 14.283 31.3298 24.536
Au 13.9532 32.4337 21.6867
Au 19.4799 30.222 29.8782
Au 19.117 31.6803 27.3132
Au 18.8989 32.9491 24.4389
Au 18.4988 33.7919 21.7997
Au 22.0328 29.8078 29.3355
Au 21.7973 30.9403 26.7214
Au 21.4286 32.0161 23.8633
Au 21.0975 33.2353 21.123
Au 24.9933 29.2246 28.7467
Au 24.6738 30.1099 26.2304
Au 24.1273 31.3913 23.2534
Au 23.851 32.4602 20.7698
Au 27.6006 28.3227 28.1127
Au 27.2284 29.4004 25.2902
Au 27.2155 30.6856 22.5735
Au 26.6976 31.8652 19.9369
Au 30.0079 27.4618 27.1371
Au 29.9138 28.5879 24.7406
Au 29.7614 29.7104 22.0081
Au 29.3033 30.891 19.4986
Au 32.8155 23.9434 25.6289
Au 32.7728 25.0813 22.8845
Au 32.3619 26.5089 20.1887
Au 31.9614 27.5225 17.4991
Au 32.8658 21.5518 24.5754
Au 32.6805 22.4706 21.9
Au 32.4356 23.9907 18.932
Au 32.2139 25.1849 16.4418
Au 32.5667 18.7999 23.2628
Au 32.3128 19.8463 20.592
Au 32.0669 21.1544 17.9353
Au 31.8764 22.3668 15.285
Au 32.5514 15.8525 21.9326
Au 32.1267 17.2678 19.5668
Au 31.9598 18.4648 16.7712
Au 31.9332 19.7206 14.167
Au 32.4147 13.5055 20.4955
Au 32.3447 14.7705 17.9715
Au 32.1773 15.8526 15.5827
Au 31.6757 17.1398 13.1423
Au 29.4276 9.9811 19.5762
Au 29.3954 10.9347 16.6514
Au 29.1768 12.2566 14.1546
Au 28.6513 13.5189 11.7888
Au 26.7402 9.35864 19.5427
Au 26.7064 10.3697 16.822
Au 26.4807 11.6072 14.2003
Au 25.9945 12.6896 11.6271
Au 24.2369 8.32673 19.5985
Au 23.9496 9.5742 16.9003
Au 23.5401 10.6595 14.0114
Au 23.4359 11.9564 11.3242
Au 21.4663 7.43346 19.5962
Au 21.0364 8.55089 16.813
Au 20.6678 9.84526 13.9923
Au 20.6797 10.7559 11.4583
Au 18.4943 6.62703 19.2643
Au 18.2072 7.60873 16.4984
Au 17.9972 8.74995 13.9339
Au 17.9577 10.2404 11.419
Au 14.3691 7.77656 20.3212
Au 13.8764 9.02111 17.543
Au 13.6668 10.1202 14.863
Au 13.4105 11.4716 12.146
Au 12.6907 9.90952 21.4484
Au 12.5003 11.1759 18.6923
Au 12.3401 12.3834 16.2079
Au 11.9678 13.5945 13.4538
Au 11.008 11.9451 22.4727
Au 10.446 13.1697 19.8964
Au 10.4457 14.6085 17.0549
Au 10.3284 15.8389 14.5416
Au 9.349 14.2259 23.3771
Au 9.00699 15.4096 21.0554
Au 8.62954 16.6482 18.4796
Au 8.62903 17.7048 15.698
Au 8.02716 16.2057 24.6722
Au 7.36768 17.3349 21.9216
Au 7.11626 18.8335 19.4214
Au 7.3145 19.7657 16.7621
Au 7.40806 23.2937 26.4657
Au 6.6528 24.4442 23.831
Au 6.5166 25.5213 21.1187
Au 8.86192 25.2827 27.3462
Au 8.76253 26.3389 24.3862
Au 8.46305 27.5735 21.9117
Au 10.5582 27.5375 28.0069
Au 10.5424 28.5525 25.1988
Au 9.90792 29.9012 22.5817
Au 12.5193 29.6787 28.5323
Au 11.8741 30.8176 26.1055
Au 11.8149 31.9563 23.437
Au 21.2532 32.3719 28.9941
Au 21.0508 33.5121 26.2594
Au 20.6328 34.617 23.6875
Au 23.8951 31.634 28.2511
Au 23.5945 32.7392 25.5556
Au 23.11 34.0319 22.9861
Au 26.7408 31.0627 27.9141
Au 26.3465 31.895 24.9255
Au 25.8773 33.3642 22.2193
Au 29.2902 30.2251 26.9298
Au 29.2613 31.2209 24.2716
Au 28.8322 32.5682 21.509
Au 34.7521 23.1943 23.1574
Au 34.2806 24.6457 20.7954
Au 34.1823 25.668 18.2384
Au 34.4595 20.4791 22.2009
Au 34.2136 21.8473 19.686
Au 34.0258 23.0871 16.9976
Au 34.3911 18.0114 21.3294
Au 34.0927 19.2874 18.669
Au 33.7729 20.3476 15.8219
Au 34.3028 15.469 20.0761
Au 34.2457 16.5982 17.3822
Au 33.9367 17.8059 14.9017
Au 28.637 8.44616 17.4814
Au 28.5702 9.61527 14.7342
Au 28.0931 10.7921 12.3
Au 25.9131 7.78098 17.516
Au 25.6558 9.0283 14.6295
Au 25.3041 9.96855 12.0768
Au 23.1596 6.88561 17.4481
Au 22.7196 8.20839 14.644
Au 22.6233 9.05349 11.8411
Au 20.3506 5.95944 17.2205
Au 20.092 7.20929 14.5095
Au 20.0438 8.33714 12.082
Au 11.8777 8.52455 19.1214
Au 11.3801 9.44743 16.625
Au 11.1863 10.9067 14.028
Au 10.3565 10.3843 20.3686
Au 9.88624 11.8871 17.5879
Au 9.7386 13.0417 14.8842
Au 8.32291 12.502 21.5379
Au 8.24249 13.8902 18.6209
Au 7.97741 15.0906 16.2084
Au 6.74167 14.8946 22.3923
Au 6.35923 16.0329 19.8258
Au 6.41676 17.0798 17.2768
Au 6.57842 25.8697 26.174
Au 6.34876 26.9301 23.4932
Au 8.33377 27.9058 26.6511
Au 7.93901 29.0432 24.0622
Au 9.96027 30.0814 27.4845
Au 9.57437 31.0862 24.8595
Au 22.9825 34.2824 27.8459
Au 22.8436 35.3271 25.1484
Au 25.6743 33.5573 27.2766
Au 25.3928 34.408 24.6897
Au 28.048 32.9819 26.3392
Au 27.9536 33.5018 23.8194
Au 36.4136 22.5188 21.1181
Au 35.9202 23.7285 18.8182
Au 36.3375 19.9942 20.3387
Au 35.8906 20.9782 17.6389
Au 35.9183 17.3742 19.1781
Au 35.8969 18.6054 16.6356
Au 27.5477 7.16354 15.1191
Au 27.4146 8.14468 12.7708
Au 24.6735 6.45274 15.2994
Au 24.7092 7.43085 12.6871
Au 22.0768 5.74116 15.3628
Au 21.9574 6.50892 12.6266
Au 9.48955 9.14647 18.1883
Au 9.10507 10.3519 15.5855
Au 7.75312 11.2072 19.1832
Au 7.34899 12.3226 16.5903
Au 6.09413 13.3562 20.2268
Au 5.80137 14.3068 17.78
