711
 Atoms. Timestep: 50000
Au 7.79732 25.7259 24.0808
Au 9.34085 27.6296 25.035
Au 10.8356 29.8858 25.4148
Au 7.98468 21.9461 22.4059
Au 9.84701 24.1412 23.0625
Au 11.2142 26.3228 24.0824
Au 12.9546 28.4951 24.7671
Au 14.5341 30.5997 25.3497
Au 8.21843 18.2369 20.7495
Au 9.91613 20.2482 21.4441
Au 11.8167 22.6938 22.1482
Au 13.5207 24.751 23.1848
Au 15.3328 26.8378 24.0073
Au 16.7904 29.1155 24.7799
Au 18.648 31.1307 25.3497
Au 8.86621 14.8239 19.1657
Au 10.4464 16.9679 20.0249
Au 12.4387 19.132 20.6423
Au 13.9027 21.2358 21.4545
Au 15.7533 23.3334 22.2782
Au 17.5087 25.3958 22.971
Au 19.0925 27.4373 23.8273
Au 20.9586 29.7252 24.4361
Au 22.8558 31.7229 25.2923
Au 9.5062 11.6927 17.3542
Au 11.2119 13.342 18.253
Au 12.7523 15.3999 19.2193
Au 14.5636 17.5797 19.6899
Au 16.4669 19.8167 20.4654
Au 18.0537 22.0706 21.1589
Au 19.7903 24.0666 22.0531
Au 21.4902 26.1074 22.6581
Au 23.3755 28.1455 23.5627
Au 25.1223 30.2676 24.3303
Au 26.95 32.166 25.018
Au 11.6919 10.097 16.544
Au 13.4002 12.0675 17.2744
Au 15.2023 14.1885 18.1527
Au 16.9981 16.1593 18.8197
Au 18.4627 18.2233 19.6789
Au 20.2484 20.3594 20.5065
Au 22.1312 22.4996 21.1354
Au 23.8143 24.7197 21.9294
Au 25.4488 26.7592 22.7889
Au 27.3838 28.7697 23.4453
Au 29.1069 30.5818 24.0665
Au 14.0375 8.73821 15.4944
Au 15.4205 10.511 16.4819
Au 17.256 12.5506 17.1801
Au 19.1229 14.6877 17.841
Au 20.955 17.125 18.7796
Au 22.8313 19.0106 19.7146
Au 24.443 21.0209 20.345
Au 26.0194 23.1553 21.0783
Au 27.9165 25.372 21.8109
Au 29.6857 27.5109 22.3931
Au 31.379 29.3168 23.0747
Au 17.8647 8.98487 15.5044
Au 19.6407 10.9907 16.1429
Au 21.2736 13.2972 16.894
Au 23.0361 15.6896 17.72
Au 25.0052 17.5822 18.5682
Au 26.7615 19.4874 19.4598
Au 28.4578 21.5391 20.1782
Au 30.1954 23.8965 20.9411
Au 32.0795 26.0631 21.7663
Au 22.1328 9.59711 15.2092
Au 23.7115 11.7062 15.9412
Au 25.6015 13.9352 16.702
Au 27.209 15.8855 17.6341
Au 28.8258 18.0317 18.3888
Au 30.6088 20.2854 19.3149
Au 32.4213 22.2009 19.9331
Au 25.8585 9.97361 15.1536
Au 27.5198 12.4164 15.7422
Au 29.4204 14.3359 16.8727
Au 31.1937 16.4122 17.6004
Au 32.7509 18.7574 18.5181
Au 29.6465 10.8314 14.9981
Au 31.4704 12.8372 16.0816
Au 33.5885 15.6403 16.8977
Au 7.62317 24.3808 21.4188
Au 9.1111 26.9595 22.2379
Au 10.8213 29.0203 23.0728
Au 12.5345 31.0798 23.6152
Au 7.76402 20.9198 19.5036
Au 9.64038 22.9179 20.3733
Au 11.2947 25.5117 21.2091
Au 12.8192 27.7198 22.0086
Au 14.7182 29.5888 22.7876
Au 16.4354 31.6432 23.6732
Au 8.43864 17.5073 18.0294
Au 10.0934 19.5776 18.8118
Au 11.9559 21.6941 19.4377
Au 13.5396 23.888 20.4085
Au 15.1701 26.1221 21.1698
Au 17.0779 28.0198 21.9735
Au 18.8246 30.2635 22.597
Au 20.5722 32.299 23.3092
Au 9.08292 13.9955 16.6309
Au 10.535 16.0191 17.2619
Au 12.3155 18.183 17.9723
Au 14.3034 20.2776 18.6977
Au 15.7219 22.5001 19.5773
Au 17.5522 24.6739 20.332
Au 19.2069 26.6913 20.9822
Au 21.145 28.7308 21.8813
Au 23.0643 30.825 22.7845
Au 24.6706 32.8909 23.4521
Au 11.1509 12.5371 15.5033
Au 12.8059 14.6365 16.4286
Au 14.5608 16.6779 17.1521
Au 16.4379 18.8049 17.6784
Au 17.9666 20.9409 18.5976
Au 19.878 22.9723 19.4475
Au 21.691 25.1141 20.0808
Au 23.449 27.2295 20.8296
Au 25.2553 29.4332 21.6173
Au 27.0982 31.4119 22.4057
Au 13.486 11.1971 14.4681
Au 15.2103 13.2031 15.4176
Au 16.8953 15.3256 16.1339
Au 18.761 17.2807 17.0384
Au 20.3759 19.68 17.7388
Au 22.2148 21.5661 18.5032
Au 24.0417 23.5484 19.3332
Au 25.8405 25.7432 20.0813
Au 27.5411 28.1356 20.7334
Au 29.37 30.0138 21.4085
Au 15.7495 9.65103 13.7659
Au 17.3627 11.5842 14.4936
Au 19.254 13.59 15.0764
Au 20.8083 15.9356 15.9356
Au 22.6865 18.2144 16.8157
Au 24.608 20.2105 17.6175
Au 26.3655 22.0615 18.2932
Au 27.9785 24.315 19.1669
Au 29.7745 26.5086 19.8526
Au 31.5996 28.4601 20.5409
Au 19.7836 10.0722 13.6501
Au 21.5483 12.1175 14.2045
Au 23.1443 14.3531 14.9855
Au 25.1487 16.4976 15.8374
Au 26.8151 18.6074 16.6396
Au 28.4438 20.9186 17.3949
Au 30.3968 22.8181 18.291
Au 31.9946 25.0577 19.153
Au 23.8572 10.6074 13.2835
Au 25.564 12.6801 13.9943
Au 27.3879 14.9766 14.9184
Au 29.2373 16.9604 15.7595
Au 30.6545 19.2806 16.5057
Au 32.4299 21.1657 17.1919
Au 27.63 11.3203 13.2197
Au 29.5323 13.4734 14.0724
Au 31.5749 15.2794 15.1204
Au 32.7535 18.0302 15.6927
Au 7.35949 23.3631 18.6342
Au 9.07535 25.4631 19.5452
Au 10.5569 28.0268 20.1431
Au 12.5079 30.2629 20.9798
Au 14.4303 32.2574 21.7718
Au 7.81476 19.9827 16.9849
Au 9.51443 22.1978 17.6242
Au 11.2751 24.4805 18.7324
Au 12.9998 26.6813 19.2294
Au 14.6503 28.6352 20.0945
Au 16.4997 30.7623 21.0909
Au 18.2026 32.8339 21.6008
Au 8.61343 16.7673 15.5097
Au 10.1959 18.7232 16.2091
Au 11.9809 20.8973 16.8783
Au 13.6228 22.9477 17.8151
Au 15.391 25.1814 18.4248
Au 16.9043 27.254 19.3064
Au 18.8406 29.1704 19.9812
Au 20.5141 31.3566 20.7926
Au 22.5243 33.1032 21.524
Au 10.6758 15.0347 14.641
Au 12.455 17.2824 15.3688
Au 14.1738 19.4039 15.998
Au 15.9743 21.5365 16.871
Au 17.7537 23.5109 17.6199
Au 19.4872 25.6624 18.447
Au 21.3279 27.8261 19.1782
Au 22.949 30.0447 19.9849
Au 24.6768 32.0805 20.8379
Au 12.9391 13.6863 13.6738
Au 14.5394 15.7343 14.388
Au 16.474 17.9672 15.1474
Au 18.2033 19.9601 15.8564
Au 20.1281 21.8925 16.6323
Au 21.7952 24.147 17.4457
Au 23.5841 26.2918 18.2644
Au 25.349 28.3844 18.9802
Au 27.1339 30.7207 19.7291
Au 15.2912 12.0817 12.4878
Au 16.9506 14.1893 13.5479
Au 18.715 16.296 14.1693
Au 20.6229 18.4932 15.0304
Au 22.4737 20.7222 15.857
Au 24.1521 22.7807 16.5902
Au 25.7124 24.8943 17.3427
Au 27.7305 27.0396 18.0595
Au 29.3936 28.9706 18.8063
Au 17.5489 10.5353 11.9139
Au 19.0353 12.6315 12.5043
Au 20.9038 14.7474 13.2539
Au 22.6778 16.923 14.2713
Au 24.6274 19.1441 14.7148
Au 26.2393 21.2249 15.521
Au 28.0152 23.4652 16.5091
Au 30.0178 25.4126 17.3154
Au 31.4614 27.5041 17.879
Au 21.511 10.9944 11.6586
Au 23.3988 13.2886 12.3177
Au 25.238 15.4346 13.2199
Au 26.9924 17.6436 13.8921
Au 28.5641 19.5069 14.535
Au 30.2126 21.8534 15.496
Au 32.1341 23.8482 16.4256
Au 25.7307 11.8084 11.4112
Au 27.529 13.9928 12.2473
Au 29.0644 16.0043 12.9563
Au 30.8346 18.2008 13.765
Au 32.4975 20.3817 14.5465
Au 7.47288 22.7112 15.735
Au 9.13833 24.8417 16.7787
Au 10.7306 27.0914 17.6008
Au 12.6237 29.1067 18.1745
Au 14.3138 31.2217 19.1422
Au 16.3335 33.0927 19.6804
Au 8.15612 19.1361 14.4898
Au 9.64601 21.2476 14.9707
Au 11.3623 23.498 15.974
Au 13.1765 25.6237 16.789
Au 14.6929 27.7741 17.438
Au 16.5842 29.852 18.2502
Au 18.4418 31.7077 18.9862
Au 20.0747 33.8765 19.7908
Au 10.3762 17.7486 13.5726
Au 11.788 20.0175 14.1986
Au 13.8519 22.1269 15.0448
Au 15.6178 24.1946 15.7819
Au 17.1183 26.2548 16.6271
Au 18.9452 28.2117 17.5002
Au 20.82 30.5523 18.0827
Au 22.5318 32.709 18.8241
Au 12.5392 16.3094 12.6655
Au 14.1895 18.5076 13.1674
Au 16.0184 20.516 14.0682
Au 17.9644 22.6627 15.0084
Au 19.5887 24.7315 15.8506
Au 21.3326 26.948 16.5967
Au 23.1568 29.1181 17.1538
Au 24.7594 31.2435 18.1842
Au 14.7979 14.6394 11.848
Au 16.5565 16.7697 12.4456
Au 18.2665 19.0556 13.2294
Au 20.1001 21.0715 14.0223
Au 21.8583 23.2074 14.7722
Au 23.6629 25.2836 15.4761
Au 25.5826 27.4112 16.2473
Au 27.2747 29.6054 17.0148
Au 17.1044 13.004 10.7476
Au 18.7323 15.2753 11.3938
Au 20.5036 17.4825 12.332
Au 22.336 19.5371 13.2916
Au 24.1732 21.9159 13.7722
Au 25.9163 24.0022 14.6199
Au 27.8419 26.0546 15.3762
Au 29.5931 27.9443 16.1269
Au 19.3811 11.6224 9.9114
Au 21.1304 13.6532 10.7656
Au 22.9894 16.1132 11.7315
Au 24.8883 18.017 12.173
Au 26.6683 20.2059 12.8199
Au 28.1087 22.385 13.7696
Au 29.9026 24.4204 14.6683
Au 31.9707 26.0627 15.127
Au 23.415 12.2934 9.88557
Au 25.2862 14.4327 10.5874
Au 27.0403 16.5598 11.1803
Au 28.7508 18.551 11.9323
Au 30.392 20.8554 12.8155
Au 32.026 22.9226 13.9978
Au 7.72245 21.7116 13.1914
Au 9.19851 23.9607 14.1553
Au 10.8737 25.9805 15.0113
Au 12.6679 28.1942 15.5734
Au 14.368 30.5173 16.5935
Au 16.3347 32.418 16.954
Au 18.1932 34.2361 17.9128
Au 9.88087 20.4139 12.4367
Au 11.7051 22.6249 13.2856
Au 13.3447 24.6513 14.0433
Au 15.1599 26.7472 14.5394
Au 16.6376 28.8567 15.6715
Au 18.5835 30.728 16.2468
Au 20.2144 32.9819 17.0209
Au 12.0872 18.8117 11.4445
Au 13.8031 21.1168 12.2897
Au 15.6876 23.0547 13.2611
Au 17.5043 25.2959 13.9098
Au 19.106 27.5289 14.8596
Au 21.0014 29.4871 15.5202
Au 22.6389 31.5877 16.1943
Au 14.2945 17.2389 10.7644
Au 16.1904 19.5372 11.4174
Au 17.9431 21.7001 12.1633
Au 19.9025 23.7496 12.8251
Au 21.3688 25.9971 13.826
Au 23.2532 28.1214 14.4889
Au 25.1481 30.2035 15.3388
Au 16.4737 15.8118 9.78105
Au 18.3409 17.9581 10.531
Au 20.2638 20.0546 11.1905
Au 21.9674 22.1844 12.0235
Au 23.6987 24.6037 12.8229
Au 25.4369 26.628 13.6042
Au 27.4185 28.7047 14.4811
Au 18.9845 14.2511 8.92334
Au 20.7046 16.4718 9.69606
Au 22.5356 18.6472 10.3994
Au 24.1532 20.7121 11.2928
Au 26.1494 22.9459 11.9518
Au 27.9163 24.9509 12.6818
Au 29.5593 26.9673 13.4155
Au 21.3003 12.7389 8.34792
Au 22.8663 15.0091 8.97365
Au 24.9304 16.9342 9.63863
Au 26.6078 19.1566 10.0776
Au 28.2758 21.4202 11.0039
Au 29.8227 23.3515 11.6807
Au 31.2933 25.1093 12.5765
Au 9.64896 23.0617 11.5714
Au 11.2206 25.0905 12.2813
Au 12.7319 27.0729 13.074
Au 14.5155 29.2694 13.6219
Au 16.2156 31.2514 14.441
Au 18.0324 33.1932 14.988
Au 11.6714 21.4927 10.637
Au 13.4706 23.6712 11.4277
Au 15.3273 25.6764 12.1104
Au 17.029 27.9348 12.8521
Au 18.6844 29.9079 13.5731
Au 20.3255 31.8421 14.348
Au 13.9504 19.9631 9.69924
Au 15.8461 22.1015 10.5533
Au 17.7486 24.2233 11.1566
Au 19.3861 26.5192 11.9178
Au 20.9512 28.6064 12.857
Au 22.8334 30.6946 13.5367
Au 16.2013 18.4145 8.79212
Au 18.0759 20.7357 9.51765
Au 19.9841 22.6556 10.0643
Au 21.5021 24.8775 11.0219
Au 23.2891 27.1508 11.8806
Au 25.0894 29.2888 12.8453
Au 18.561 16.7389 7.90625
Au 20.3928 19.0361 8.66456
Au 22.2505 21.3249 9.36065
Au 23.7901 23.5566 10.0597
Au 25.6628 25.5578 11.021
Au 27.2277 27.7079 11.8566
Au 20.843 15.4767 7.31402
Au 22.6478 17.6466 7.74653
Au 24.4347 19.7407 8.77796
Au 26.0665 21.9832 9.40269
Au 27.9075 23.963 10.0338
Au 29.3546 26.1596 10.7946
Au 11.4807 23.953 9.69097
Au 13.1065 26.0781 10.3605
Au 14.7577 28.0681 11.2676
Au 16.6105 30.2703 11.7629
Au 18.3728 32.303 12.6354
Au 13.6739 22.4385 8.9163
Au 15.3975 24.6316 9.51187
Au 17.033 26.5776 10.223
Au 18.8289 28.9338 10.571
Au 20.6195 30.8475 11.663
Au 15.9462 21.1902 7.9743
Au 17.5543 23.2974 8.51888
Au 19.4593 25.5315 9.34675
Au 21.298 27.5742 9.92801
Au 22.6872 29.6194 11.1833
Au 18.2103 19.4915 7.06117
Au 19.7562 21.6806 7.46665
Au 21.6871 23.8872 8.32132
Au 23.5612 26.0418 9.22272
Au 24.9984 28.121 10.1902
Au 20.5149 17.7394 6.24537
Au 21.9911 20.2315 6.87125
Au 23.8483 22.5121 7.64522
Au 25.8024 24.3751 8.26601
Au 27.2048 26.5403 9.2168
Au 8.02674 22.9606 24.9657
Au 9.51158 24.9695 25.9072
Au 11.4823 27.2576 26.7749
Au 12.8771 29.4424 27.2238
Au 8.44939 19.2401 23.5833
Au 10.0243 21.5511 24.1868
Au 11.8383 23.5652 24.9821
Au 13.3549 25.7318 25.7942
Au 15.1099 27.9989 26.5128
Au 16.744 30.17 27.1886
Au 8.84278 15.5902 22.1486
Au 10.3803 17.8842 22.6691
Au 12.3457 19.9922 23.3892
Au 14.0458 22.002 24.2162
Au 15.698 24.3618 25.0749
Au 17.4287 26.4722 25.9199
Au 19.0153 28.646 26.346
Au 21.0804 30.6626 27.0717
Au 9.5418 12.2552 20.055
Au 10.9122 14.4751 20.8979
Au 12.6527 16.5059 21.8491
Au 14.5571 18.3784 22.2965
Au 16.2524 20.6575 23.0993
Au 17.9902 22.7099 23.9887
Au 19.7389 24.9635 24.6513
Au 21.4763 27.2111 25.4984
Au 23.2791 29.1249 26.0455
Au 25.2228 31.0089 26.786
Au 11.533 10.7426 19.2142
Au 13.2778 12.6574 20.1173
Au 15.0026 15.0245 20.7934
Au 16.8676 17.2876 21.5262
Au 18.5216 19.445 22.3976
Au 20.1999 21.4112 23.2051
Au 21.9875 23.6771 23.6239
Au 23.5485 25.7706 24.7031
Au 25.6496 27.7411 25.5825
Au 27.5367 29.8022 26.0851
Au 13.8349 9.23034 18.3861
Au 15.4632 11.2448 19.2539
Au 17.1473 13.5322 19.9355
Au 19.0174 15.6334 20.6061
Au 20.7132 17.8511 21.4162
Au 22.682 19.9026 22.4011
Au 24.2468 21.9147 23.1177
Au 26.0748 24.2834 23.6505
Au 27.8751 26.2017 24.5659
Au 29.593 28.3402 25.1035
Au 16.0852 7.95454 17.114
Au 17.7316 10.0579 17.949
Au 19.5934 12.1691 18.8937
Au 21.3885 14.3588 19.4611
Au 23.2662 16.2743 20.6568
Au 24.94 18.5905 21.3782
Au 26.6381 20.5252 22.2386
Au 28.3753 22.6853 22.908
Au 30.1441 24.8319 23.4598
Au 31.6486 26.7433 24.3992
Au 20.1363 8.64782 17.0179
Au 21.885 10.5964 17.8746
Au 23.6527 12.9031 18.3637
Au 25.3775 14.8326 19.4702
Au 27.1486 16.8596 20.3969
Au 29.0489 18.8135 21.1465
Au 30.6127 21.3084 21.9036
Au 32.3991 23.4237 22.5579
Au 24.1297 8.94471 17.2357
Au 25.8234 11.251 17.8253
Au 27.6833 13.4356 18.6867
Au 29.3549 15.3276 19.5269
Au 31.0912 17.4637 20.1764
Au 32.7837 19.7712 20.9225
Au 27.9731 9.82604 16.998
Au 29.6455 11.7922 17.6689
Au 31.5479 13.8316 18.7164
Au 33.2215 15.9836 19.4083
Au 8.26774 20.4591 26.045
Au 10.1292 22.3726 26.7921
Au 11.6883 24.4293 27.713
Au 13.3501 26.7547 28.6806
Au 15.3694 29.1871 29.2347
Au 8.93878 16.8123 24.738
Au 10.4983 19.0222 25.419
Au 12.3514 20.925 26.1198
Au 13.9457 23.0197 26.9847
Au 15.5486 25.5906 27.5411
Au 17.4956 27.5717 28.5157
Au 19.069 29.8931 28.8089
Au 9.6214 13.2067 22.9087
Au 11.074 15.2556 23.7845
Au 12.6781 17.4958 24.4974
Au 14.5756 19.526 25.1976
Au 16.2304 21.6488 26.1457
Au 17.7555 23.9572 26.8427
Au 19.6961 25.8918 27.4277
Au 21.276 28.0478 28.1224
Au 23.138 30.0279 28.6872
Au 11.6205 11.6065 22.1683
Au 13.1885 13.7573 22.7837
Au 14.8738 15.8514 23.484
Au 16.7532 18.0537 24.2429
Au 18.4641 20.125 25.2091
Au 20.0076 22.4722 25.9713
Au 22.0104 24.4145 26.59
Au 23.7119 26.5358 27.3146
Au 25.5226 28.8568 28.2339
Au 13.7343 10.0716 21.1531
Au 15.3049 12.2831 21.9627
Au 17.237 14.588 22.5629
Au 19.1083 16.4839 23.4395
Au 20.6915 18.6983 24.0582
Au 22.1806 21.1303 24.9321
Au 24.2902 23.0757 25.8113
Au 26.0436 25.2542 26.5647
Au 28.007 27.2297 27.2005
Au 16.2143 8.58226 19.9345
Au 17.8521 10.8341 20.8596
Au 19.656 13.1343 21.6293
Au 21.4101 15.2419 22.2395
Au 22.958 17.4115 23.3845
Au 24.7538 19.3961 24.1966
Au 26.7135 21.4711 24.7859
Au 28.3388 23.6766 25.5602
Au 30.1601 25.6684 26.4064
Au 18.2346 7.57813 18.7839
Au 20.0053 9.59062 19.7303
Au 21.8074 11.663 20.5956
Au 23.6506 13.4837 21.2724
Au 25.3436 15.6759 22.3275
Au 27.0228 17.7676 23.055
Au 28.9777 20.1366 23.9158
Au 30.4724 22.1208 24.7987
Au 32.0826 24.0708 25.2537
Au 22.0938 8.07945 19.0856
Au 24.1017 10.1054 19.9097
Au 25.9803 12.1859 20.6877
Au 27.7034 14.3013 21.566
Au 29.472 16.395 22.2778
Au 31.091 18.496 22.9817
Au 32.6326 20.8939 23.7442
Au 26.1604 8.84301 18.8292
Au 27.9656 10.7113 19.6148
Au 29.7233 12.6751 20.5813
Au 31.3807 14.8016 21.3222
Au 33.1474 17.1143 21.927
Au 8.91268 17.8282 27.3646
Au 10.4429 19.8325 28.0128
Au 12.0989 21.9574 28.7702
Au 13.8262 24.3481 29.546
Au 15.6821 26.7108 30.2669
Au 17.5758 28.5796 30.95
Au 9.45906 14.0755 25.7314
Au 11.1395 16.2033 26.2836
Au 12.6959 18.3119 27.3851
Au 14.545 20.4953 28.0922
Au 16.137 22.8986 28.7541
Au 17.727 24.9041 29.4182
Au 19.7579 26.8107 30.2318
Au 21.2434 29.06 30.8487
Au 11.5778 12.607 24.839
Au 13.3653 14.6671 25.4229
Au 14.9516 16.8449 26.1629
Au 16.6092 18.9077 26.9287
Au 18.3693 21.041 27.9182
Au 20.2755 23.3572 28.7009
Au 22.0178 25.5101 29.3605
Au 23.6603 27.7422 29.8985
Au 13.7068 11.1838 23.7955
Au 15.4806 13.1511 24.6534
Au 17.1554 15.5475 25.2621
Au 19.0756 17.4824 26.0489
Au 20.6419 19.8845 26.8332
Au 22.5162 21.9304 27.6822
Au 24.218 24.0441 28.3945
Au 25.8199 26.2374 28.9197
Au 16.0252 9.63859 22.4783
Au 17.7706 11.7659 23.4164
Au 19.3399 13.9273 24.3929
Au 21.2907 16.0079 25.12
Au 23.0611 18.3242 25.8858
Au 24.7835 20.3867 26.6555
Au 26.5216 22.5082 27.6745
Au 28.2651 24.7811 28.313
Au 18.2454 8.17954 21.7845
Au 19.9712 10.3499 22.4571
Au 21.6625 12.5066 23.2931
Au 23.4652 14.3118 24.0889
Au 25.2267 16.7562 25.0284
Au 27.01 18.6774 25.7424
Au 28.6165 21.1039 26.7057
Au 30.6139 23.0209 27.4057
Au 20.4321 7.21993 20.8952
Au 22.3059 8.97461 21.7641
Au 24.0716 10.9398 22.5143
Au 25.7543 13.0472 23.3608
Au 27.4159 15.1933 24.0759
Au 29.2436 17.2369 24.8914
Au 30.9541 19.4854 25.6266
Au 32.6009 21.4133 26.3814
Au 24.2504 7.72712 20.7514
Au 26.4261 9.59542 21.6693
Au 28.0223 11.6024 22.4946
Au 29.8035 13.504 23.4315
Au 31.6124 15.6971 23.9319
Au 33.2138 18.0674 24.3862
Au 9.48916 15.353 28.29
Au 10.9677 17.1878 29.1807
Au 12.7282 19.5407 29.8872
Au 14.3816 21.6519 30.3938
Au 15.9444 23.7731 31.438
Au 17.8337 26.0225 31.987
Au 19.8441 28.0317 32.7245
Au 11.5786 13.6702 27.3625
Au 13.2278 15.6628 28.2895
Au 15.0127 17.929 29.2741
Au 16.6349 19.928 29.9238
Au 18.2916 22.2254 30.5189
Au 20.0991 24.266 31.2543
Au 22.1288 26.4863 31.8635
Au 13.6153 11.9779 26.5969
Au 15.366 14.2479 27.1877
Au 17.0882 16.3756 28.1196
Au 18.9508 18.4369 28.8958
Au 20.4727 20.7993 29.4436
Au 22.6383 22.8476 30.3746
Au 24.3745 25.0428 31.0846
Au 15.9264 10.7002 25.3805
Au 17.7317 12.775 26.3159
Au 19.4109 14.9736 27.1886
Au 21.2746 17.1812 27.7814
Au 22.8402 19.2627 28.5374
Au 24.6642 21.4292 29.3859
Au 26.5464 23.6537 30.1851
Au 18.027 9.09468 24.4578
Au 19.9056 11.0915 25.2184
Au 21.8216 13.5114 26.2307
Au 23.3906 15.6265 26.8636
Au 25.2752 17.8221 27.7116
Au 26.8365 19.8611 28.5629
Au 28.7144 22.0163 29.124
Au 20.4277 7.66882 23.4958
Au 22.2067 9.73751 24.3937
Au 23.9663 11.8502 25.1858
Au 25.5878 14.0975 25.9969
Au 27.4608 16.0673 26.835
Au 29.2428 18.2392 27.5466
Au 30.6938 20.3924 28.2551
Au 22.8217 6.59259 22.9386
Au 24.5028 8.37119 23.5994
Au 26.42 10.3205 24.3043
Au 27.9643 12.7228 25.1669
Au 29.8747 14.779 25.8482
Au 31.4872 16.7993 26.374
Au 32.8424 18.903 27.3114
Au 11.5577 14.4042 29.9702
Au 13.1812 16.799 30.8916
Au 14.9664 19.1379 31.8859
Au 16.4122 21.2874 32.3634
Au 18.2818 23.3821 33.0881
Au 20.0551 25.5732 33.5313
Au 13.7231 13.0489 29.327
Au 15.5404 15.453 30.0221
Au 17.4004 17.2898 30.9364
Au 18.7414 19.6288 31.7113
Au 20.4784 21.791 32.1144
Au 22.332 23.8894 33.0266
Au 15.9771 11.5577 28.2989
Au 17.7867 13.7063 28.996
Au 19.5603 15.8493 29.7862
Au 21.0779 18.1474 30.6645
Au 22.8426 20.1445 31.1427
Au 24.599 22.2555 32.0717
Au 18.0494 10.0425 27.0373
Au 19.8564 12.1533 27.8628
Au 21.6517 14.3112 28.8523
Au 23.2199 16.4829 29.6342
Au 24.9016 18.6937 30.3855
Au 26.8475 20.9161 30.9556
Au 20.3833 8.70407 26.4177
Au 22.1568 10.788 27.0303
Au 23.8985 13.0193 27.9738
Au 25.4925 15.3034 28.8139
Au 27.332 17.3831 29.5052
Au 29.2864 19.2785 30.416
Au 22.6195 7.22812 25.2649
Au 24.3728 9.27575 26.0662
Au 26.2135 11.2882 26.8815
Au 27.758 13.3895 27.697
Au 29.5391 15.5816 28.5883
Au 31.1578 17.675 29.1633
Au 13.7408 14.3278 31.6786
Au 15.252 16.4255 32.4839
Au 17.1355 18.3971 33.4108
Au 18.5632 20.946 34.1239
Au 20.3347 22.957 34.5803
Au 15.8312 12.8805 30.7547
Au 17.8533 14.8303 31.8715
Au 19.3648 16.9927 32.6295
Au 21.0796 19.0547 33.3316
Au 22.5373 21.3027 33.6277
Au 18.1349 11.0194 29.5448
Au 19.9194 13.176 30.5446
Au 21.4366 15.2692 31.6784
Au 23.1574 17.2758 32.3149
Au 24.9281 19.341 32.7718
Au 20.4729 9.66804 28.8149
Au 21.9923 11.8067 29.6694
Au 23.6657 13.9584 30.5304
Au 25.6813 16.1633 31.4173
Au 27.1717 18.1977 32.018
Au 22.6333 8.21153 27.8546
Au 24.2952 10.4267 28.555
Au 26.0048 12.5647 29.4283
Au 27.5406 14.6185 30.1541
Au 29.1628 16.5072 31.1107
