75
 Atoms. Timestep: 50000
Au 20.8931 18.1012 25.3792
Au 20.8186 19.3852 23.0199
Au 20.2275 20.5463 20.3431
Au 20.2167 21.6524 17.7539
Au 19.9029 22.7804 15.4255
Au 18.4456 18.8486 24.4112
Au 18.0401 19.8962 22.034
Au 17.7357 21.01 19.4131
Au 17.6136 21.9982 16.7588
Au 20.1451 20.9422 25.1649
Au 19.8059 22.0403 22.7744
Au 19.5685 23.2707 20.2493
Au 19.2324 24.2624 17.5433
Au 22.9358 20.023 24.9213
Au 22.8341 21.12 22.1264
Au 22.5864 22.4255 19.363
Au 22.1436 23.6036 16.8321
Au 22.6922 17.113 23.5545
Au 22.4728 18.4576 20.9394
Au 22.1073 19.7222 18.2344
Au 21.8112 20.7255 15.7593
Au 19.997 16.6898 23.3414
Au 19.685 17.767 20.9371
Au 19.3919 18.8782 18.149
Au 19.1655 20.0578 15.5269
Au 15.5744 19.2304 23.3783
Au 15.4904 20.3452 20.9941
Au 15.3299 21.2488 18.351
Au 17.4852 21.4442 24.2242
Au 17.1778 22.6019 21.6457
Au 17.1193 23.7181 18.848
Au 19.4106 23.6115 24.9679
Au 18.9398 24.7403 22.6523
Au 18.5073 25.8065 19.8002
Au 22.0889 22.6409 24.3849
Au 21.8875 23.5673 21.7622
Au 21.4599 24.9307 19.1452
Au 24.557 21.8954 23.807
Au 24.6713 23.1519 21.1848
Au 24.2048 24.3209 18.4799
Au 24.4815 19.1117 22.9305
Au 24.2365 20.3458 19.998
Au 24.1052 21.6323 17.2647
Au 24.2827 16.5522 21.4364
Au 24.2694 17.7189 18.8546
Au 23.8734 19.0096 16.4488
Au 21.6844 15.7412 21.4045
Au 21.3539 17.0241 18.8305
Au 21.1946 18.0356 15.8957
Au 19.1621 15.1055 21.1848
Au 18.867 15.9916 18.5466
Au 18.7664 17.25 15.9655
Au 17.4615 17.2046 22.4637
Au 17.2687 18.2362 19.7744
Au 17.0995 19.4156 17.1488
Au 15.0804 21.8511 23.0052
Au 15.0177 23.0099 20.2549
Au 16.8692 23.9048 23.8862
Au 16.6205 25.1309 21.2061
Au 21.3053 25.2806 23.8913
Au 20.7843 26.1625 21.3513
Au 23.6833 24.5243 23.4479
Au 23.3553 25.6401 20.9228
Au 26.0505 20.9163 21.8172
Au 25.7286 22.2058 19.151
Au 25.8638 18.4481 20.9065
Au 25.9042 19.5479 18.0775
Au 23.3256 15.2621 19.2678
Au 23.0191 16.4797 16.8086
Au 20.8659 14.3519 19.2228
Au 20.5491 15.5035 16.6296
Au 16.7798 15.6043 20.3625
Au 16.5058 16.7479 17.7246
Au 14.959 17.5317 21.1651
Au 14.8783 18.5761 18.7977
