92
 Atoms. Timestep: 50000
Au 22.6216 17.6866 15.3659
Au 16.0459 19.8817 24.1695
Au 20.1875 22.0352 21.0358
Au 24.9336 24.1261 19.2945
Au 18.9481 20.554 18.24
Au 18.3493 17.6744 17.8587
Au 18.7958 14.0824 20.5141
Au 22.2523 27.1966 21.4957
Au 19.4924 26.7988 21.0554
Au 24.3918 15.21 16.3155
Au 20.4406 15.5623 22.7326
Au 25.4182 19.0902 18.4361
Au 21.0707 18.5182 17.5765
Au 19.5516 17.2985 24.7049
Au 17.5027 19.1146 20.1494
Au 24.9148 22.284 22.2934
Au 21.9358 17.0847 20.2961
Au 17.179 17.6647 15.3429
Au 22.1962 16.5273 24.6374
Au 21.3786 24.2998 25.6472
Au 15.8688 17.1552 17.5927
Au 18.4377 25.9394 18.6898
Au 18.303 20.0623 15.5839
Au 18.2763 24.8353 16.43
Au 15.7275 23.3284 21.239
Au 23.1444 19.6123 19.5675
Au 24.1128 14.8448 19.7312
Au 16.9262 17.5339 24.7081
Au 23.3931 25.4937 24.0888
Au 21.5259 21.4191 18.0475
Au 23.9197 17.9987 23.5271
Au 16.4511 24.1313 18.716
Au 19.811 13.5945 17.8655
Au 24.5702 17.368 20.4405
Au 23.2946 16.9646 17.9357
Au 17.0862 22.3985 16.8467
Au 19.6406 22.3082 16.0803
Au 15.7536 18.0067 22.08
Au 25.4138 17.7874 16.0951
Au 16.8202 24.442 23.5732
Au 22.6304 14.1368 17.8506
Au 17.7843 15.0506 18.385
Au 14.8126 18.7116 19.5644
Au 25.857 16.2824 18.2305
Au 21.343 24.6861 20.7467
Au 17.6678 16.062 22.5249
Au 21.3607 15.5486 15.8746
Au 22.4062 24.1389 18.1696
Au 19.6341 23.4664 18.6037
Au 20.3787 20.6343 23.5841
Au 21.1802 18.0646 22.6953
Au 19.9112 17.756 15.2883
Au 22.9646 22.3422 20.2162
Au 17.4343 22.292 25.4368
Au 18.544 24.2292 21.2165
Au 15.3424 20.5429 21.4822
Au 24.3142 20.5073 24.1559
Au 19.9566 22.0365 26.1528
Au 21.1451 20.1444 15.3164
Au 17.5999 21.9801 19.9194
Au 24.0396 24.649 21.7352
Au 23.4411 26.3815 19.6063
Au 18.471 19.5855 25.479
Au 23.1404 15.6494 22.2885
Au 24.214 23.333 24.6716
Au 18.3701 26.4074 23.5148
Au 16.3755 16.3565 20.1279
Au 25.7327 21.483 19.7835
Au 15.1325 21.8037 18.9179
Au 25.2114 19.6531 21.5988
Au 18.8348 24.7557 25.4783
Au 20.8495 25.6451 23.3428
Au 21.622 14.3481 20.3843
Au 15.1631 22.4845 23.7502
Au 18.5095 15.4962 15.9801
Au 20.9214 26.535 18.8253
Au 22.381 21.6898 25.5073
Au 18.2438 18.7646 22.6851
Au 20.6468 25.0061 16.3891
Au 19.1953 16.7838 20.6064
Au 19.5621 23.3363 23.7009
Au 22.0796 22.7868 15.8073
Au 16.6694 25.8216 21.1181
Au 20.3349 19.3645 20.2717
Au 23.5142 19.7954 16.5962
Au 21.8865 19.0818 25.1608
Au 16.3771 19.8108 17.7899
Au 24.1789 22.0043 17.7291
Au 17.5877 21.5734 22.5996
Au 20.4574 15.9673 18.323
Au 22.6611 20.4687 22.0861
Au 22.1853 22.9905 23.0706
