92
 Atoms. Timestep: 50000
Au 22.9127 14.2433 18.9613
Au 23.6942 16.0934 21.2636
Au 18.6471 25.6502 24.4866
Au 22.951 19.4239 18.115
Au 15.5983 19.5923 18.9855
Au 22.5618 15.207 23.7037
Au 16.137 25.0787 20.7247
Au 21.0263 26.6551 23.6003
Au 18.6093 23.0844 25.1654
Au 20.9973 17.3717 17.5247
Au 14.4293 17.4181 20.533
Au 18.8716 21.162 15.5655
Au 18.43 16.5921 16.8868
Au 23.3764 22.9866 15.6084
Au 20.3574 18.7763 24.8705
Au 22.1007 22.3767 17.7702
Au 17.7678 23.4649 15.7416
Au 22.6603 13.4989 21.506
Au 22.3994 18.0549 15.4003
Au 21.7218 20.7139 15.4039
Au 19.2949 22.5213 17.9633
Au 24.9149 21.8319 17.9665
Au 17.7857 26.4957 22.2499
Au 20.496 14.1611 22.3268
Au 19.0346 17.7285 19.5611
Au 24.6845 17.7476 16.4936
Au 20.7178 21.501 20.4901
Au 16.7033 21.5349 17.2074
Au 24.2413 20.3205 16.0546
Au 25.0861 25.4614 21.1133
Au 22.1204 16.9993 25.1808
Au 24.144 18.6885 20.9648
Au 19.7644 18.7104 15.2156
Au 24.7407 20.4401 22.921
Au 16.9335 21.3258 21.8452
Au 20.7495 24.3777 19.7062
Au 18.3319 14.9978 19.0347
Au 20.8332 21.5306 25.1573
Au 20.2309 13.1745 19.8997
Au 25.5339 19.4279 18.3854
Au 24.1546 17.6948 23.4332
Au 15.2689 16.7185 22.9944
Au 20.3905 20.0812 17.7192
Au 22.9938 15.563 16.4662
Au 23.3076 21.0749 20.3328
Au 18.7263 16.4536 21.931
Au 19.5853 22.0795 22.8174
Au 23.4283 23.6623 19.8407
Au 18.2389 20.36 24.5087
Au 16.4064 17.0588 18.5965
Au 20.3916 23.3629 15.543
Au 17.111 14.9178 23.3741
Au 15.6641 22.1743 19.5088
Au 20.6245 16.1686 15.192
Au 16.8178 24.2295 17.998
Au 19.4003 25.2029 17.4107
Au 25.0297 23.0725 22.2671
Au 19.7908 24.7892 22.2109
Au 19.6605 15.9926 24.4174
Au 22.0851 23.0842 22.0611
Au 23.3635 22.2425 24.2735
Au 18.0854 20.4742 19.6025
Au 15.7649 19.5231 23.4591
Au 14.4625 20.3674 21.1959
Au 21.1419 26.7694 18.6719
Au 23.9011 26.3076 19.0492
Au 17.6375 19.0715 17.2156
Au 24.8827 24.4413 17.5593
Au 16.2569 15.5001 20.9106
Au 17.5136 17.7017 24.243
Au 18.0417 13.5641 21.4013
Au 19.243 19.2425 22.3015
Au 26.0742 20.8839 20.6724
Au 23.0169 19.4607 25.0871
Au 20.0845 27.5053 21.3575
Au 20.9264 15.7392 20.2135
Au 21.9955 20.1812 22.7199
Au 14.7731 22.9191 22.1183
Au 22.3253 25.9159 21.4468
Au 15.8928 22.0909 24.2695
Au 17.2028 24.0621 22.9704
Au 16.8431 18.2682 21.3896
Au 21.3769 18.678 20.2605
Au 22.1859 24.8703 17.0277
Au 18.1836 23.3954 20.3661
Au 23.7211 24.9233 23.516
Au 18.3946 25.972 19.692
Au 21.1339 24.1252 24.4615
Au 26.0643 23.3504 19.7998
Au 23.2784 16.7459 18.8074
Au 20.5955 14.7014 17.4864
Au 21.3094 17.1841 22.6171
