92
 Atoms. Timestep: 50000
Au 24.1856 15.597 18.5585
Au 16.7375 17.6126 24.4016
Au 18.1011 25.6362 17.5755
Au 24.8207 22.7218 16.2606
Au 19.805 24.143 24.9997
Au 18.1535 21.8562 14.2792
Au 19.9311 20.1425 27.1463
Au 22.0711 23.1103 20.7434
Au 18.2837 25.2187 22.6504
Au 19.4583 19.5313 14.8725
Au 23.9388 18.6612 23.7185
Au 23.6514 17.7587 20.9433
Au 26.0882 20.8158 17.9837
Au 21.7483 16.9361 24.1831
Au 21.2695 16.5199 21.6986
Au 24.203 22.9487 22.724
Au 21.0044 23.1165 18.2781
Au 25.6929 16.3018 20.4132
Au 22.0588 14.5004 23.3857
Au 23.3839 24.6665 17.8442
Au 26.0663 23.5702 18.436
Au 23.492 21.8998 14.2101
Au 16.9069 16.9099 19.0171
Au 16.8438 20.6498 16.2238
Au 14.4232 23.0505 20.5941
Au 23.1358 17.3799 16.3618
Au 18.0934 23.1155 18.6142
Au 17.291 19.5502 25.9425
Au 18.4645 21.9992 26.0623
Au 19.3652 21.4357 16.6465
Au 26.1936 17.7834 22.5222
Au 20.5902 17.0917 15.4532
Au 19.507 16.097 17.9559
Au 20.9859 14.4282 19.2743
Au 19.6202 18.1905 19.7731
Au 23.3319 20.6396 21.286
Au 23.3516 19.4859 18.6386
Au 18.2253 22.6032 23.4444
Au 20.68 25.6946 17.6219
Au 15.7122 23.7768 22.8955
Au 21.8412 15.1506 16.8631
Au 18.376 18.3176 17.1849
Au 19.4549 20.1138 24.4083
Au 19.2706 20.3081 21.5875
Au 21.4585 19.1838 22.5767
Au 19.3365 17.6234 25.3356
Au 25.3734 18.0588 17.8988
Au 24.6003 19.8803 15.8339
Au 23.1199 14.9443 20.9105
Au 21.1727 22.0046 25.6433
Au 16.7705 21.8842 21.0134
Au 22.1923 19.3989 14.6447
Au 22.2503 21.3781 16.348
Au 14.5011 19.7066 24.653
Au 17.1748 24.5166 24.8639
Au 14.5328 20.239 20.1839
Au 22.4902 24.1063 24.5921
Au 15.7885 22.1192 25.0484
Au 19.3451 25.6005 20.0995
Au 15.5854 21.7287 18.3367
Au 21.964 25.5791 19.9865
Au 19.2431 23.0134 20.9942
Au 14.8485 18.5224 22.4287
Au 20.3369 13.8102 21.782
Au 20.8241 24.8189 22.4688
Au 25.8299 19.45 20.2667
Au 19.265 15.4574 23.4934
Au 24.4759 24.4038 20.3433
Au 21.8423 19.421 25.5166
Au 25.7721 22.1795 20.5097
Au 17.1114 23.4343 16.146
Au 15.5618 24.3918 18.215
Au 18.7189 15.6703 20.7867
Au 14.4775 21.3727 22.6883
Au 15.7686 18.9332 18.0033
Au 20.8119 21.7794 14.0684
Au 21.371 21.9621 23.1264
Au 18.8621 17.8602 22.5469
Au 22.3987 23.8771 15.6651
Au 25.5976 20.6779 22.6539
Au 17.9224 20.3662 18.8673
Au 20.8946 19.1379 17.3539
Au 16.9115 24.5602 20.5407
Au 16.8319 18.5865 20.8575
Au 24.1393 16.2322 23.0058
Au 23.6524 21.2328 24.5102
Au 20.8132 20.7054 19.4538
Au 23.5539 22.0993 18.6858
Au 16.9625 20.1815 23.3465
Au 21.9374 16.9463 18.8324
Au 16.4446 16.2619 21.8555
Au 19.6931 24.0052 15.6808
