923
 Atoms. Timestep: 50000
Au 20.4998 20.499 20.3795
Au 22.9091 21.5128 20.5456
Au 20.6109 23.0306 21.5365
Au 20.1861 17.9102 19.386
Au 17.9019 19.399 20.2138
Au 21.0531 22.4517 18.5586
Au 21.4197 20.6602 22.7654
Au 19.5022 20.1803 17.9242
Au 19.8594 18.4062 22.131
Au 22.2335 19.7276 18.4116
Au 22.4487 18.6768 20.9223
Au 18.4048 22.2093 20.0329
Au 18.8377 21.0363 22.4857
Au 25.4731 22.2875 20.7088
Au 20.9203 25.4625 22.5051
Au 19.7999 15.4345 18.3498
Au 15.3323 18.4902 19.9447
Au 21.5665 24.5127 16.8285
Au 22.5851 20.6671 25.1557
Au 18.2608 20.0935 15.4352
Au 18.9958 16.261 23.8061
Au 23.7233 19.1969 16.2257
Au 24.3411 16.7412 21.5296
Au 16.3204 23.9464 19.243
Au 16.9906 21.3958 24.4464
Au 23.3469 23.9902 21.6843
Au 23.6257 23.3743 18.6588
Au 21.4664 24.944 19.6053
Au 24.0978 21.6258 23.0248
Au 21.8373 23.09 23.8241
Au 24.7166 20.5376 18.5213
Au 22.6005 21.8202 16.5807
Au 24.8938 19.5836 21.1428
Au 23.471 18.7335 23.5267
Au 24.1909 17.7488 18.8581
Au 18.7472 24.799 20.8704
Au 18.9331 24.2877 18.1253
Au 18.8725 23.4315 23.6268
Au 19.8145 21.0547 25.0562
Au 16.8138 22.8965 21.9679
Au 17.6246 16.9102 19.1844
Au 19.1852 17.7289 16.7503
Au 16.8656 19.317 17.67
Au 19.4642 15.7927 21.0232
Au 17.0203 17.2556 21.9079
Au 21.8985 17.0391 17.3472
Au 21.0995 19.5689 15.8502
Au 22.0906 16.0281 19.8966
Au 21.7497 16.4657 22.6427
Au 15.7651 21.2138 19.8133
Au 17.3093 22.0789 17.3833
Au 16.2103 20.0213 22.3353
Au 18.0421 18.8599 24.1676
Au 19.808 22.2454 16.1349
Au 20.816 18.4423 24.697
Au 28.023 23.2886 20.8596
Au 21.1527 27.9151 23.5559
Au 19.6416 12.7955 16.8557
Au 12.7809 17.3326 19.6697
Au 22.3848 26.5151 15.253
Au 23.9321 20.7867 27.7487
Au 17.0347 20.0875 12.892
Au 18.3837 14.1265 25.4207
Au 25.6129 18.5996 14.325
Au 26.4067 14.9303 22.2253
Au 14.3834 25.7435 18.7533
Au 15.2677 22.1877 26.4704
Au 25.8724 24.8812 21.9139
Au 23.46 26.5238 22.7667
Au 26.2222 24.4727 18.9978
Au 24.3374 25.4991 17.2319
Au 21.6494 27.5155 20.7047
Au 21.8881 27.1097 18.0494
Au 24.0411 26.2514 20.052
Au 26.8673 22.5853 23.3067
Au 25.4008 21.6491 25.4652
Au 22.063 25.5909 25.1694
Au 23.0743 23.1177 26.4203
Au 24.5516 24.1 24.2672
Au 27.1758 21.6346 18.7151
Au 26.4137 20.1253 16.5365
Au 23.4092 23.6894 14.809
Au 24.579 21.2315 14.6188
Au 25.5465 22.8729 16.8141
Au 27.3607 20.4454 21.451
Au 26.9883 17.5544 21.7635
Au 24.6531 18.6029 26.0297
Au 25.5997 16.6338 24.2063
Au 26.1987 19.6788 23.8224
Au 25.9129 17.3644 16.7602
Au 26.0955 16.0158 19.4679
Au 26.8248 18.7823 19.0751
Au 18.9848 27.3606 22.027
Au 16.5145 26.5167 20.3094
Au 19.6388 26.3317 16.2476
Au 17.1241 26.0053 17.6039
Au 19.3292 27.018 19.1733
Au 19.2692 25.9936 24.515
Au 17.1954 24.2124 25.5605
Au 21.1209 21.1716 27.5214
Au 18.1477 21.6955 27.0771
Au 20.1229 23.5981 26.1915
Au 14.7098 24.6086 21.3717
Au 14.8684 23.4936 23.9767
Au 16.7987 25.497 22.9331
Au 17.1945 14.3342 18.1214
Au 15.099 15.8668 18.9885
Au 18.611 15.1868 15.6338
Au 17.8265 17.7015 14.2272
Au 14.1492 18.2827 17.3993
Au 15.5896 19.1627 15.0551
Au 16.358 16.8192 16.6376
Au 19.1668 13.1212 19.9195
Au 18.8454 13.6464 22.6971
Au 14.5138 16.2627 21.7338
Au 16.5272 15.0426 23.6447
Au 16.8721 14.6987 20.8481
Au 21.5857 14.6427 15.9826
Au 23.4928 16.6381 15.1454
Au 19.6067 19.6107 13.2207
Au 22.6713 19.1107 13.7196
Au 20.8356 17.0894 14.6633
Au 21.7843 13.3376 18.7549
Au 24.0418 14.1081 20.5087
Au 20.9862 14.249 24.4765
Au 23.7591 14.5937 23.2678
Au 21.5353 13.6391 21.5833
Au 23.8417 15.1686 17.6273
Au 13.1381 20.1094 19.4875
Au 13.709 23.0049 19.1263
Au 16.2049 22.0637 15.0266
Au 15.2924 23.8092 16.9183
Au 14.6873 21.2123 17.1497
Au 13.5367 18.9007 22.1438
Au 14.3296 20.4652 24.485
Au 17.3866 16.8272 26.0454
Au 16.2359 19.3559 26.1963
Au 15.2981 17.7356 24.0694
Au 13.9287 21.7099 21.8414
Au 20.4944 24.4644 14.328
Au 18.7536 22.1723 13.631
Au 21.5961 21.6225 13.9883
Au 18.0252 24.2164 15.4986
Au 22.0086 18.5699 27.0366
Au 20.1621 16.3934 26.3115
Au 22.8363 16.5161 25.1557
Au 19.0566 18.9999 26.977
Au 30.5189 24.2764 21.3496
Au 21.5964 30.4808 24.7744
Au 19.3753 10.239 16.0089
Au 10.2226 16.676 19.6829
Au 23.1908 28.4941 13.6508
Au 24.8645 21.0558 30.3777
Au 16.0064 19.8694 10.3549
Au 17.6371 12.3251 27.2505
Au 27.1848 17.7496 12.2085
Au 28.3428 13.0419 22.5445
Au 12.3431 27.7278 18.0491
Au 13.6782 22.7833 28.6584
Au 28.4215 25.9139 22.317
Au 26.0635 27.4351 23.0136
Au 23.8118 29.0571 23.7894
Au 28.7713 25.4997 19.4314
Au 27.0459 26.5003 17.405
Au 25.1772 27.5764 15.4522
Au 21.9566 29.9763 21.9664
Au 22.1034 29.5427 19.0441
Au 22.8007 29.1395 16.3551
Au 26.6756 27.0217 20.2278
Au 24.305 28.7155 20.9809
Au 24.5429 28.0351 18.2156
Au 29.3213 23.5868 23.5195
Au 28.0516 22.7803 25.8463
Au 26.5676 21.8184 28.0722
Au 22.3109 28.0243 26.2789
Au 23.1769 25.6284 27.7406
Au 23.9721 23.3088 29.1157
Au 27.1871 25.198 24.6145
Au 24.6002 26.5094 25.4617
Au 25.4613 24.2225 26.883
Au 29.7486 22.7912 18.8781
Au 29.0575 20.9862 16.6324
Au 28.206 19.5068 14.4425
Au 24.1279 25.9143 13.1272
Au 25.2251 23.2623 12.7101
Au 26.2652 20.524 12.3012
Au 28.0297 23.8026 16.9823
Au 26.1064 24.7876 15.0346
Au 27.0843 21.9295 14.5171
Au 29.9651 21.3727 21.6712
Au 29.5154 18.5294 21.7339
Au 29.1054 15.6799 22.3091
Au 25.6728 19.0045 28.4793
Au 26.7067 16.885 26.6108
Au 27.7268 14.8288 24.6163
Au 28.8315 20.4893 24.0574
Au 27.3046 19.7639 26.3086
Au 28.2158 17.7579 24.2215
Au 27.725 16.7107 14.6781
Au 27.7897 15.3587 17.3728
Au 28.3094 14.2662 19.924
Au 29.4418 19.7853 19.2481
Au 28.6339 18.1314 16.9232
Au 28.9158 16.8831 19.4791
Au 19.1862 29.7694 23.0942
Au 16.8196 29.1367 21.496
Au 14.5674 28.4286 19.812
Au 20.2768 28.2981 14.6688
Au 17.4675 28.191 15.7767
Au 15.0706 27.8834 16.8243
Au 19.4569 29.4999 20.1197
Au 19.7906 29.0628 17.4122
Au 17.1794 28.8551 18.5016
Au 19.4273 28.6895 25.6788
Au 17.3916 26.631 26.8252
Au 15.4273 24.8102 27.8294
Au 22.1585 21.4025 30.2075
Au 19.3325 21.9242 29.6878
Au 16.4186 22.4662 29.1987
Au 20.2895 26.3523 27.1835
Au 21.0785 23.7778 28.8172
Au 18.3043 24.3058 28.1796
Au 12.6454 26.519 20.7016
Au 12.9032 25.24 23.4813
Au 13.2854 24.1488 25.9994
Au 17.1685 27.9371 24.1245
Au 14.6973 27.2733 22.5731
Au 15.0985 26.1029 25.2356
Au 16.95 11.8677 16.8417
Au 14.5353 13.4638 17.9969
Au 12.2822 14.8297 18.6495
Au 18.3517 12.8337 14.5795
Au 17.5162 15.0982 12.9707
Au 16.6368 17.5024 11.7748
Au 11.539 17.4603 17.2901
Au 12.9288 18.0512 14.9067
Au 14.4206 19.0231 12.6033
Au 16.0269 14.1823 15.462
Au 13.67 15.6115 16.5027
Au 15.1947 16.4744 13.9892
Au 18.8454 10.7293 18.9117
Au 18.6371 10.9467 21.7369
Au 18.0471 11.5305 24.6039
Au 11.8818 15.3622 21.4945
Au 13.8734 14.2973 23.6165
Au 15.7041 13.2315 25.3632
Au 16.49 12.0249 19.7466
Au 14.2215 13.6877 20.6777
Au 16.3325 12.6256 22.4549
Au 21.2738 11.9751 15.0189
Au 23.1904 13.9451 13.8982
Au 25.1828 15.9898 13.0734
Au 18.69 19.3328 10.7418
Au 21.4411 18.8622 11.1711
Au 24.4887 18.4617 11.6147
Au 20.2834 14.5235 13.2441
Au 19.5634 16.9015 12.0428
Au 22.3679 16.4045 12.5002
Au 21.504 10.8442 17.7296
Au 24.0671 11.6083 19.1909
Au 26.0079 12.2589 21.0967
Au 20.4224 12.1855 26.1893
Au 23.1636 12.5731 25.0841
Au 25.838 12.837 23.9755
Au 21.3768 11.0456 20.5843
Au 20.7287 11.5176 23.4291
Au 23.561 11.6998 22.3398
Au 23.5516 12.5637 16.5026
Au 25.6332 14.5747 15.618
Au 25.8011 13.4615 18.3949
Au 10.6108 19.2886 19.2062
Au 11.1305 22.2217 18.808
Au 11.7243 24.8952 18.4371
Au 15.2872 22.1558 12.2583
Au 14.2524 23.8806 14.1971
Au 13.3396 25.6878 16.2623
Au 11.9774 20.1328 16.8279
Au 13.6297 21.0882 14.6937
Au 12.5979 22.8371 16.536
Au 10.961 18.1026 21.9284
Au 11.6552 19.6847 24.1268
Au 12.6273 21.4038 26.4601
Au 16.5803 14.8319 27.5953
Au 15.4114 17.4785 27.964
Au 14.6102 20.2401 28.3337
Au 12.6453 16.9112 23.9998
Au 14.6177 15.9423 25.8363
Au 13.2124 18.57 26.1312
Au 11.2783 20.7916 21.4642
Au 12.0213 23.6742 21.2282
Au 12.2646 22.4266 23.8597
Au 21.3571 26.6336 12.7262
Au 19.6635 24.3143 11.6776
Au 17.9331 22.1334 10.978
Au 22.4179 23.9695 12.2436
Au 20.5903 21.6918 11.4569
Au 23.4172 21.1438 11.9587
Au 18.5206 26.4032 13.6865
Au 16.9836 24.3297 12.7924
Au 15.9565 26.1326 14.8342
Au 23.2647 18.8191 29.5043
Au 21.2835 16.5365 28.6787
Au 19.545 14.3196 28.0194
Au 23.9889 16.6519 27.7441
Au 22.2369 14.42 27.0717
Au 24.9061 14.6991 25.9723
Au 20.3189 19.2727 29.4148
Au 18.3421 17.0282 28.7153
Au 17.2729 19.5242 28.8586
Au 33.2145 25.4199 21.2427
Au 21.7243 32.954 25.8418
Au 19.2079 7.86723 14.9246
Au 7.47534 15.6716 19.6999
Au 23.7665 30.4614 11.852
Au 25.8511 20.9534 33.0577
Au 14.8213 19.8396 7.83533
Au 16.904 10.2859 29.1322
Au 29.0199 17.2454 10.1282
Au 30.5138 11.2252 23.1743
Au 10.4157 29.3844 17.5454
Au 11.9206 23.525 30.8674
Au 31.088 27.0695 22.2565
Au 28.6428 28.6498 23.0857
Au 26.4462 30.1388 24.0639
Au 24.2053 31.7483 25.015
Au 31.2495 26.6626 19.3555
Au 29.5624 27.6659 17.5476
Au 27.6955 28.6254 15.6419
Au 25.9683 29.4723 13.6136
Au 22.4456 32.5008 22.8826
Au 22.7372 32.1108 19.982
Au 22.8664 31.5848 17.3736
Au 23.5107 31.1706 14.5541
Au 29.266 28.2763 20.337
Au 26.9252 29.7712 21.0756
Au 27.1977 29.1117 18.388
Au 24.7627 31.2502 22.1466
Au 24.894 30.6505 19.1516
Au 25.4707 30.3681 16.366
Au 31.889 24.6685 23.6406
Au 30.4149 23.8525 26.0441
Au 29.1242 22.6868 28.5778
Au 27.4694 21.853 30.8279
Au 22.6292 30.7056 27.4393
Au 23.457 28.1798 28.5771
Au 24.3266 25.9437 30.2514
Au 25.1361 23.5642 31.8053
Au 29.7975 26.3678 24.6329
Au 27.2522 27.894 25.8278
Au 28.2751 25.3366 27.0506
Au 24.9406 29.4459 26.4016
Au 25.8929 26.8691 28.0439
Au 26.7765 24.2634 29.4894
Au 32.3449 23.7178 19.043
Au 31.5955 22.1593 16.7817
Au 30.8626 20.6053 14.5158
Au 29.8873 18.9092 12.3687
Au 24.985 28.0662 11.3803
Au 25.8443 25.3285 11.0552
Au 26.8677 22.5446 10.5467
Au 28.0409 20.0551 10.4144
Au 30.4998 25.0125 17.191
Au 28.781 25.8697 15.037
Au 29.606 23.278 14.8451
Au 26.8002 26.8809 13.2542
Au 27.7425 24.1853 12.8271
Au 28.9957 21.6779 12.5563
Au 32.647 22.6094 21.7104
Au 32.0765 19.6882 22.0351
Au 31.6853 16.9469 22.5981
Au 31.2444 14.1771 22.8561
Au 26.7719 19.0342 30.9657
Au 27.8163 17.0462 29.1605
Au 28.8096 15.2729 27.1535
Au 29.7627 13.0322 25.2743
Au 31.3008 21.6962 24.127
Au 30.0573 20.8799 26.6498
Au 30.9172 18.665 24.493
Au 28.5842 19.8966 28.7894
Au 29.504 18.0352 26.9091
Au 30.3882 16.0224 25.0918
Au 29.4495 15.9938 12.7284
Au 29.5586 14.6468 15.397
Au 30.0583 13.5423 18.0189
Au 30.0102 12.2544 20.5926
Au 31.8137 21.0876 19.3689
Au 31.0787 19.1769 17.0836
Au 31.5139 17.9459 19.8714
Au 30.3781 17.6153 14.7986
Au 30.5485 16.2492 17.3842
Au 31.0032 15.2548 20.1368
Au 19.4586 32.239 24.3203
Au 17.2648 31.5912 22.4958
Au 14.8528 31.0398 20.9219
Au 12.5516 30.315 19.2389
Au 21.1729 30.3683 12.9166
Au 18.461 30.4994 14.1528
Au 15.6375 30.3834 15.341
Au 12.8419 29.7853 16.3009
Au 20.0546 31.9883 21.3498
Au 20.2687 31.7007 18.6198
Au 17.7267 31.4806 19.7189
Au 20.5807 31.0876 15.7495
Au 17.925 30.9947 16.9141
Au 15.0643 30.7116 17.922
Au 19.6744 31.0605 26.7775
Au 17.7445 29.337 27.9128
Au 15.7136 27.336 28.9673
Au 13.7879 25.372 29.9566
Au 23.2551 21.6371 32.8739
Au 20.1514 22.0593 32.311
Au 17.4029 22.5347 31.8206
Au 14.7349 23.1789 31.4991
Au 20.4105 28.7916 28.2827
Au 21.4337 26.1453 29.8866
Au 18.5223 26.8921 29.4107
Au 22.3364 23.9325 31.4777
Au 19.4619 24.4988 31.03
Au 16.9065 24.9154 30.5749
Au 10.7152 28.3178 20.179
Au 10.8277 27.1527 22.9102
Au 11.054 26.1198 25.4479
Au 11.5587 24.9237 27.9785
Au 17.2812 30.5586 25.3063
Au 15.0395 29.9996 23.5436
Au 15.4241 28.7185 26.3677
Au 12.8264 29.267 21.9747
Au 13.1207 28.0695 24.7234
Au 13.4196 26.9805 27.3805
Au 16.5206 9.54524 15.5632
Au 14.2623 10.9178 16.7743
Au 11.9583 12.2558 17.707
Au 9.69827 13.9687 18.7839
Au 18.156 10.1198 13.4623
Au 17.476 12.5677 11.7267
Au 16.4851 14.8895 10.4919
Au 15.5816 17.4058 9.02582
Au 8.90397 16.2762 17.0963
Au 10.3311 17.0615 14.6908
Au 11.8824 17.982 12.411
Au 13.1427 18.7488 10.2285
Au 15.8596 11.7282 13.899
Au 13.4899 12.9311 15.2869
Au 14.9404 14.0409 12.8447
Au 11.1069 14.5379 16.0228
Au 12.6209 15.4286 13.7794
Au 14.1163 16.3045 11.4593
Au 18.8265 8.13871 17.6176
Au 18.1721 8.65289 20.4873
Au 17.9648 8.82908 23.6692
Au 17.4151 9.52682 26.321
Au 9.31171 14.3541 21.4395
Au 11.356 13.3879 23.4184
Au 13.1506 12.0757 25.1115
Au 15.2041 11.2402 27.1278
Au 16.2504 9.51839 18.6689
Au 13.7738 10.9799 19.6514
Au 15.8196 9.87047 21.4913
Au 11.6156 12.5818 20.5919
Au 13.5612 11.5665 22.5401
Au 15.5026 10.4039 24.3486
Au 21.2445 9.40592 13.6378
Au 23.0559 11.3652 12.8796
Au 25.1035 13.4379 11.8539
Au 26.9627 15.3497 10.9662
Au 17.6769 19.1664 8.01118
Au 20.4482 18.648 8.51619
Au 23.1847 18.2395 9.14397
Au 26.2557 17.6552 9.4624
Au 19.9957 11.9467 12.347
Au 19.4228 14.4313 10.6484
Au 22.2622 13.514 11.2752
Au 18.3461 16.8281 9.31306
Au 21.2833 16.1468 9.98923
Au 24.0024 15.6284 10.4684
Au 21.404 8.13732 16.6396
Au 23.4837 8.90957 18.462
Au 25.8131 9.63199 20.1086
Au 28.1753 10.2667 21.5958
Au 19.7398 10.2214 28.1297
Au 22.3562 10.3335 26.7352
Au 25.1692 10.757 25.6942
Au 27.8536 11.0093 24.3377
Au 20.8487 8.46894 19.5589
Au 20.4171 8.85057 22.4845
Au 23.2648 9.0659 21.3587
Au 20.0759 9.50029 25.2022
Au 22.7818 9.89353 24.1988
Au 25.5348 9.98316 23.0624
Au 23.3404 10.0182 15.4961
Au 25.3065 11.8804 14.5082
Au 25.7449 10.7201 17.2995
Au 27.5276 14.0126 13.5778
Au 27.5662 12.5391 16.3268
Au 27.9005 11.4118 18.9692
Au 8.00349 18.4272 18.9432
Au 8.66881 21.1486 18.5189
Au 9.06006 23.9157 18.1269
Au 9.71907 26.7028 17.7591
Au 13.959 21.6045 9.61382
Au 13.1689 23.6769 11.4603
Au 12.2868 25.7225 13.5303
Au 11.302 27.4907 15.5783
Au 9.45348 19.2113 16.4299
Au 10.9337 20.0003 14.2225
Au 9.9122 22.0326 16.1053
Au 12.3735 20.8629 12.0969
Au 11.5665 22.9077 13.7836
Au 10.5897 24.783 15.8328
Au 8.24783 17.2431 21.6966
Au 9.19851 18.7741 23.9876
Au 10.064 20.4883 26.434
Au 10.9433 22.3797 28.6333
Au 15.9608 12.8009 29.4389
Au 14.722 15.4439 29.7941
Au 13.855 18.1779 30.2204
Au 12.8794 20.889 30.4595
Au 9.90597 15.8594 23.6602
Au 11.8441 14.8341 25.6503
Au 10.805 17.4616 26.2058
Au 13.8468 13.6817 27.5225
Au 12.8031 16.4384 28.0356
Au 11.6463 19.4114 28.3491
Au 8.69988 19.9373 21.4189
Au 9.36831 22.6869 21.044
Au 9.68295 21.6452 23.6823
Au 9.9775 25.4351 20.5658
Au 10.0069 24.4382 23.2495
Au 10.5047 23.4315 25.7717
Au 21.9262 28.4756 10.8814
Au 20.2921 26.337 10.0512
Au 18.5704 24.1483 9.18709
Au 16.6954 21.8454 8.43479
Au 22.9691 25.7432 10.3598
Au 21.3451 23.6984 9.44268
Au 23.9947 23.2108 9.92553
Au 19.6324 21.3324 8.75665
Au 22.3347 20.8582 9.33048
Au 25.1659 20.3843 9.75803
Au 19.1978 28.507 12.0601
Au 17.4647 26.1074 11.0297
Au 16.6174 28.2327 12.9175
Au 15.7198 24.0429 10.054
Au 14.8986 26.0772 12.111
Au 13.8639 28.0896 14.387
Au 24.0975 19.0105 32.185
Au 22.3346 17.0147 31.3438
Au 20.4181 14.7303 30.5184
Au 18.7749 12.5252 29.7577
Au 25.0355 16.7402 30.3009
Au 23.3553 14.6819 29.5302
Au 26.1532 14.7175 28.5684
Au 21.6994 12.433 28.7839
Au 24.3424 12.6246 27.7383
Au 27.2144 12.9377 26.6516
Au 21.2059 19.4438 31.9889
Au 19.3549 17.2247 31.1373
Au 18.3134 19.7829 31.5232
Au 17.6119 14.9729 30.1741
Au 16.5836 17.6256 30.8519
Au 15.4969 20.3827 31.1104
Au 35.6303 26.3439 21.5344
Au 22.0617 35.2689 27.3212
Au 18.7284 5.57515 13.6504
Au 5.02257 14.6927 19.2669
Au 24.3494 32.4305 10.1349
Au 26.9104 20.9004 35.3887
Au 13.6861 19.6803 5.46954
Au 16.1282 8.5422 30.913
Au 30.6628 16.6421 8.19302
Au 32.4812 9.63855 23.8513
Au 8.67301 31.1963 16.7182
Au 10.4137 24.3185 32.8414
Au 33.6215 27.9074 22.3383
Au 31.2272 29.535 23.2005
Au 28.8954 31.1012 24.1003
Au 26.887 32.5369 25.6438
Au 24.1716 34.1662 26.2672
Au 34.0071 27.372 19.5628
Au 32.2109 28.5268 17.6419
Au 30.2603 29.3108 15.6092
Au 28.4844 30.7014 13.8261
Au 26.4516 31.3316 11.7672
Au 22.4721 34.9007 24.2744
Au 22.9957 34.3019 21.2561
Au 23.1784 34.0688 18.1955
Au 23.3669 33.6704 15.5475
Au 24.1445 33.0496 12.7288
Au 31.9495 29.0499 20.4791
Au 29.503 30.6868 21.1488
Au 29.9641 30.2118 18.3173
Au 27.2432 32.2392 22.0728
Au 27.4893 31.8718 19.4101
Au 28.1102 31.0192 16.5024
Au 24.8391 33.7822 23.3982
Au 25.3196 33.1392 20.0633
Au 25.8773 32.8799 17.2799
Au 26.0561 32.2958 14.5216
Au 34.5572 25.3478 23.7616
Au 33.0709 24.6063 26.1113
Au 31.5825 23.8222 28.4681
Au 29.9196 23.0381 31.0666
Au 28.4612 22.0823 33.405
Au 22.7221 33.0501 28.5395
Au 23.7554 30.7475 29.8031
Au 24.4762 28.4336 31.2968
Au 25.51 25.9545 32.5533
Au 26.3165 23.4525 34.4866
Au 32.2865 27.3552 24.6318
Au 29.998 28.8527 25.8359
Au 30.7435 26.393 27.074
Au 27.6332 30.2984 26.6549
Au 28.6509 27.8277 28.3112
Au 29.4486 25.3208 29.4083
Au 25.2026 32.0655 27.5775
Au 26.134 29.3941 29.0142
Au 27.0467 26.9932 30.3932
Au 27.8401 24.4111 31.9989
Au 34.8286 24.6864 19.2516
Au 33.9624 23.1235 17.0574
Au 33.4268 21.5521 14.7367
Au 32.2742 19.9165 12.4036
Au 31.5702 18.2877 10.0197
Au 25.634 29.9593 9.50466
Au 26.4822 27.3555 9.31147
Au 27.3229 24.6709 9.17116
Au 28.5504 21.9397 8.45585
Au 29.7484 19.4457 8.33688
Au 33.0837 25.9593 17.3923
Au 31.3106 26.7897 15.1717
Au 32.1672 24.2381 15.1195
Au 29.2835 28.0192 13.2839
Au 30.2783 25.3156 12.8697
Au 31.5973 22.5655 12.915
Au 27.6967 28.8837 11.3476
Au 28.5456 26.2885 10.9674
Au 29.5771 23.6889 10.5911
Au 30.7411 21.0995 10.4986
Au 35.1493 23.3913 21.7284
Au 34.5128 20.7848 22.2747
Au 34.3596 17.841 22.5579
Au 33.8314 15.2647 22.8476
Au 33.075 12.336 23.276
Au 27.8904 19.3041 33.5505
Au 28.7471 17.3409 31.454
Au 29.7508 15.36 29.6354
Au 30.6264 13.362 27.7103
Au 31.7262 11.4414 25.8734
Au 33.9275 22.7242 24.0648
Au 32.6354 21.9122 26.5365
Au 33.4559 19.5871 24.663
Au 31.3916 20.9555 29.0886
Au 32.0805 19.113 27.0691
Au 33.0669 17.076 25.1282
Au 29.452 20.2971 31.3508
Au 30.6997 18.2922 29.6128
Au 31.5704 16.4365 27.3657
Au 32.5721 14.168 25.204
Au 30.9456 15.3815 10.6475
Au 30.9795 13.9479 13.2144
Au 31.4468 12.8459 15.6357
Au 31.9375 11.7037 18.7284
Au 32.1678 10.3563 21.222
Au 34.5743 21.9631 19.5295
Au 33.5059 20.1215 17.6094
Au 34.0568 19.2353 19.9879
Au 32.728 18.8959 15.0113
Au 33.0501 17.3787 17.7428
Au 33.4998 16.1572 20.1658
Au 31.9772 17.091 12.6053
Au 32.2418 15.4755 15.3727
Au 32.6268 14.5287 17.8618
Au 32.5968 13.3422 20.8376
Au 19.875 34.8271 25.5663
Au 17.5281 34.1392 23.8418
Au 15.1262 33.3771 22.149
Au 12.8093 32.6638 20.2834
Au 10.4795 32.0317 18.4514
Au 21.8709 32.3105 10.9599
Au 19.1341 32.2518 12.3166
Au 16.4516 31.8963 13.2864
Au 13.6236 31.8882 14.7424
Au 11.0835 31.6312 15.5313
Au 20.2492 34.4048 22.52
Au 20.5553 34.1286 19.7419
Au 17.985 33.915 21.0041
Au 20.812 33.6372 16.7874
Au 18.1001 33.431 17.9123
Au 15.5505 33.1457 19.3528
Au 21.2223 33.0546 13.8143
Au 18.6874 33.0625 14.9895
Au 15.6495 32.8296 16.1294
Au 12.9207 32.4922 17.4806
Au 20.0432 33.5642 28.0382
Au 17.9146 31.8324 28.7662
Au 16.0956 29.7893 29.8085
Au 14.0813 28.0586 30.8691
Au 12.2549 26.1902 31.8444
Au 24.2017 21.9341 35.3344
Au 21.4729 22.4665 34.6652
Au 18.5652 22.7662 34.1271
Au 15.9613 23.2518 33.9243
Au 12.9977 23.6439 33.5134
Au 20.7273 31.2 29.4388
Au 21.6571 28.7922 30.8202
Au 18.8276 29.2701 30.5209
Au 22.6231 26.6547 32.5473
Au 19.7845 27.1142 31.8882
Au 17.0111 27.4778 31.6775
Au 23.4571 24.2917 33.8971
Au 20.7466 24.794 33.4133
Au 17.7866 25.3121 33.0432
Au 15.0279 25.6536 32.4618
Au 8.80107 30.1845 19.4662
Au 8.96465 28.8968 22.1975
Au 9.11733 27.8142 25.0182
Au 9.67343 26.6749 27.6532
Au 9.90113 25.3681 30.3335
Au 17.7337 33.2091 26.2972
Au 15.2867 32.3672 24.8853
Au 15.4031 31.3095 27.4354
Au 13.0717 31.7733 23.2219
Au 13.136 30.4634 25.7801
Au 13.6405 29.5057 28.4579
Au 10.7565 31.0078 21.2502
Au 11.0664 29.8262 23.8587
Au 11.2733 28.5278 26.7736
Au 11.5725 27.4597 29.4305
Au 16.5567 6.9907 14.6521
Au 13.9267 8.53088 15.6552
Au 11.8539 9.88009 16.225
Au 9.5324 11.5956 17.3287
Au 7.17403 13.1341 18.6129
Au 18.0849 7.83023 12.4303
Au 17.2755 10.0894 10.9317
Au 16.3715 12.3747 9.18659
Au 15.4238 14.8686 7.96807
Au 14.693 17.4889 6.54208
Au 6.36319 15.368 16.899
Au 7.81509 16.1281 14.5154
Au 9.30069 16.9141 12.19
Au 10.8626 17.6857 9.88406
Au 12.285 18.7139 7.68257
Au 15.337 8.98074 13.0998
Au 13.3743 10.5383 13.885
Au 14.8501 11.6909 11.5274
Au 10.9901 12.0368 15.0062
Au 12.3167 12.882 12.6497
Au 13.8417 13.902 9.82285
Au 8.38329 13.8824 16.031
Au 10.079 14.3516 13.5975
Au 11.4787 15.3546 11.1549
Au 13.0681 16.2876 8.97241
Au 18.5174 5.84991 16.3873
Au 18.0046 6.22652 19.3049
Au 17.4698 6.54415 22.1902
Au 17.1145 6.9428 25.3255
Au 16.3795 7.75161 28.2933
Au 6.62199 13.4994 21.2366
Au 8.78035 12.5208 23.2714
Au 10.625 11.6707 25.3357
Au 12.6963 10.1767 26.9799
Au 14.3603 9.34133 29.092
Au 16.0201 7.26299 17.1643
Au 13.533 8.65676 18.4583
Au 15.607 7.40805 20.4461
Au 11.1204 10.1414 19.1505
Au 13.3029 9.02118 21.3944
Au 15.187 7.84405 23.2529
Au 9.05796 11.8675 20.4925
Au 10.9194 10.7725 22.4019
Au 12.8383 9.4816 24.2419
Au 14.8855 8.55442 26.0544
Au 20.7397 7.00625 12.7738
Au 22.9503 8.83406 11.7955
Au 24.6683 10.9051 10.9144
Au 26.7724 12.8344 9.72093
Au 28.6395 14.8157 8.73996
Au 16.3987 19.1578 5.57878
Au 19.2866 18.5793 6.06065
Au 22.1594 18.0958 6.58896
Au 24.8442 17.6267 7.34409
Au 28.0884 17.3369 7.63384
Au 19.8595 9.47235 11.3068
Au 19.0918 11.7394 9.62882
Au 21.7858 10.9787 10.4392
Au 18.2249 14.3624 8.39036
Au 21.1739 13.4355 8.80762
Au 24.0241 13.1934 9.1121
Au 17.2633 16.7296 6.78655
Au 20.1511 16.2446 7.43458
Au 23.028 15.6755 7.92405
Au 25.8988 15.1612 8.3279
Au 21.0532 5.78266 15.5303
Au 23.4068 6.51405 17.4035
Au 25.6179 7.26305 18.8925
Au 28.1134 7.89894 20.5936
Au 30.2913 8.69155 22.2977
Au 18.6951 8.26054 29.6054
Au 21.8256 8.52599 28.7417
Au 24.5804 8.79606 27.4119
Au 27.4009 9.07601 26.1214
Au 30.0067 9.31454 25.0205
Au 20.7072 6.01966 18.2829
Au 19.9313 6.48048 21.1759
Au 22.8515 6.67457 20.128
Au 19.9967 6.84115 24.5364
Au 22.3657 7.231 23.1578
Au 25.1935 7.46893 21.7626
Au 19.3687 7.5755 27.0079
Au 22.1053 7.69909 25.8688
Au 24.6691 8.07227 24.6927
Au 27.5316 8.44858 23.5937
Au 23.0616 7.47099 14.4663
Au 24.9143 9.26642 13.3942
Au 25.368 8.16987 16.357
Au 27.0794 11.3971 12.4317
Au 27.3127 10.065 15.1397
Au 27.7416 8.94534 18.0877
Au 28.8159 13.29 11.424
Au 29.2148 11.9446 14.19
Au 29.9355 11.0002 16.9474
Au 30.0148 9.74814 19.5092
Au 5.53442 17.5719 18.9986
Au 6.03926 20.2735 18.3542
Au 6.5988 22.8715 18.0417
Au 7.09047 25.8887 17.7872
Au 7.86534 28.5554 17.2917
Au 12.6335 21.554 7.22813
Au 11.9939 23.5059 9.25442
Au 11.3027 25.6756 11.1256
Au 10.185 27.3629 13.1113
Au 9.44988 29.3224 14.9682
Au 6.85864 18.0412 16.4321
Au 8.51866 18.9131 14.0576
Au 7.37054 21.0781 15.8289
Au 9.89949 19.765 11.7198
Au 8.99851 21.7717 13.5606
Au 7.91145 23.9375 15.5572
Au 11.2555 20.665 9.55537
Au 10.3753 22.7688 11.4259
Au 9.5551 24.7111 13.3996
Au 8.38271 26.6851 15.3204
Au 5.66752 16.2206 21.4245
Au 6.63583 17.8128 23.8455
Au 7.73135 19.3556 26.2192
Au 8.44524 21.2714 28.4752
Au 9.22834 22.7861 30.6424
Au 15.2465 10.9786 31.2319
Au 14.1506 13.4709 31.4646
Au 13.1488 16.1269 31.6621
Au 12.129 18.9562 32.2003
Au 11.2459 21.7183 32.7415
Au 7.33701 14.9467 23.4267
Au 9.10995 14.1106 25.4529
Au 8.35608 16.6807 25.8344
Au 11.3076 12.8221 27.5879
Au 9.99884 15.6114 27.9012
Au 9.2233 18.5049 28.4324
Au 13.2952 11.7551 29.3843
Au 12.1324 14.4262 29.6316
Au 11.2534 17.3448 30.1258
Au 10.2223 20.1491 30.559
Au 6.20176 19.0074 21.2711
Au 6.72066 21.7816 20.6617
Au 7.19527 20.696 23.6859
Au 7.47689 24.6207 20.2731
Au 7.53352 23.4357 22.9942
Au 7.97745 22.4332 25.7269
Au 8.08409 27.377 19.8496
Au 8.09105 26.2716 22.6102
Au 8.47467 25.2474 25.4307
Au 8.6397 23.9859 28.0333
Au 22.6222 30.3321 9.22996
Au 20.8372 28.5092 8.33958
Au 19.1681 26.166 7.46171
Au 17.3366 24.0501 6.75719
Au 15.3602 21.8161 5.88231
Au 23.5288 27.8759 8.70468
Au 21.804 25.7863 7.75467
Au 24.7216 25.3194 8.29264
Au 20.2272 23.3351 6.90492
Au 23.0839 23.0387 7.43214
Au 25.7145 22.3686 7.96912
Au 18.3197 21.1835 6.32095
Au 21.2157 20.8165 6.69498
Au 23.9799 20.2677 7.21825
Au 26.7545 19.797 7.60624
Au 20.0229 30.3432 10.2204
Au 18.1317 28.2083 9.30514
Au 17.2785 30.1871 11.2695
Au 16.52 25.9537 8.32856
Au 15.4331 28.2091 10.2242
Au 14.7444 29.9625 12.5122
Au 14.329 23.6114 7.69464
Au 13.7992 26.1142 9.75497
Au 12.7816 27.9938 11.7329
Au 11.6691 29.5905 13.6315
Au 25.0096 18.9683 34.8836
Au 23.3541 16.9537 33.8907
Au 21.43 15.0456 32.9296
Au 19.8454 12.7806 32.3362
Au 18.2007 10.4008 31.3993
Au 26.2164 17.1259 32.8722
Au 24.129 14.9491 32.0778
Au 26.9645 15.0836 31.0759
Au 22.5499 12.6663 31.3425
Au 25.5215 12.6873 30.0934
Au 28.2472 13.1866 29.22
Au 20.9169 10.5176 30.5224
Au 23.5608 10.5509 29.3736
Au 26.4043 10.811 28.378
Au 28.8472 11.025 27.1506
Au 22.3913 19.5517 34.4496
Au 20.5914 17.3856 33.6629
Au 19.4355 20.0607 34.2658
Au 18.6849 15.2587 32.7687
Au 17.6765 17.922 33.4638
Au 16.6172 20.3472 33.6943
Au 17.0177 13.1372 31.998
Au 15.7584 15.6404 32.5858
Au 14.8246 18.413 32.9568
Au 13.7877 20.9706 33.2428
