967
 Atoms. Timestep: 50000
Au 21.869 14.1972 34.6375
Au 21.5925 15.3202 32.2932
Au 21.4165 16.2971 29.574
Au 21.0892 17.3674 26.9831
Au 20.6827 18.9137 24.3693
Au 20.4123 19.773 21.564
Au 20.2844 21.1401 19.0073
Au 19.8874 22.1512 16.3349
Au 19.7339 23.5132 13.5957
Au 19.3822 24.6935 11.2708
Au 19.0995 25.7922 8.58045
Au 18.8538 26.9982 6.18256
Au 19.3077 14.593 33.6209
Au 18.9634 15.7138 31.0998
Au 18.7901 16.8151 28.4519
Au 18.5314 17.9827 25.854
Au 18.2028 19.3518 23.3669
Au 17.9462 20.3015 20.4936
Au 17.6591 21.6695 17.983
Au 17.3194 22.7818 15.4254
Au 17.127 24.211 12.6566
Au 16.7294 24.9546 10.1002
Au 16.5946 26.5468 7.51633
Au 20.8954 16.7167 34.4868
Au 20.7484 17.9725 31.7166
Au 20.5147 19.0192 29.2079
Au 20.3352 20.0286 26.7214
Au 19.9468 21.5263 24.1229
Au 19.8518 22.6942 21.5495
Au 19.4281 23.7842 18.7756
Au 19.0447 24.9579 16.051
Au 18.7868 26.2221 13.576
Au 18.4732 27.358 10.9134
Au 18.3245 28.5761 8.32795
Au 23.821 15.9689 33.7959
Au 23.4778 17.2896 31.2692
Au 23.3287 18.3649 28.7736
Au 22.9336 19.4246 26.0139
Au 22.8204 20.4677 23.3207
Au 22.4399 21.8284 20.7611
Au 22.1335 22.8078 17.8895
Au 21.6728 24.2464 15.6069
Au 21.5341 25.5767 12.9023
Au 21.2934 26.7079 10.3049
Au 20.9189 27.5352 7.78666
Au 23.5588 13.3162 32.7097
Au 23.4413 14.3619 30.2634
Au 23.177 15.6709 27.6384
Au 22.8151 16.7868 24.927
Au 22.5579 17.9485 22.1854
Au 22.186 19.0201 19.6492
Au 22.2105 20.3056 17.1425
Au 21.8928 21.5293 14.445
Au 21.6044 22.6974 11.7006
Au 21.2837 23.7959 9.04865
Au 20.7746 24.9377 6.66756
Au 20.9385 12.6435 32.7068
Au 20.7505 13.5664 30.1019
Au 20.5492 14.6997 27.5105
Au 20.1576 15.9598 24.7871
Au 19.8193 16.825 22.1562
Au 19.5458 18.2603 19.527
Au 19.1992 19.5552 16.9328
Au 19.0598 20.8708 14.0612
Au 18.8927 21.8297 11.5924
Au 18.6328 23.1208 9.02659
Au 18.1964 24.2427 6.43708
Au 16.754 15.1276 32.5903
Au 16.4134 16.0871 30.0634
Au 16.1393 17.3172 27.3667
Au 15.9001 18.6247 24.7536
Au 15.6619 19.8163 22.1391
Au 15.2965 21.0679 19.6131
Au 15.1151 22.104 16.981
Au 14.7035 23.2269 14.2039
Au 14.4369 24.386 11.6541
Au 14.4522 25.6918 9.02139
Au 18.4719 17.3057 33.5242
Au 18.1226 18.3042 30.9551
Au 17.9086 19.6706 28.4669
Au 17.6496 20.8077 25.7426
Au 17.435 21.9178 22.8383
Au 17.1671 23.0961 20.374
Au 16.6824 24.3663 17.6749
Au 16.4822 25.4088 15.0682
Au 16.0765 26.5904 12.3561
Au 15.8876 27.9151 9.88425
Au 20.3618 19.5656 34.2535
Au 19.8466 20.643 31.7934
Au 19.8093 21.6939 28.982
Au 19.4625 22.9755 26.255
Au 19.2074 24.193 23.8194
Au 18.8155 25.2331 21.0835
Au 18.5363 26.6198 18.43
Au 18.2958 27.6563 15.8077
Au 17.7869 28.8619 13.2134
Au 17.7678 29.8845 10.6577
Au 22.9054 18.5883 33.5152
Au 22.7565 20.0343 31.1387
Au 22.4888 21.0385 28.3111
Au 22.0827 22.2259 25.8045
Au 21.9767 23.3883 23.2401
Au 21.6642 24.4636 20.4622
Au 21.3316 25.6464 17.8229
Au 21.1921 27.0684 15.1428
Au 20.7145 28.3001 12.475
Au 20.5026 29.1789 9.83817
Au 25.7773 17.7023 32.7671
Au 25.4887 19.1064 30.3197
Au 25.1724 20.237 27.6858
Au 24.9241 21.5026 25.1665
Au 24.6129 22.6112 22.4284
Au 24.3189 23.7121 19.7769
Au 24.0622 25.0392 17.104
Au 23.8114 26.3495 14.3183
Au 23.5685 27.3001 11.7457
Au 23.4142 28.356 9.28326
Au 25.6629 15.1178 31.7389
Au 25.3735 16.2939 29.2784
Au 25.1612 17.5599 26.587
Au 24.7717 18.5386 23.8341
Au 24.6851 19.8765 21.2574
Au 24.38 21.0806 18.7645
Au 24.0705 22.2969 15.9606
Au 23.5514 23.6848 13.457
Au 23.2144 24.7432 10.6574
Au 23.0941 25.6858 8.06816
Au 25.4596 12.4844 30.6272
Au 25.3869 13.7375 28.1607
Au 25.0397 14.9221 25.598
Au 24.553 15.9737 22.9262
Au 24.3518 17.3039 20.1316
Au 24.1382 18.3856 17.5604
Au 23.9726 19.676 14.7957
Au 23.5941 20.8001 12.3028
Au 23.2441 21.8131 9.58501
Au 23.076 22.8414 7.08592
Au 22.672 11.6211 30.659
Au 22.7325 12.702 28.2069
Au 22.469 14.1107 25.3145
Au 21.9925 15.2267 22.6697
Au 21.6167 16.3543 20.0107
Au 21.508 17.6004 17.4092
Au 21.1072 18.8311 14.722
Au 20.888 20.0156 12.2039
Au 20.366 21.1049 9.30827
Au 20.3765 22.0873 6.75755
Au 20.1784 10.8634 30.2176
Au 19.7768 12.0346 27.9837
Au 19.4999 13.2761 25.3829
Au 18.9547 14.2886 22.6225
Au 18.8802 15.478 19.9458
Au 18.5132 16.6749 17.3045
Au 18.3717 18.0456 14.7182
Au 18.2346 19.2345 12.1085
Au 17.8082 20.1948 9.42299
Au 17.4642 21.4659 7.12419
Au 18.3318 13.0109 31.5557
Au 18.1054 14.0368 28.9227
Au 17.8022 15.173 26.4134
Au 17.3269 16.6392 23.8629
Au 17.1642 17.5816 21.2086
Au 16.914 18.8065 18.4175
Au 16.7878 19.9995 15.7332
Au 16.4529 21.3988 13.1165
Au 16.2691 22.3783 10.4035
Au 15.9532 23.5338 7.98619
Au 14.1851 15.3273 31.7375
Au 13.9425 16.5594 29.2316
Au 13.5875 17.9145 26.2865
Au 13.3741 18.8832 23.6462
Au 12.9312 20.1816 21.0853
Au 12.7449 21.4441 18.4933
Au 12.4879 22.6637 15.8677
Au 11.9788 23.8819 13.1923
Au 11.9185 24.8803 10.4652
Au 15.8468 17.7355 32.2772
Au 15.6963 18.825 29.8096
Au 15.4864 20.0662 27.154
Au 15.01 21.1881 24.5135
Au 14.6628 22.3407 21.8448
Au 14.5231 23.7243 19.2757
Au 14.1969 24.7881 16.5089
Au 13.7633 26.0955 13.8737
Au 13.5296 27.2243 11.194
Au 17.6935 20.1314 33.2465
Au 17.4749 21.1581 30.7564
Au 17.1116 22.3638 28.1113
Au 16.7729 23.4181 25.369
Au 16.576 24.5078 22.5757
Au 16.4853 25.8864 20.0332
Au 15.9838 27.1924 17.3075
Au 15.6447 28.2762 14.5724
Au 15.3203 29.5807 12.3088
Au 19.4439 22.2537 33.8155
Au 18.8805 23.3924 31.4384
Au 18.682 24.4423 28.8262
Au 18.446 25.7532 26.0034
Au 18.3629 26.7729 23.2754
Au 17.8395 28.1512 20.8403
Au 17.5866 29.3496 18.0929
Au 17.3153 30.5225 15.7003
Au 17.3573 31.4445 12.9784
Au 22.2764 21.3053 33.3937
Au 21.7462 22.5326 30.9149
Au 21.5174 23.6162 28.2936
Au 21.3733 24.7902 25.4718
Au 21.0383 25.9057 22.8808
Au 20.723 27.1997 20.198
Au 20.3495 28.4998 17.3001
Au 19.9179 29.7967 14.6287
Au 19.9863 30.8738 12.2536
Au 24.8368 20.5466 32.6459
Au 24.6112 21.7921 30.1299
Au 24.3926 22.9107 27.4317
Au 24.0842 24.154 24.7551
Au 23.913 25.4209 22.2203
Au 23.5006 26.27 19.6022
Au 23.1056 27.6796 16.9298
Au 22.8152 29.0993 13.9008
Au 22.6939 30.228 11.4333
Au 27.5403 19.7926 31.9424
Au 27.3703 21.112 29.5172
Au 27.1474 22.2297 26.849
Au 26.9295 23.4423 24.3073
Au 26.61 24.4741 21.611
Au 26.4169 25.6298 18.9521
Au 26.0075 26.7203 16.2641
Au 25.6657 28.2819 13.6148
Au 25.5459 29.1152 10.8569
Au 27.5267 17.1157 30.9572
Au 27.3136 18.3471 28.3011
Au 27.0805 19.5376 25.7705
Au 26.6817 20.6793 23.1884
Au 26.4947 21.9572 20.4084
Au 26.1381 23.0397 17.7072
Au 26.02 24.2115 15.0345
Au 25.6194 25.517 12.5397
Au 25.2907 26.4171 9.84006
Au 27.489 14.5066 29.8884
Au 27.3297 15.7514 27.3756
Au 27.0068 16.7946 24.5244
Au 26.5587 17.8835 21.81
Au 26.4921 19.1749 19.2063
Au 26.1507 20.21 16.626
Au 25.9341 21.5945 13.9523
Au 25.3673 22.8668 11.3518
Au 25.056 23.7813 8.82167
Au 27.248 11.7629 28.4837
Au 27.1226 12.9796 26.0319
Au 26.6765 14.1159 23.3905
Au 26.4874 15.1879 20.671
Au 26.2933 16.498 18.1311
Au 25.8809 17.8428 15.4429
Au 25.7187 18.9508 12.7537
Au 25.308 20.0746 10.1113
Au 25.1318 21.0796 7.61117
Au 24.6964 10.8951 28.4087
Au 24.2378 12.0302 25.8244
Au 23.9443 13.2777 23.2069
Au 23.5599 14.5844 20.6845
Au 23.4995 15.734 17.7308
Au 23.1508 16.945 15.1999
Au 23.0381 18.0477 12.5901
Au 22.7314 19.0223 9.90884
Au 22.3027 20.2466 7.52101
Au 21.8887 10.0945 28.3318
Au 21.4811 11.2587 25.644
Au 21.3216 12.4966 23.0942
Au 20.9789 13.6455 20.4723
Au 20.6468 14.9743 17.7971
Au 20.4649 16.115 15.2471
Au 20.2268 17.2668 12.4573
Au 20.0097 18.258 9.69833
Au 19.6159 19.4727 7.32864
Au 19.0884 9.24817 28.3176
Au 18.7922 10.4166 25.7096
Au 18.5337 11.5946 23.1665
Au 18.0504 12.6665 20.4758
Au 17.7765 13.9865 17.7005
Au 17.7236 15.2173 15.0931
Au 17.3044 16.3823 12.5534
Au 17.1602 17.5093 9.85092
Au 16.8717 18.5246 7.21882
Au 17.5435 11.0804 29.4536
Au 17.1431 12.3229 26.7567
Au 16.9949 13.6464 24.2382
Au 16.5166 14.954 21.5959
Au 16.3114 16.1151 18.8278
Au 16.0799 17.3596 16.0706
Au 15.701 18.644 13.3434
Au 15.3793 19.6403 10.782
Au 15.3984 20.5095 8.23348
Au 15.7857 13.341 30.4704
Au 15.533 14.4498 27.945
Au 15.1742 15.6503 25.3109
Au 14.8356 16.8475 22.6403
Au 14.5678 18.2002 19.9378
Au 14.3902 19.3994 17.2151
Au 14.2 20.5963 14.8341
Au 13.8645 21.6375 12.1346
Au 13.6612 22.7818 9.60519
Au 11.5773 16.2415 30.6052
Au 11.2343 17.1315 28.0486
Au 11.0721 18.3541 25.213
Au 10.7745 19.5384 22.5642
Au 10.3518 21.0043 19.8929
Au 10.2088 21.9798 17.4634
Au 9.90422 23.2265 14.7594
Au 9.60989 24.1213 12.1041
Au 13.1738 18.2342 31.3668
Au 13.0785 19.3215 28.7223
Au 12.7193 20.4532 26.0985
Au 12.4601 21.5673 23.516
Au 12.2637 22.9544 20.7555
Au 11.8916 24.3648 18.1149
Au 11.6129 25.441 15.4577
Au 11.2132 26.3724 12.7756
Au 15.277 20.3586 32.202
Au 14.7589 21.475 29.6833
Au 14.5781 22.8646 26.7183
Au 14.3054 23.8598 24.0167
Au 14.031 25.2583 21.532
Au 13.7903 26.3945 18.8958
Au 13.4843 27.5677 16.107
Au 12.879 28.8011 13.5561
Au 16.6711 22.6612 33.0384
Au 16.274 23.7256 30.4934
Au 16.2281 24.8922 27.8372
Au 16.0375 26.0303 24.8018
Au 15.6503 27.4211 22.3013
Au 15.2877 28.6365 19.6904
Au 14.9721 29.7879 17.0215
Au 14.817 31.0158 14.5381
Au 18.644 24.9196 33.7553
Au 18.1445 26.0413 31.2907
Au 17.8757 27.0787 28.5702
Au 17.6556 28.3673 25.8035
Au 17.4363 29.57 23.3325
Au 17.2614 30.5867 20.6066
Au 16.839 32.1747 18.1113
Au 16.6005 33.2012 15.5049
Au 21.4506 23.8681 33.1505
Au 20.9709 25.0284 30.5946
Au 20.5625 26.1908 27.7283
Au 20.416 27.4688 25.2137
Au 20.0575 28.7073 22.5046
Au 19.9985 29.9399 19.778
Au 19.4456 31.2137 17.2169
Au 19.2216 32.5373 14.6031
Au 24.1432 23.2877 32.4424
Au 23.7258 24.4313 29.8972
Au 23.4219 25.518 27.0944
Au 23.2096 26.8884 24.4898
Au 22.9026 28.0921 21.8405
Au 22.5843 29.0929 19.1889
Au 21.956 30.2692 16.4292
Au 22.0406 31.7257 13.9534
Au 26.7537 22.6105 31.772
Au 26.3785 23.8378 29.3287
Au 26.1941 24.9032 26.646
Au 25.8617 26.2897 24.078
Au 25.7234 27.212 21.2423
Au 25.2014 28.4667 18.4989
Au 25.0011 29.5521 15.9999
Au 24.8603 30.7248 12.8403
Au 29.4434 21.7378 31.1852
Au 29.0841 23.0505 28.6475
Au 28.9302 24.1818 25.9479
Au 28.7835 25.3467 23.3756
Au 28.4745 26.4404 20.8122
Au 28.2195 27.4967 18.0242
Au 27.9528 28.617 15.3307
Au 27.6751 29.7235 12.5832
Au 29.4375 19.119 30.0169
Au 29.279 20.2695 27.5579
Au 29.0114 21.2369 24.8358
Au 28.6424 22.5903 22.1049
Au 28.2983 23.7655 19.3061
Au 28.1696 25.0811 16.7853
Au 27.8021 26.0761 14.1608
Au 27.4656 27.2866 11.5068
Au 29.429 16.4735 29.0012
Au 29.1347 17.5162 26.3432
Au 28.8925 18.6292 23.5344
Au 28.5141 19.9082 21.1713
Au 28.1805 21.026 18.3918
Au 28.0944 22.198 15.703
Au 27.8863 23.2437 12.8647
Au 27.4299 24.521 10.4035
Au 29.1813 13.7028 27.7267
Au 29.0285 14.7447 25.2313
Au 28.6293 16.148 22.3955
Au 28.3895 17.248 19.761
Au 28.1533 18.2044 17.1659
Au 27.9988 19.7059 14.5992
Au 27.5666 20.733 11.7852
Au 27.1471 21.9334 9.29153
Au 29.1556 11.1798 26.5084
Au 28.6933 12.3307 23.9158
Au 28.5863 13.4411 21.1774
Au 28.1508 14.5637 18.5231
Au 28.0093 15.6402 15.867
Au 27.7511 16.9509 13.3746
Au 27.6349 18.255 10.7717
Au 27.1119 19.2854 8.15484
Au 26.4038 10.2724 26.2929
Au 26.1196 11.4243 23.8794
Au 25.7908 12.5602 21.1509
Au 25.5491 13.7816 18.4783
Au 25.4033 14.9706 15.9356
Au 25.0096 16.0687 13.2488
Au 24.8555 17.4031 10.6597
Au 24.6238 18.317 7.82084
Au 23.5057 9.32242 26.0951
Au 23.3002 10.5082 23.6185
Au 23.0403 11.6714 20.9755
Au 22.7728 13.0831 18.4722
Au 22.6874 14.183 15.7491
Au 22.1777 15.3183 13.2411
Au 21.9598 16.4552 10.3949
Au 21.8732 17.5521 7.79453
Au 20.6943 8.65943 26.1119
Au 20.5873 9.42511 23.5264
Au 20.2592 10.9538 20.9906
Au 19.9688 12.3237 18.2773
Au 19.8207 13.4852 15.5662
Au 19.3534 14.6271 12.9307
Au 19.3687 15.6253 10.2773
Au 18.9995 16.7519 7.72578
Au 18.0196 7.84744 26.2436
Au 17.7417 8.73314 23.5634
Au 17.4879 10.0216 20.8616
Au 17.1539 11.1417 18.2219
Au 17.1131 12.4205 15.5695
Au 16.866 13.6528 12.9181
Au 16.6808 14.6906 10.2103
Au 16.3118 16.0894 7.64492
Au 16.2967 9.79878 27.3012
Au 16.1211 10.9534 24.5325
Au 15.8434 12.1077 21.9965
Au 15.6687 13.3033 19.3008
Au 15.3064 14.5693 16.5936
Au 15.0174 15.8279 14.0313
Au 14.7057 16.8704 11.3144
Au 14.5724 17.9985 8.62777
Au 14.8558 11.6575 28.3785
Au 14.3861 12.946 25.715
Au 14.157 14.1152 23.1286
Au 13.9931 15.3392 20.2945
Au 13.7601 16.5991 17.7946
Au 13.5599 17.8028 14.9938
Au 13.1107 18.9594 12.3698
Au 12.9198 19.9191 9.83261
Au 13.187 13.92 29.3475
Au 12.8149 15.4022 26.7571
Au 12.5142 16.2663 24.121
Au 12.3788 17.2842 21.4156
Au 12 18.6654 18.8998
Au 11.8652 19.966 16.2201
Au 11.4763 21.2441 13.6572
Au 11.2597 22.2137 11.1579
Au 8.95836 16.7224 29.4948
Au 8.49562 17.8429 26.8871
Au 8.25172 19.1119 24.1739
Au 8.11111 20.3981 21.7492
Au 7.68837 21.4399 19.0023
Au 7.64122 22.515 16.1399
Au 7.29597 23.4872 13.6725
Au 10.6643 18.7796 30.3959
Au 10.5097 19.9232 27.6959
Au 10.1499 21.1552 25.017
Au 10.079 22.4022 22.5615
Au 9.79278 23.5691 19.8648
Au 9.40879 24.8944 17.0986
Au 8.97261 25.9437 14.3853
Au 12.4834 20.8723 31.0295
Au 12.1085 22.0604 28.4053
Au 12.0053 23.2763 25.6778
Au 11.7058 24.5806 23.1553
Au 11.4121 25.8443 20.5861
Au 10.9767 27.0202 17.9502
Au 10.7859 28.0029 15.1571
Au 14.102 22.9737 31.958
Au 13.8654 24.2772 29.1322
Au 13.735 25.3779 26.5013
Au 13.483 26.5962 23.8844
Au 13.2037 27.8673 21.4466
Au 12.7244 29.0431 18.5352
Au 12.5027 30.3855 16.1166
Au 15.9934 25.2387 32.6812
Au 15.627 26.5038 30.1673
Au 15.4982 27.5675 27.4081
Au 15.1614 28.8255 24.7439
Au 14.8148 30.0014 22.1009
Au 14.4393 31.2932 19.4711
Au 14.2963 32.6258 16.8358
Au 17.773 27.4595 33.5495
Au 17.3989 28.9653 31.1564
Au 17.0721 29.9366 28.2328
Au 16.8465 31.0771 25.6677
Au 16.4669 32.2512 22.9933
Au 16.3752 33.5027 20.4443
Au 15.7605 34.845 17.9173
Au 20.5302 26.6584 32.755
Au 20.1173 27.6905 30.3049
Au 19.8823 28.9419 27.6794
Au 19.6903 30.1415 24.9222
Au 19.2351 31.2363 22.0887
Au 19.0413 32.8043 19.6243
Au 18.6888 34.0367 16.9609
Au 23.1712 25.9905 32.1357
Au 22.8177 26.985 29.4502
Au 22.4247 28.2973 26.8494
Au 22.1384 29.5345 24.2321
Au 22.0582 30.5943 21.7156
Au 21.6673 31.8401 18.9746
Au 21.3884 32.9836 16.3022
Au 25.6525 25.4141 31.6272
Au 25.3704 26.6636 28.924
Au 25.3642 27.6221 26.2849
Au 25.0082 29.0222 23.6618
Au 24.7291 29.7455 20.9731
Au 24.1562 31.1066 18.341
Au 24.0549 32.0847 15.5415
Au 28.6027 24.4915 31.1656
Au 28.2392 25.7405 28.4527
Au 28.06 26.8037 25.7243
Au 27.7775 28.1354 23.0514
Au 27.4985 29.1009 20.2031
Au 27.2013 30.1315 17.6303
Au 26.9422 31.2861 14.6375
Au 31.3035 23.5127 30.1997
Au 31.0511 24.7567 27.7502
Au 31.1404 25.8782 25.1156
Au 30.8419 27.0423 22.4451
Au 30.4598 28.1694 19.8321
Au 29.9981 29.2772 16.9632
Au 29.7072 30.4193 14.5653
Au 31.3421 21.0262 29.1258
Au 31.0792 22.1188 26.5307
Au 30.8805 23.3169 23.887
Au 30.4916 24.5008 21.292
Au 30.2894 25.6409 18.6812
Au 30.1959 26.6248 15.8302
Au 29.6775 27.7683 13.3209
Au 31.4366 18.3769 28.0819
Au 30.9103 19.3973 25.4109
Au 30.6764 20.5587 22.7316
Au 30.4812 21.7002 19.9086
Au 30.0655 22.916 17.4896
Au 29.9805 24.1128 14.8445
Au 29.7373 25.2347 12.1028
Au 31.1164 15.5836 26.5393
Au 30.9404 16.7103 24.1396
Au 30.5037 18.0552 21.3857
Au 30.2825 19.0272 18.7358
Au 30.0922 20.279 16.3134
Au 29.9296 21.3953 13.5701
Au 29.6088 22.6018 10.7918
Au 31.0232 13.0679 25.5078
Au 30.722 14.1436 22.8748
Au 30.3936 15.3282 20.3038
Au 30.1635 16.1896 17.7808
Au 29.8413 17.6349 15.2306
Au 29.8239 18.8145 12.4213
Au 29.568 20.1161 9.73292
Au 30.7538 10.5723 24.2022
Au 30.7269 11.6154 21.6364
Au 30.3928 12.6913 19.062
Au 30.1976 13.7065 16.3882
Au 29.8032 14.9446 13.9343
Au 29.4383 16.1833 11.3696
Au 29.1807 17.5849 8.77855
Au 28.156 9.62416 24.0602
Au 27.9529 10.7014 21.6485
Au 27.471 11.7645 18.9672
Au 27.298 12.9236 16.38
Au 27.0792 14.3224 13.687
Au 26.7907 15.419 11.0867
Au 26.5026 16.5276 8.49696
Au 25.5842 8.61051 24.096
Au 25.1652 9.78268 21.5324
Au 24.717 11.024 18.8903
Au 24.5808 12.1471 16.3377
Au 24.4443 13.4252 13.5238
Au 23.9769 14.5145 10.9736
Au 23.8898 15.8006 8.3694
Au 22.5476 7.69829 24.0906
Au 22.3924 8.97305 21.3477
Au 22.0355 10.3825 18.7621
Au 21.745 11.5346 16.2546
Au 21.7004 12.5615 13.5556
Au 21.3044 13.7017 10.7973
Au 21.1049 14.7823 7.90013
Au 19.9647 6.86546 24.0405
Au 19.6663 8.12529 21.3807
Au 19.3757 9.43221 18.6636
Au 19.1491 10.6253 16.2221
Au 18.9301 11.9836 13.524
Au 18.6616 12.9504 10.6645
Au 18.4093 13.8225 8.04323
Au 16.9329 6.2075 24.048
Au 16.6749 7.42505 21.2292
Au 16.4294 8.38956 18.5111
Au 16.3963 9.47523 15.8618
Au 15.9572 10.6955 13.5127
Au 15.8732 12.0504 10.9557
Au 15.7814 13.1718 8.33059
Au 15.2574 8.25743 25.2645
Au 15.0991 9.3929 22.5672
Au 14.7392 10.8184 19.7257
Au 14.8391 11.804 17.0035
Au 14.4043 13.0315 14.4472
Au 14.1113 14.2092 11.8855
Au 13.9987 15.3358 9.20646
Au 13.6125 10.3435 26.2592
Au 13.3261 11.6426 23.528
Au 13.0668 12.8178 20.9008
Au 12.9623 13.745 18.2305
Au 12.8213 15.0908 15.3681
Au 12.2428 16.12 12.7266
Au 12.063 17.399 9.95293
Au 12.2689 12.5823 27.4033
Au 11.644 13.5912 24.6632
Au 11.5253 14.6607 22.1528
Au 11.3372 15.8913 19.3722
Au 11.335 17.1885 16.5125
Au 10.9746 18.3623 13.9734
Au 10.5425 19.5572 11.1688
Au 10.5695 14.5418 28.4245
Au 10.0459 15.8001 25.8819
Au 9.97519 16.8106 23.0952
Au 9.73306 18.0305 20.4612
Au 9.61551 19.1783 17.8494
Au 9.19174 20.3801 15.2414
Au 8.95472 21.5433 12.5321
Au 6.48911 17.4678 28.4647
Au 6.00806 18.4813 25.7433
Au 5.86348 19.8942 23.0298
Au 5.50927 20.9767 20.5563
Au 5.18009 21.9884 17.891
Au 5.16666 22.6478 15.3574
Au 8.16712 19.2181 29.3109
Au 7.96021 20.5918 26.6421
Au 7.57784 21.8526 24.0872
Au 7.36835 23.0262 21.4538
Au 7.04512 23.9836 18.6625
Au 6.70905 25.1277 15.9715
Au 9.94007 21.4393 30.0192
Au 9.6238 22.6278 27.3891
Au 9.36578 24.0516 24.9088
Au 8.98373 25.2671 22.1721
Au 8.69466 26.3414 19.4808
Au 8.32209 27.3961 16.8472
Au 11.4724 23.8194 30.5163
Au 11.3216 24.8798 28.0073
Au 11.1651 26.0356 25.5331
Au 10.8108 27.3146 23.1255
Au 10.722 28.3298 20.2495
Au 10.2123 29.5168 17.5816
Au 13.2875 25.6732 31.6264
Au 13.1425 26.9273 28.8282
Au 12.7007 28.0891 26.4229
Au 12.6174 29.3607 23.8597
Au 12.3312 30.5091 21.1205
Au 11.9447 31.7301 18.5491
Au 15.2589 27.9198 32.6296
Au 15.0068 29.1148 29.6551
Au 14.4817 30.3725 27.0105
Au 14.2688 31.482 24.4619
Au 14.0568 32.7578 21.8839
Au 13.8503 33.8792 19.3363
Au 16.7688 30.0778 33.4406
Au 16.4377 31.5635 30.5589
Au 16.3408 32.7558 27.8973
Au 15.8954 33.844 25.4476
Au 15.5254 34.802 22.9483
Au 15.3746 35.9354 20.2923
Au 19.6513 29.3186 32.5611
Au 19.3048 30.6908 29.9256
Au 19.1555 31.9341 27.2469
Au 18.699 32.8127 24.6258
Au 18.4411 34.0458 22.14
Au 18.2101 35.2931 19.3359
Au 22.344 28.7348 31.8029
Au 21.9581 29.8445 29.1789
Au 21.7282 31.1502 26.7593
Au 21.5333 32.2059 24.055
Au 21.1921 33.2199 21.3888
Au 20.7969 34.6193 18.5412
Au 24.8863 28.1726 31.1678
Au 24.6062 29.1686 28.5341
Au 24.3141 30.682 25.9812
Au 24.1203 31.5124 23.2363
Au 23.914 32.496 20.6322
Au 23.4511 33.7205 18.1257
Au 27.5274 27.4017 30.6562
Au 27.4384 28.4391 27.9096
Au 27.1646 29.5445 25.284
Au 26.9976 30.7533 22.68
Au 26.5876 31.5774 19.774
Au 26.1418 32.7171 17.1681
Au 30.4295 26.3319 30.0942
Au 30.0755 27.2726 27.3393
Au 29.9526 28.5411 24.7934
Au 29.7616 29.763 22.121
Au 29.4334 30.7184 19.4023
Au 29.0595 31.9154 16.6809
Au 33.0118 25.7218 29.3971
Au 33.1792 26.5442 26.7497
Au 33.0026 27.5716 24.1503
Au 32.6661 28.7761 21.5536
Au 32.2784 30.0303 18.9141
Au 31.8851 31.0011 16.297
Au 33.1884 22.9589 28.3976
Au 33.0007 24.0221 25.5836
Au 32.7047 24.9668 22.8439
Au 32.4884 26.2581 20.2785
Au 32.2553 27.4326 17.6095
Au 31.9715 28.5245 15.0119
Au 33.1169 20.1656 26.9639
Au 32.8076 21.3559 24.2618
Au 32.5731 22.5638 21.6361
Au 32.2801 23.6676 18.9137
Au 31.9513 24.7858 16.2778
Au 31.9896 25.9985 13.6114
Au 33.1083 17.4686 25.7904
Au 32.7164 18.7596 23.2337
Au 32.4778 19.9181 20.5923
Au 32.349 21.0937 17.8851
Au 32.0264 22.0785 15.3022
Au 31.6174 23.2654 12.7089
Au 33.0147 14.8366 24.4574
Au 32.7946 16.3268 22.0067
Au 32.3982 17.2412 19.4823
Au 32.0907 18.34 16.8508
Au 31.8861 19.6306 14.2448
Au 31.8048 20.6682 11.6602
Au 32.9074 12.3955 23.5125
Au 32.6737 13.4524 20.7714
Au 32.3141 14.4348 18.0917
Au 31.9189 15.8447 15.6958
Au 31.622 16.9033 13.003
Au 31.4506 18.2592 10.2667
Au 32.6442 9.91717 22.3154
Au 32.5328 10.799 19.5038
Au 32.3324 11.8666 16.7888
Au 31.9331 13.0451 14.3607
Au 31.5709 14.2538 11.8602
Au 31.0531 15.8619 9.32435
Au 30.0822 8.75047 22.2845
Au 29.6059 10.1405 19.5836
Au 29.3766 11.1149 16.801
Au 29.1773 12.2177 14.3029
Au 28.6896 13.5946 11.5653
Au 28.4056 14.7641 9.03849
Au 27.2628 7.83261 22.0316
Au 26.9138 9.06025 19.4702
Au 26.7331 10.2037 16.8659
Au 26.488 11.4132 14.07
Au 26.0686 12.5785 11.4859
Au 25.9849 13.6973 9.0691
Au 24.3577 7.1039 21.946
Au 24.2298 8.25647 19.375
Au 23.9982 9.29664 16.742
Au 23.6154 10.6577 14.0657
Au 23.3799 11.9383 11.4166
Au 23.229 13.0499 8.76341
Au 21.7038 6.31479 21.9524
Au 21.3711 7.53857 19.141
Au 21.1902 8.74426 16.6093
Au 20.8419 9.78029 14.0342
Au 20.6435 10.9644 11.47
Au 20.4342 12.3325 8.73982
Au 18.8723 5.51059 21.8256
Au 18.6274 6.70007 19.2552
Au 18.5797 7.67687 16.5704
Au 18.2699 8.96317 13.8946
Au 17.7772 10.359 11.4531
Au 17.8997 11.2164 8.68009
Au 16.2004 5.01734 21.7601
Au 15.7905 5.78207 19.0636
Au 15.7065 7.02402 16.2633
Au 15.4497 8.1377 13.5457
Au 15.0329 9.29095 11.2983
Au 15.1601 10.557 8.81904
Au 14.4607 6.76993 22.9087
Au 14.0855 8.02618 20.2749
Au 13.8544 9.22724 17.5179
Au 13.6314 10.1539 14.9356
Au 13.3944 11.3225 12.3281
Au 13.4854 12.6218 9.85033
Au 12.8355 8.96365 23.8597
Au 12.444 10.1017 21.1785
Au 12.3469 11.2163 18.6087
Au 11.8277 12.3239 15.9704
Au 11.6588 13.5829 13.4158
Au 11.5767 14.7668 10.5873
Au 11.0776 11.0116 25.1069
Au 10.7491 12.0878 22.2301
Au 10.4069 13.205 19.6407
Au 10.5245 14.5329 16.9773
Au 10.0722 15.6952 14.4612
Au 9.87836 16.7823 11.6213
Au 9.55145 13.1557 26.287
Au 9.16259 14.0515 23.6908
Au 8.84092 15.265 21.0057
Au 8.81389 16.5869 18.2508
Au 8.70058 17.7166 15.6029
Au 8.25316 18.9101 12.8102
Au 7.87974 15.215 27.3728
Au 7.75961 16.4176 24.5665
Au 7.51468 17.6586 22.0395
Au 7.13042 18.796 19.5155
Au 6.98805 19.7384 16.9203
Au 6.73179 20.7375 14.0796
Au 5.75723 19.9367 27.9875
Au 5.45391 21.0275 25.5486
Au 5.18999 22.6107 23.0059
Au 5.02865 23.629 20.313
Au 4.735 24.4886 17.6422
Au 7.41096 22.0022 29.0951
Au 7.04019 23.2932 26.6441
Au 6.92352 24.6068 23.9984
Au 6.62681 25.6375 21.0796
Au 6.27839 26.5353 18.3881
Au 9.03216 24.2264 29.6681
Au 8.72382 25.5536 27.2575
Au 8.7162 26.7451 24.8529
Au 8.29446 27.9222 21.5523
Au 7.9459 28.8601 19.0155
Au 10.8197 26.4588 30.0582
Au 10.2581 27.7024 27.7877
Au 10.0815 28.9816 25.1506
Au 10.0931 30.0137 22.6835
Au 9.72068 30.7781 20.1956
Au 12.8095 28.11 31.2979
Au 12.2513 29.5294 28.7276
Au 11.8789 30.813 26.1974
Au 11.8 32.1795 23.4361
Au 11.4733 33.2106 20.871
Au 14.4457 30.3549 31.902
Au 14.0922 31.6834 29.4454
Au 13.6235 33.0178 26.8439
Au 13.3444 34.2646 24.366
Au 12.8401 35.1014 21.73
Au 18.5483 31.5803 32.2507
Au 18.4439 33.0953 29.704
Au 18.265 34.3464 26.988
Au 17.904 35.6159 24.4501
Au 17.3882 36.5529 21.9205
Au 21.5413 31.322 31.6405
Au 21.1764 32.4413 29.2231
Au 20.8311 33.7023 26.2899
Au 20.6414 34.7552 23.7928
Au 20.2351 35.7877 21.1982
Au 24.0297 30.665 30.7637
Au 23.8694 31.7819 28.3973
Au 23.4644 33.1866 25.8142
Au 23.4195 33.9751 22.9593
Au 22.722 35.0942 20.2622
Au 26.7902 30.2023 30.2114
Au 26.6394 31.0437 27.4916
Au 26.0548 32.308 25.0946
Au 26.1764 33.1544 22.0778
Au 25.7731 34.0599 19.4344
Au 29.4617 28.8376 29.5749
Au 29.4541 30.1462 27.1871
Au 29.0947 31.3594 24.4569
Au 28.7954 32.3499 21.6111
Au 28.3931 33.2311 18.9119
Au 32.0203 28.1461 28.8957
Au 32.1887 29.0058 26.2281
Au 31.8409 30.1523 23.6087
Au 31.4831 31.47 21.1655
Au 31.1099 32.4938 18.6172
Au 35.0405 24.7113 27.1586
Au 34.8815 25.5899 24.5852
Au 34.6103 26.8133 21.8807
Au 34.3954 27.7703 19.3373
Au 33.9944 29.0792 16.8806
Au 34.836 22.274 26.1694
Au 34.7598 23.2754 23.2171
Au 34.3272 24.4662 20.6086
Au 34.3473 25.336 17.9214
Au 33.9139 26.708 15.527
Au 34.6679 19.6356 24.7635
Au 34.5931 20.5887 22.1351
Au 34.3446 21.6915 19.5208
Au 34.2868 22.6697 16.7979
Au 33.847 24.0126 14.4257
Au 34.8324 17.1816 23.6406
Au 34.7876 17.9448 21.0016
Au 34.3849 19.2698 18.4526
Au 34.1631 20.0426 15.8161
Au 33.7377 21.3982 13.4139
Au 34.547 14.4209 22.4035
Au 34.2985 15.3826 19.844
Au 34.0588 16.5428 17.3539
Au 33.9834 17.4988 14.8175
Au 33.7123 18.6478 12.4218
Au 34.4758 11.6613 21.2424
Au 34.3468 12.7729 18.6546
Au 33.8395 14.0595 15.865
Au 33.853 15.2018 13.6532
Au 33.0627 16.2803 11.1587
Au 31.6495 8.49389 20.228
Au 31.3774 9.42898 17.5426
Au 31.2159 10.2378 14.9333
Au 30.617 11.4766 11.8839
Au 30.5351 13.1542 9.67468
Au 29.1137 7.38041 20.056
Au 28.755 8.40982 17.5652
Au 28.6703 9.48534 14.7321
Au 28.092 10.6227 12.1041
Au 28.0118 11.8373 9.73892
Au 26.3679 6.4634 19.8997
Au 26.0337 7.71461 17.3315
Au 25.8956 8.79217 14.7172
Au 25.3894 9.91339 12.1386
Au 25.1228 11.1607 9.47476
Au 23.3749 5.89733 19.7388
Au 23.2383 6.92838 17.1882
Au 23.0037 8.02351 14.5859
Au 22.8434 9.07449 11.7399
Au 22.4815 10.3935 9.46354
Au 20.6825 5.0158 19.6441
Au 20.7327 5.82163 17.0805
Au 20.408 6.87973 14.6679
Au 20.1441 8.16263 11.9636
Au 19.6576 9.41867 9.5209
Au 17.9889 4.17328 19.835
Au 18.0551 5.0046 17.2147
Au 17.6679 6.25222 14.6774
Au 17.4432 7.66603 11.8927
Au 17.0135 8.84698 9.44155
Au 13.7761 5.35926 20.7143
Au 13.1633 6.66899 18.0809
Au 13.3157 7.73008 15.4414
Au 12.7123 8.61219 12.8119
Au 12.8748 10.1644 10.0655
Au 11.9821 7.2931 21.7253
Au 11.569 8.58303 19.0676
Au 11.3405 9.68053 16.4598
Au 10.9965 10.8688 13.6302
Au 10.892 12.0392 11.2256
Au 10.3525 9.44385 22.7979
Au 9.82773 10.7169 20.1728
Au 9.67817 11.8637 17.3692
Au 9.43795 13.0337 14.9643
Au 9.44645 14.2026 11.9754
Au 8.72567 11.4671 24.0941
Au 8.14383 12.71 21.3858
Au 8.05895 14.0691 18.618
Au 7.8124 15.1148 16.0506
Au 7.78473 16.4785 13.5055
Au 6.83042 13.7548 24.9534
Au 6.44697 14.8805 22.5816
Au 6.51726 16.0156 19.9665
Au 6.34984 17.0165 17.3724
Au 6.05687 17.9994 14.9212
Au 5.61771 15.8009 26.1385
Au 5.20145 17.0197 23.6407
Au 5.03766 18.2409 21.0398
Au 4.86648 19.2768 18.3106
Au 4.566 20.1533 15.7377
