12
 Atoms. Timestep: 50000
Au 21.7493 22.5191 20.1941
Au 19.2999 21.4081 20.4263
Au 17.1836 19.8978 20.8469
Au 23.2749 20.4461 20.762
Au 21.3213 18.82 22.0862
Au 22.7733 21.3828 18.3898
Au 20.1725 21.4858 17.8831
Au 19.0844 18.2126 20.7153
Au 21.2053 21.3468 22.3854
Au 21.1464 19.6458 19.6707
Au 19.0596 19.9524 22.6661
Au 18.4695 19.6227 18.7141
