1228
 Atoms. Timestep: 50000
Au 21.9377 13.053 35.676
Au 21.9203 14.4229 33.2845
Au 21.5185 15.6988 30.8458
Au 21.4072 16.8283 28.2933
Au 20.8056 17.7872 25.5587
Au 20.6207 19.1806 22.7929
Au 20.3113 20.4778 20.3934
Au 20.1983 21.5075 17.8147
Au 19.947 22.7011 15.1297
Au 19.4503 23.953 12.3585
Au 19.1018 25.0458 9.84324
Au 18.8963 26.4402 7.47754
Au 18.6564 27.2701 4.9034
Au 19.4125 13.787 34.7536
Au 19.2412 15.1592 32.3899
Au 18.8806 16.3048 29.6787
Au 18.683 17.5302 27.0411
Au 18.2845 18.4608 24.3605
Au 17.9718 19.6674 21.7891
Au 17.8425 20.9125 19.3169
Au 17.5758 22.1751 16.5757
Au 17.4708 23.2395 13.9499
Au 16.8477 24.3942 11.4217
Au 16.6451 25.5168 8.94015
Au 16.3837 26.7165 6.35147
Au 21.5049 15.8782 35.2992
Au 20.8277 17.3145 33.1368
Au 20.674 18.381 30.5691
Au 20.215 19.5662 28.0804
Au 20.0431 20.663 25.4158
Au 19.8516 21.9305 22.7496
Au 19.3244 23.1514 20.2391
Au 19.4795 24.3511 17.5959
Au 19.2069 25.3481 14.8761
Au 18.5989 26.5024 12.319
Au 18.5361 27.8599 9.79343
Au 18.3978 28.8835 7.22642
Au 23.8702 15.137 34.9559
Au 23.6066 16.6096 32.484
Au 23.3783 17.4608 29.8859
Au 22.8677 18.8122 27.1369
Au 22.7351 19.9635 24.8291
Au 22.5544 21.185 22.1107
Au 22.3682 22.4513 19.425
Au 21.9908 23.5839 16.8491
Au 21.7474 24.7775 14.0682
Au 21.3995 25.8702 11.5524
Au 21.1099 27.113 9.09563
Au 20.8303 27.9755 6.47566
Au 23.838 12.5714 33.8332
Au 23.4767 13.8057 31.3414
Au 23.4039 14.7495 28.7309
Au 22.9578 16.0622 26.0253
Au 22.6258 17.2027 23.5219
Au 22.5695 18.4419 20.8534
Au 22.2018 19.672 18.3534
Au 22.0427 20.911 15.6727
Au 21.4787 21.8745 13.2064
Au 21.2214 23.1001 10.4294
Au 20.9263 24.4544 7.79499
Au 20.7399 25.6126 5.28139
Au 20.983 11.738 33.6984
Au 20.734 13.0108 31.249
Au 20.4962 14.2106 28.6247
Au 20.2806 15.1572 26.0753
Au 19.9772 16.3598 23.2519
Au 19.7838 17.715 20.5669
Au 19.3525 18.7203 18.0799
Au 19.2723 19.9923 15.5445
Au 18.9012 20.9909 12.8813
Au 18.4645 22.2673 10.3116
Au 18.1096 23.3913 7.8094
Au 18.0179 24.7688 5.34317
Au 16.8422 14.7507 33.7895
Au 16.4973 15.7989 31.1571
Au 16.2075 16.7679 28.6456
Au 15.9962 18.0608 26.0246
Au 15.7438 19.1447 23.3428
Au 15.3042 20.2514 20.945
Au 15.2299 21.433 18.3008
Au 15.0353 22.7493 15.649
Au 14.6539 23.7283 13.0239
Au 14.2874 25.0177 10.3378
Au 14.2796 26.2204 7.78133
Au 18.8058 16.6273 34.7675
Au 18.4121 17.7755 32.1958
Au 17.9741 18.9419 29.4737
Au 17.8491 20.185 26.6818
Au 17.3493 21.3346 24.2032
Au 17.068 22.425 21.7135
Au 16.9832 23.6038 18.8856
Au 16.7339 25.054 16.3062
Au 16.4206 25.8065 13.8194
Au 16.1372 27.2616 11.1927
Au 16.0311 28.462 8.59124
Au 20.291 18.8343 35.3572
Au 20.2385 20.0156 32.8231
Au 19.8042 21.3539 30.4582
Au 19.4953 22.2902 27.7103
Au 19.2064 23.255 25.1921
Au 19.0819 24.5048 22.5943
Au 18.7216 25.8306 19.8178
Au 18.4681 26.9866 17.1368
Au 17.9719 28.0553 14.5474
Au 18.0079 29.3525 12.1475
Au 17.8777 30.4235 9.59004
Au 23.1412 17.8382 34.746
Au 22.8366 19.2091 32.3472
Au 22.6535 20.3899 29.6361
Au 22.1373 21.6647 27.2987
Au 21.8648 22.6223 24.6292
Au 21.8394 23.7228 21.8088
Au 21.3977 25.1029 19.2632
Au 21.3045 26.4017 16.606
Au 20.9124 27.4665 13.8728
Au 20.729 28.7633 11.3462
Au 20.5514 29.7909 8.77604
Au 25.7486 17.23 34.1331
Au 25.5773 18.3067 31.6155
Au 25.1446 19.6308 28.8811
Au 24.9596 20.8258 26.3745
Au 24.8143 21.9519 23.8356
Au 24.613 23.216 21.4172
Au 24.1526 24.3818 18.6303
Au 23.8889 25.599 15.8826
Au 23.6313 26.6792 13.2764
Au 23.3799 28.0164 10.6487
Au 23.1163 28.7435 8.20215
Au 25.7301 14.5874 33.0782
Au 25.5246 15.4455 30.4267
Au 25.1412 17.0878 27.7148
Au 24.9444 17.9348 25.2102
Au 24.4483 19.3071 22.7825
Au 24.2985 20.3833 19.9325
Au 24.1586 21.6369 17.411
Au 23.808 22.8929 14.8333
Au 23.5304 23.8888 12.2535
Au 23.2792 25.0993 9.33821
Au 23.0867 26.1008 6.86984
Au 25.5652 11.9832 31.7112
Au 25.3856 12.8676 29.2362
Au 25.1587 14.3667 26.5779
Au 24.8383 15.4986 24.1485
Au 24.5513 16.5354 21.4003
Au 24.2987 17.5478 18.7024
Au 23.8608 18.809 16.2771
Au 23.5777 19.976 13.5421
Au 23.3531 21.2413 10.9909
Au 23.118 22.5113 8.22498
Au 22.8081 23.5987 5.88719
Au 22.8579 10.9772 31.7798
Au 22.5696 12.0584 29.2712
Au 22.2 13.303 26.6553
Au 22.0235 14.4067 23.8104
Au 21.6899 15.7212 21.1518
Au 21.4615 16.8645 18.6136
Au 21.2506 18.2376 16.0914
Au 20.8594 19.1578 13.2443
Au 20.6895 20.4852 10.5369
Au 20.2798 21.6174 7.97545
Au 20.0319 22.9604 5.46913
Au 20.0555 10.2368 31.5012
Au 19.9077 11.4832 29.0296
Au 19.5444 12.5431 26.4258
Au 19.2059 13.677 23.6686
Au 18.9935 14.8322 21.2041
Au 18.768 15.9162 18.5478
Au 18.3961 17.2513 15.8829
Au 18.1108 18.4506 13.3779
Au 17.9213 19.5705 10.6663
Au 17.759 20.6429 7.9456
Au 17.3746 22.1122 5.45074
Au 18.3094 12.2773 32.6013
Au 18.1373 13.6316 30.0756
Au 17.8966 14.7018 27.4255
Au 17.614 15.8825 24.9467
Au 17.4569 16.9823 22.1655
Au 17.0856 18.1108 19.6592
Au 16.8575 19.3517 17.0536
Au 16.4917 20.5881 14.4342
Au 16.2174 21.5243 11.8594
Au 15.8147 22.816 9.411
Au 15.5593 24.0816 6.80024
Au 14.3408 15.3083 32.9879
Au 13.9414 16.398 30.1996
Au 13.6208 17.5072 27.6236
Au 13.4267 18.487 25.125
Au 12.9868 19.7542 22.3585
Au 12.937 20.9091 19.8767
Au 12.7626 22.0083 17.1535
Au 12.424 23.3668 14.502
Au 11.9127 24.3872 12.0063
Au 11.8672 25.3463 9.40179
Au 16.1256 17.4074 33.7196
Au 15.7844 18.444 31.1484
Au 15.5416 19.6274 28.2981
Au 14.973 20.7351 25.6829
Au 14.587 21.8128 23.2186
Au 14.9008 23.1144 20.4235
Au 14.3692 24.3212 17.9631
Au 13.9728 25.464 15.2904
Au 13.816 26.5357 12.732
Au 13.6835 27.7776 10.1555
Au 17.8521 19.6841 34.5098
Au 17.572 20.5843 31.9237
Au 17.1875 21.4904 29.1756
Au 16.8182 22.809 26.614
Au 16.4787 24.114 24.0872
Au 16.4092 25.2339 21.3097
Au 16.1088 26.3547 18.8924
Au 15.7002 27.5255 16.104
Au 15.508 28.685 13.365
Au 15.5768 29.9903 10.975
Au 19.6446 21.6613 35.0856
Au 19.4421 22.7701 32.7878
Au 19.0865 24.0116 29.855
Au 18.8136 25.059 27.3222
Au 18.4324 26.09 24.8674
Au 18.1991 27.4389 22.1505
Au 17.8695 28.5437 19.4753
Au 17.7481 29.7986 16.8683
Au 17.2121 30.9298 14.2912
Au 17.1393 31.9799 11.7419
Au 22.2129 20.8463 34.7261
Au 22.2553 21.9588 31.9818
Au 21.7967 23.1089 29.4924
Au 21.4139 24.2793 26.7945
Au 21.0381 25.3278 24.2958
Au 20.8871 26.6778 21.5993
Au 20.5551 27.7811 19.031
Au 20.2978 28.9807 16.3603
Au 19.9871 30.3229 13.6774
Au 19.8764 31.3719 11.0332
Au 25.0675 19.9797 33.8586
Au 24.892 21.1213 31.4122
Au 24.5809 22.452 28.799
Au 24.2216 23.5144 26.1994
Au 24.0313 24.5541 23.6082
Au 23.6063 25.8273 21.0331
Au 23.2815 27.0911 18.363
Au 23.0932 28.3452 15.7312
Au 22.8167 29.5818 13.0111
Au 22.6859 30.7087 10.428
Au 27.5382 19.2591 33.2138
Au 27.4537 20.4291 30.6122
Au 27.2944 21.6658 28.1076
Au 26.9999 22.6517 25.4859
Au 26.659 24.0538 22.9944
Au 26.4061 25.0333 20.4635
Au 26.0032 26.1329 17.6885
Au 25.7766 27.4406 15.0276
Au 25.4595 28.6526 12.3174
Au 25.192 29.7899 9.87661
Au 27.4769 16.5428 32.1864
Au 27.2976 17.563 29.5139
Au 26.9804 18.8341 27.0705
Au 26.8971 19.9575 24.4214
Au 26.4748 21.2627 21.7581
Au 26.2733 22.3542 19.0643
Au 26.0385 23.655 16.3561
Au 25.6283 24.7595 13.7881
Au 25.3798 25.8781 11.144
Au 25.1772 26.8785 8.53093
Au 27.6926 13.8752 31.0296
Au 27.3864 14.9257 28.4566
Au 27.185 16.417 25.9463
Au 26.8191 17.3703 23.2374
Au 26.2435 18.4636 20.6639
Au 26.1715 19.6266 17.9278
Au 25.6589 20.8477 15.2433
Au 25.6681 22.0401 12.6735
Au 25.1201 23.2446 10.1123
Au 25.0522 24.379 7.3711
Au 27.4093 11.2469 29.654
Au 27.0995 12.4725 27.1131
Au 26.9486 13.556 24.4586
Au 26.5907 14.7569 21.9219
Au 26.474 15.8364 19.2546
Au 26.1083 16.9326 16.6798
Au 25.785 18.2596 14.1066
Au 25.6066 19.4034 11.3636
Au 25.2685 20.566 8.7961
Au 24.9021 21.7858 6.34326
Au 24.5963 10.2947 29.8006
Au 24.2963 11.3897 27.2366
Au 24.2054 12.8966 24.4678
Au 23.9546 13.8764 21.7655
Au 23.5705 14.9203 19.2672
Au 23.2295 16.1465 16.5462
Au 22.8973 17.3898 13.8851
Au 22.8246 18.48 11.3855
Au 22.6581 19.8189 8.61089
Au 22.1686 20.8948 5.94288
Au 21.8169 9.31817 29.7292
Au 21.6501 10.4285 27.1194
Au 21.4977 11.7883 24.448
Au 21.0968 13.1263 21.4984
Au 20.7748 14.1302 18.8828
Au 20.6212 15.3217 16.2261
Au 20.1909 16.4267 13.7131
Au 19.9796 17.6998 11.0228
Au 19.7862 18.7128 8.34629
Au 19.4599 20.1252 5.96674
Au 19.0016 8.92686 29.3819
Au 18.766 9.73053 26.6845
Au 18.4432 11.0025 24.2328
Au 18.1829 12.0653 21.5202
Au 18.0554 13.1821 18.9905
Au 17.6711 14.3914 16.3645
Au 17.4085 15.5313 13.859
Au 17.1467 16.7716 11.2626
Au 16.9662 17.8917 8.45752
Au 16.7626 19.3431 6.07
Au 17.6386 10.897 30.3506
Au 17.1141 11.839 27.961
Au 16.9191 13.1681 25.28
Au 16.5827 14.219 22.7915
Au 16.4369 15.2802 20.1357
Au 16.1473 16.5861 17.5837
Au 15.8931 17.9107 14.9733
Au 15.5444 18.8585 12.3208
Au 15.3413 19.9079 9.74084
Au 15.1584 21.3864 7.25111
Au 15.7713 13.2162 31.7298
Au 15.5246 14.2012 29.0815
Au 15.2812 15.3014 26.5628
Au 14.992 16.2666 23.7448
Au 14.8411 17.4748 21.173
Au 14.5243 18.7965 18.6317
Au 14.2139 19.8675 16.0041
Au 14.0051 20.8652 13.3833
Au 13.5135 22.1803 10.8965
Au 13.3276 23.3602 8.17115
Au 11.8088 15.7291 31.7656
Au 11.3814 16.8204 29.1263
Au 11.138 17.9972 26.6034
Au 10.7935 18.9339 23.9363
Au 10.3565 20.296 21.35
Au 10.2585 21.4677 18.7501
Au 10.1323 22.5767 15.9932
Au 9.3609 23.5802 13.4773
Au 9.38328 24.6402 10.9689
Au 13.4547 17.7381 32.8753
Au 13.1139 19.0464 30.0497
Au 12.9386 20.0878 27.3731
Au 12.3586 21.2413 24.7177
Au 12.0817 22.4936 22.1045
Au 11.8723 23.5478 19.4266
Au 11.6989 24.8163 16.9718
Au 11.2608 25.8571 14.204
Au 11.1702 27.0218 11.5782
Au 15.1083 19.8881 33.4852
Au 14.9489 21.1515 30.7198
Au 14.4051 22.2682 28.1344
Au 14.2676 23.44 25.7143
Au 14.0537 24.5707 22.6901
Au 13.7104 25.6498 20.2509
Au 13.6053 27.0048 17.6787
Au 13.1634 28.2409 14.7768
Au 12.9182 29.2809 12.4093
Au 16.9384 22.2012 34.214
Au 16.8417 23.3131 31.8103
Au 16.4961 24.4282 28.7574
Au 16.1968 25.7748 26.4456
Au 15.8266 26.6827 23.7403
Au 15.68 27.9977 21.115
Au 15.3015 29.1557 18.3587
Au 14.9741 30.3405 15.8667
Au 14.5381 31.1699 13.3183
Au 18.5434 24.3664 34.8345
Au 18.5938 25.4278 32.3005
Au 18.2424 26.7173 29.698
Au 17.9387 27.8736 26.9854
Au 17.8945 29.0151 24.5635
Au 17.4875 30.1113 21.9964
Au 17.0564 31.1194 19.4124
Au 16.7432 32.5122 16.7739
Au 16.4746 33.4888 14.3566
Au 21.5158 23.4357 34.3727
Au 21.3075 24.7416 31.9402
Au 20.9265 25.9299 29.2434
Au 20.5558 27.1234 26.6573
Au 20.5625 28.0494 23.9448
Au 19.9963 29.4252 21.3579
Au 19.7831 30.6113 18.6485
Au 19.4361 31.9424 16.0864
Au 19.1018 32.7996 13.5709
Au 24.16 22.5858 33.7406
Au 24.0779 24.0208 31.2608
Au 23.673 25.2292 28.5954
Au 23.3562 26.2739 25.906
Au 23.1027 27.4419 23.3448
Au 22.8682 28.5583 20.6354
Au 22.5464 29.9809 18.0234
Au 22.0799 31.0995 15.495
Au 21.905 32.0839 12.8056
Au 27.029 21.805 33.043
Au 26.6234 23.1258 30.58
Au 26.4968 24.3923 28.003
Au 26.167 25.5766 25.2793
Au 25.8738 26.6737 22.8777
Au 25.5939 27.7277 19.9223
Au 25.4146 28.9669 17.3826
Au 25.1323 30.2973 14.5791
Au 24.8156 31.2841 12.0044
Au 29.5308 21.1991 32.2279
Au 29.3889 22.3594 29.7713
Au 29.2033 23.4797 27.1742
Au 28.8547 24.7228 24.6722
Au 28.5516 25.8511 22.0691
Au 28.2948 27.0043 19.3789
Au 27.8736 28.4592 16.7844
Au 27.6962 29.4569 14.1914
Au 27.5404 30.5094 11.6392
Au 29.5007 18.2713 31.2696
Au 29.3034 19.6429 28.8631
Au 29.0072 20.7636 26.0598
Au 28.7293 21.9687 23.5252
Au 28.333 23.1617 20.9529
Au 28.0965 24.3808 18.2412
Au 27.8852 25.4928 15.5132
Au 27.4667 26.6333 12.7571
Au 27.2239 27.9165 10.3792
Au 29.496 15.7626 30.201
Au 29.3104 17.0438 27.5947
Au 29.0001 18.2175 24.8529
Au 28.4958 19.4212 22.2884
Au 28.3574 20.4059 19.5922
Au 27.9179 21.6367 17.1246
Au 27.8601 22.723 14.2686
Au 27.4966 24.0187 11.539
Au 27.2617 25.0691 9.21364
Au 29.459 13.2307 28.8545
Au 29.1334 14.4697 26.3458
Au 28.7228 15.5243 23.6901
Au 28.5542 16.6322 21.16
Au 28.1892 17.61 18.4394
Au 27.9133 18.9202 15.859
Au 27.714 20.1055 13.312
Au 27.3092 21.4845 10.4528
Au 27.0883 22.3713 8.0063
Au 29.0046 10.6764 27.714
Au 28.9554 11.7058 25.1811
Au 28.8875 12.9181 22.4909
Au 28.5315 13.9414 19.8559
Au 28.3199 15.0992 17.1609
Au 27.9358 16.0754 14.5691
Au 27.5143 17.4998 12.0446
Au 27.2955 18.6474 9.39668
Au 27.1074 19.7973 6.9176
Au 26.4501 9.73781 27.7248
Au 26.1378 10.8253 24.9478
Au 26.1559 12.0193 22.4244
Au 25.8966 13.012 19.5739
Au 25.3237 14.2301 17.2444
Au 25.0193 15.2606 14.4363
Au 24.7894 16.4797 11.9062
Au 24.5677 17.8701 9.14824
Au 24.3898 19.0586 6.54867
Au 23.7107 8.70407 27.4464
Au 23.4634 9.89956 24.8533
Au 23.2845 11.2106 22.3521
Au 23.0622 12.2403 19.5653
Au 22.6414 13.3988 16.8612
Au 22.3461 14.5085 14.2692
Au 22.0384 15.6582 11.7323
Au 21.796 16.9129 9.04346
Au 21.597 18.1463 6.52883
Au 20.8347 7.99438 27.538
Au 20.6175 9.06969 24.9049
Au 20.4468 10.5395 22.3028
Au 20.1145 11.2539 19.5852
Au 19.7284 12.7134 16.6944
Au 19.4359 13.5443 14.0953
Au 19.2889 14.8206 11.6155
Au 18.9771 16.015 9.00983
Au 18.8882 17.3928 6.35641
Au 18.0712 7.17227 27.3037
Au 17.7289 8.08011 24.8143
Au 17.6682 9.38914 22.1461
Au 17.4087 10.541 19.3609
Au 17.0824 11.547 16.7323
Au 16.8555 12.7593 14.14
Au 16.5752 13.8687 11.4698
Au 16.2359 15.2659 9.16013
Au 16.1307 16.4121 6.34854
Au 16.3094 9.18248 28.4124
Au 16.1461 10.141 25.7233
Au 15.9352 11.5762 23.2791
Au 15.6915 12.5649 20.5063
Au 15.3664 13.9523 18.0651
Au 15.0228 15.0564 15.4773
Au 14.9317 15.8973 12.7647
Au 14.6967 17.339 10.1098
Au 14.5769 18.4856 7.4173
Au 14.9887 11.4635 29.5792
Au 14.6092 12.3962 27.0554
Au 14.2052 13.6373 24.4069
Au 13.9212 14.7508 21.5961
Au 13.6984 16.1956 19.0453
Au 13.4756 17.2316 16.5229
Au 13.2676 18.2782 13.9456
Au 12.8402 19.4289 11.1851
Au 12.7808 20.6429 8.70651
Au 13.4094 13.7117 30.7955
Au 13.0717 14.6697 28.1205
Au 12.6272 15.7305 25.4576
Au 12.426 16.9028 22.7803
Au 11.8973 17.9878 20.4483
Au 11.9683 19.263 17.7739
Au 11.7294 20.4321 15.02
Au 11.3167 21.4581 12.5656
Au 11.0337 22.6642 9.72197
Au 9.10919 16.1271 30.7609
Au 8.8215 17.3804 28.0453
Au 8.4255 18.4849 25.5329
Au 8.22558 19.6401 22.9959
Au 7.72134 20.9885 20.2318
Au 7.58314 21.9719 17.6643
Au 7.32354 23.1242 15.1691
Au 7.10046 24.3321 12.3811
Au 10.8499 18.527 31.488
Au 10.5447 19.6909 29.0337
Au 10.1751 20.5813 26.3925
Au 9.89977 21.7075 23.8065
Au 9.36062 22.9214 20.9705
Au 9.29181 24.2191 18.2442
Au 9.04101 25.4 15.6582
Au 8.88532 26.3803 13.1166
Au 12.7855 20.5982 32.3036
Au 12.3043 21.6706 29.8782
Au 12.0115 22.8148 27.0331
Au 11.7882 23.8569 24.3876
Au 11.3942 25.1148 21.6253
Au 11.0863 26.3531 19.1113
Au 10.9564 27.5846 16.4177
Au 10.4545 28.5091 13.9601
Au 14.5443 22.5535 33.1935
Au 14.0798 23.9819 30.7359
Au 13.9588 25.1343 28.0119
Au 13.5337 26.1893 25.265
Au 13.2971 27.2312 22.6619
Au 12.9566 28.4069 19.9702
Au 12.5471 29.762 17.3161
Au 12.2753 30.946 14.7493
Au 16.0111 25.2047 34.0883
Au 15.8972 26.166 31.3336
Au 15.6055 27.3711 28.7253
Au 15.3567 28.3845 25.9498
Au 15.1775 29.3465 23.545
Au 14.7022 30.6486 20.6834
Au 14.5359 31.851 18.0988
Au 14.2184 33.0947 15.5346
Au 17.7679 27.2119 34.3665
Au 17.6158 28.3233 31.9238
Au 17.3244 29.3422 29.3876
Au 17.0968 30.7392 26.9419
Au 16.8543 31.7817 24.3267
Au 16.5189 32.7192 21.7802
Au 16.1497 33.9304 19.1622
Au 16.1963 35.29 16.6579
Au 20.5494 26.2377 34.0409
Au 20.3944 27.4013 31.6104
Au 20.1084 28.7674 28.832
Au 19.97 29.7473 26.2455
Au 19.7265 31.0457 23.7976
Au 19.3381 32.0355 20.9242
Au 18.7776 33.3636 18.4416
Au 18.6658 34.4602 15.8852
Au 23.4023 25.3251 33.6261
Au 23.2727 26.7212 31.0531
Au 22.7857 27.8404 28.3273
Au 22.6334 29.0452 25.5652
Au 22.4254 29.9721 22.9908
Au 21.9483 31.347 20.5023
Au 21.7043 32.5693 17.955
Au 21.5432 33.7846 15.2446
Au 26.2472 24.5958 32.826
Au 25.992 26.0474 30.4499
Au 25.4581 27.0636 27.7134
Au 25.3052 28.314 25.1024
Au 25.1352 29.404 22.4699
Au 24.6493 30.4574 19.8313
Au 24.4597 31.8046 16.8062
Au 24.0757 32.6939 14.2309
Au 28.8652 23.801 32.038
Au 28.64 25.2294 29.558
Au 28.3042 26.4349 27.1361
Au 28.1797 27.3434 24.408
Au 27.7219 28.5768 21.8324
Au 27.5605 29.7639 19.1063
Au 27.2195 31.0963 16.4065
Au 26.9657 32.228 13.6732
Au 31.5352 23.3289 31.3665
Au 31.2148 24.3523 28.8786
Au 31.0566 25.4357 26.1487
Au 30.8161 26.7597 23.6812
Au 30.5031 27.7412 21.205
Au 30.1134 28.9963 18.6747
Au 30.001 29.9976 16.0986
Au 29.6238 31.1874 13.6432
Au 31.3478 20.691 30.5757
Au 31.0983 21.5195 27.8093
Au 30.9583 22.776 25.0484
Au 30.4204 24.0702 22.5731
Au 30.2421 25.0531 19.8578
Au 29.9865 26.4016 17.2146
Au 29.7996 27.5181 14.6097
Au 29.3289 28.6009 12.2148
Au 31.3669 17.831 29.4298
Au 31.0317 18.8495 26.6051
Au 30.9224 20.0509 24.1287
Au 30.5381 21.2722 21.6003
Au 30.0957 22.4416 18.5583
Au 29.839 23.677 16.0129
Au 29.5278 24.657 13.2798
Au 29.4459 25.8886 10.7488
Au 31.1855 15.0532 28.0783
Au 30.9918 16.1644 25.4438
Au 30.6119 17.5101 22.8425
Au 30.2825 18.608 20.1691
Au 30.08 19.6046 17.5892
Au 29.7792 20.9238 15.0229
Au 29.7529 22.1387 12.2503
Au 29.4485 23.3108 9.73235
Au 31.1573 12.2186 26.7338
Au 30.9373 13.4835 24.1971
Au 30.8279 14.76 21.586
Au 30.4501 16.0036 18.9093
Au 30.0905 17.0674 16.2492
Au 29.7559 18.2067 13.711
Au 29.4846 19.4891 11.1609
Au 29.1366 20.7837 8.63523
Au 30.9061 9.80091 25.5722
Au 30.895 10.7003 23.0092
Au 30.519 11.97 20.4205
Au 30.3522 13.2696 17.81
Au 30.1121 14.3567 15.1402
Au 29.4773 15.4934 12.5525
Au 29.3466 16.8038 10.1731
Au 29.0816 18.0127 7.65942
Au 28.1547 9.17476 25.5615
Au 28.0594 10.048 22.9532
Au 27.9251 11.1969 20.3284
Au 27.691 12.3247 17.5276
Au 27.1619 13.2925 15.077
Au 26.8499 14.7283 12.5476
Au 26.5646 15.9802 9.8072
Au 26.3455 17.2116 7.12307
Au 25.4411 8.10696 25.4754
Au 25.2092 9.37086 22.9407
Au 25.0473 10.368 20.3033
Au 24.7832 11.5345 17.5349
Au 24.4923 12.6114 14.9986
Au 23.9833 13.7128 12.0983
Au 23.7024 14.9256 9.5989
Au 23.5256 16.2237 6.95428
Au 22.7496 7.24655 25.3483
Au 22.4863 8.44792 22.7693
Au 22.1355 9.63075 20.1189
Au 22.1387 10.6732 17.5917
Au 21.7343 11.6095 14.7944
Au 21.2682 12.9443 12.1662
Au 21.1223 14.1739 9.28619
Au 20.9063 15.4476 6.73765
Au 19.9959 6.47985 25.4193
Au 19.6254 7.58341 22.5526
Au 19.3981 8.64485 19.9226
Au 19.274 9.87884 17.3336
Au 18.9707 10.7842 14.6694
Au 18.5818 12.049 11.9182
Au 18.2875 13.4309 9.31911
Au 18.169 14.5085 6.87944
Au 17.1069 5.62814 24.9421
Au 16.9013 6.57228 22.4433
Au 16.5995 7.64341 19.7454
Au 16.5433 8.80225 17.173
Au 16.2084 9.93377 14.5895
Au 15.8399 11.1329 12.0765
Au 15.7134 12.4379 9.39004
Au 15.3969 13.7446 6.87284
Au 15.3293 7.63212 26.1571
Au 15.2134 8.66112 23.5063
Au 14.9726 9.85219 21.0796
Au 14.6826 11.1018 18.4344
Au 14.5117 12.2817 15.8168
Au 14.2361 13.4815 13.1204
Au 13.9185 14.4984 10.385
Au 13.7264 15.9002 8.02192
Au 13.909 9.71387 27.4407
Au 13.6717 10.8398 24.7852
Au 13.2107 12.0153 22.2061
Au 12.9336 13.3285 19.4655
Au 12.7706 14.5592 16.8396
Au 12.5024 15.56 14.183
Au 12.4333 16.6733 11.5707
Au 12.0472 17.923 9.04013
Au 12.3937 11.987 28.33
Au 11.9685 13.0221 25.867
Au 11.691 14.1943 23.1343
Au 11.3528 15.3796 20.6127
Au 11.073 16.5449 18.0868
Au 10.8477 17.7533 15.344
Au 10.7536 18.845 12.837
Au 10.5657 19.9859 10.032
Au 10.6906 14.0006 29.7835
Au 10.3005 15.0891 27.2556
Au 9.78951 16.2272 24.5506
Au 9.66625 17.4803 21.8202
Au 9.34887 18.5537 19.2766
Au 9.30754 19.7551 16.7322
Au 9.07774 20.8132 13.9566
Au 8.89106 21.9815 11.4354
Au 6.79994 16.7979 29.4326
Au 6.08165 17.8231 26.905
Au 5.85103 19.2626 24.3711
Au 5.23333 20.4471 21.8053
Au 5.19899 21.5233 19.1118
Au 4.92515 22.5355 16.5193
Au 4.91855 23.5906 13.9634
Au 8.15127 18.8015 30.5935
Au 7.78893 20.069 27.966
Au 7.56651 21.2157 25.3892
Au 7.07986 22.236 22.7894
Au 6.88895 23.6687 19.8472
Au 6.55047 24.9298 17.37
Au 6.47011 25.9244 14.6698
Au 9.91177 20.9931 31.473
Au 9.71015 22.2457 28.8934
Au 9.45501 23.2887 26.0698
Au 9.08706 24.4815 23.4186
Au 8.95769 25.6722 20.8231
Au 8.52294 26.9728 18.093
Au 8.24445 28.2601 15.5742
Au 11.814 23.1135 32.2777
Au 11.5185 24.3556 29.5769
Au 11.4102 25.4636 26.7466
Au 10.8329 26.6693 24.1861
Au 10.5711 27.7404 21.5514
Au 10.1392 29.2488 18.77
Au 9.88082 30.4606 16.313
Au 13.6526 25.3625 32.9249
Au 13.159 26.6956 30.2442
Au 13.0436 27.8387 27.5963
Au 12.6592 28.9053 24.9001
Au 12.3902 29.7927 22.3568
Au 12.0669 31.1068 19.7653
Au 11.7206 32.2937 17.1962
Au 15.1096 27.9527 33.696
Au 14.8912 28.8021 30.9608
Au 14.8501 30.0879 28.3598
Au 14.3183 30.968 25.7953
Au 14.3149 31.9369 23.1635
Au 13.9717 33.399 20.6839
Au 13.731 34.3546 17.8207
Au 17.1971 29.8135 34.2887
Au 16.6247 30.9542 31.6388
Au 16.6754 32.3144 29.1814
Au 16.2193 33.416 26.4111
Au 15.952 34.3493 23.958
Au 15.7128 35.602 21.4755
Au 15.5346 36.4465 18.9729
Au 19.7261 28.9057 33.8805
Au 19.5014 30.2445 31.3034
Au 19.3171 31.5165 28.5297
Au 19.1509 32.6611 25.87
Au 18.6207 33.7186 23.3932
Au 18.4203 34.7849 20.9202
Au 18.1243 35.9062 18.2926
Au 22.6062 28.0654 33.3474
Au 22.357 29.3525 30.9142
Au 21.9934 30.5406 27.9561
Au 21.8517 31.7327 25.45
Au 21.43 32.8713 22.9076
Au 20.9756 34.2585 20.2252
Au 20.8931 35.2274 17.6097
Au 25.2357 27.3502 32.8014
Au 25.1786 28.7043 30.1455
Au 24.6994 29.7663 27.4131
Au 24.6223 30.9446 24.8504
Au 24.0191 32.1724 22.2699
Au 23.8515 33.0698 19.5435
Au 23.6295 34.4046 16.6826
Au 28.0113 26.6091 32.1659
Au 27.9408 27.9103 29.5684
Au 27.4038 29.041 26.9843
Au 27.3382 30.0032 24.2374
Au 26.8735 31.2327 21.5844
Au 26.5542 32.3857 18.8282
Au 26.2245 33.591 16.0698
Au 30.5774 26.0287 31.2352
Au 30.6707 27.0048 28.5681
Au 30.2982 28.3854 26.0731
Au 29.8294 29.3898 23.5015
Au 29.7463 30.5498 21.0263
Au 29.4175 31.7472 18.1427
Au 29.1674 32.8712 15.5727
Au 33.3655 25.2187 30.2782
Au 33.207 26.4771 27.8537
Au 32.8633 27.5529 25.4438
Au 32.7514 28.5759 22.8416
Au 32.4454 29.7069 20.4099
Au 32.2158 30.8377 17.7859
Au 31.6744 31.838 15.3765
Au 33.2079 22.3961 29.3597
Au 33.1866 23.6395 26.7897
Au 32.965 24.7768 24.2448
Au 32.6346 26.0238 21.5995
Au 32.1388 27.2119 19.0146
Au 32.0449 28.1976 16.6027
Au 31.4454 29.338 13.7305
Au 33.2124 19.6649 28.3977
Au 32.9787 20.8383 25.7936
Au 32.7606 22.1028 23.1065
Au 32.2251 23.3903 20.3281
Au 32.0352 24.554 17.732
Au 31.7179 25.4658 15.0495
Au 31.4033 26.7674 12.5208
Au 33.0743 17.0874 27.2353
Au 32.8692 18.2419 24.6422
Au 32.6738 19.469 21.8757
Au 32.1569 20.7017 19.3808
Au 32.0411 21.7589 16.6835
Au 31.7338 22.8318 13.9592
Au 31.4777 24.0161 11.2525
Au 33.0751 14.4482 25.7677
Au 32.7564 15.6019 23.4192
Au 32.4344 16.9694 20.9092
Au 32.2003 18.0215 18.1533
Au 31.8029 19.1318 15.4332
Au 31.7382 20.1843 12.902
Au 31.3663 21.4302 10.316
Au 32.9733 11.7181 24.7303
Au 32.7339 12.8406 22.0445
Au 32.4768 13.9894 19.451
Au 32.1453 15.1094 16.8973
Au 31.7577 16.4313 14.183
Au 31.4069 17.4749 11.5866
Au 31.241 18.7905 8.92923
Au 32.8504 9.47467 23.508
Au 32.8593 10.3046 20.8585
Au 32.5487 11.2759 18.3446
Au 32.2051 12.5069 15.8223
Au 32.031 13.6901 13.394
Au 31.5666 14.9432 10.7282
Au 31.1393 16.1265 8.24907
Au 30.0864 8.12244 23.5812
Au 29.9932 9.25519 20.8284
Au 29.7075 10.4187 18.1101
Au 29.541 11.5417 15.4782
Au 29.1204 12.7789 12.9195
Au 28.7639 14.0822 10.3248
Au 28.5769 15.3114 7.83679
Au 27.4282 7.31296 23.3129
Au 27.0728 8.53987 20.7632
Au 26.9095 9.60629 18.1052
Au 26.6438 10.7062 15.4954
Au 26.1075 11.9973 12.7334
Au 25.9917 13.0599 10.1449
Au 26.0152 14.5617 7.6271
Au 24.6491 6.5503 23.1976
Au 24.1078 7.74255 20.7106
Au 24.124 8.81287 18.0808
Au 23.9706 9.97192 15.4743
Au 23.426 11.1251 12.8658
Au 23.2044 12.296 9.8299
Au 23.037 13.429 7.16954
Au 21.9262 5.82404 23.0461
Au 21.7144 6.84342 20.5086
Au 21.3661 8.13588 17.8738
Au 21.1272 8.99352 15.3231
Au 20.6222 10.221 12.551
Au 20.5011 11.366 9.6902
Au 20.0952 12.4753 7.25627
Au 19.1331 4.97007 23.1003
Au 18.7802 5.91991 20.5811
Au 18.5051 6.99374 17.9509
Au 18.3317 8.08319 15.1944
Au 17.9413 9.07682 12.6079
Au 17.7559 10.5397 9.94516
Au 17.3357 11.694 7.38304
Au 16.511 3.81606 22.7228
Au 16.0517 4.77224 20.2866
Au 15.7958 5.98645 17.5838
Au 15.4786 7.43583 15.0848
Au 15.18 8.47827 12.3203
Au 15.027 9.61297 9.66603
Au 14.7687 10.9909 7.35846
Au 14.6786 5.81519 23.6867
Au 14.3067 7.06647 21.3243
Au 14.203 8.18179 18.7291
Au 13.8905 9.33844 16.172
Au 13.5976 10.7696 13.7132
Au 13.3816 11.76 10.8401
Au 13.2173 13.0924 8.20854
Au 13.0022 8.0083 25.0773
Au 12.7335 9.22254 22.5458
Au 12.4793 10.4767 19.8974
Au 12.2074 11.7835 17.218
Au 11.8165 12.8926 14.8378
Au 11.72 14.018 11.8752
Au 11.4349 15.2634 9.32423
Au 11.4219 10.2384 26.4913
Au 11.0038 11.4466 23.9414
Au 10.661 12.6722 21.2019
Au 10.4107 13.6472 18.5507
Au 10.1659 14.8714 15.9209
Au 9.95914 16.1424 13.1163
Au 9.80457 17.4177 10.648
Au 9.78871 12.1763 27.32
Au 9.49618 13.5862 24.9333
Au 9.20569 14.8065 22.1151
Au 8.73838 15.9199 19.4779
Au 8.64322 16.884 16.7423
Au 8.33516 18.0776 14.2671
Au 8.128 19.3293 11.7428
Au 8.04748 14.3766 28.4895
Au 7.55232 15.6658 26.0265
Au 7.4005 16.8494 23.4216
Au 7.0356 18.279 20.7937
Au 6.90237 19.3607 18.2565
Au 6.69719 20.0475 15.3117
Au 6.57292 21.7756 13.0569
Au 5.79833 19.3787 29.3695
Au 5.33666 20.4494 26.6969
Au 4.85267 21.933 24.3911
Au 4.79095 23.0327 21.6478
Au 4.36539 24.053 18.8474
Au 4.35042 25.2791 16.022
Au 7.32783 21.5725 30.3069
Au 7.30161 23.0327 27.6246
Au 6.83435 23.8827 25.0914
Au 6.59193 25.1148 22.5578
Au 6.3001 26.2856 19.8927
Au 6.07135 27.5442 16.8604
Au 9.31105 23.7581 31.0848
Au 8.90481 25.059 28.2707
Au 8.67999 26.3262 25.7524
Au 8.15552 27.2818 23.2743
Au 8.16811 28.425 20.65
Au 7.56201 29.7958 17.9413
Au 11.0332 25.9773 31.8021
Au 10.611 27.0425 29.0793
Au 10.2204 28.254 26.7132
Au 9.92494 29.2812 24.3611
Au 9.80414 30.5566 21.5977
Au 9.55661 31.8792 18.533
Au 12.7078 28.2613 32.5234
Au 12.4817 29.2781 29.8618
Au 12.1437 30.4812 27.3217
Au 11.6916 31.4308 24.6479
Au 11.6787 32.6287 22.1639
Au 11.5007 33.7641 19.4717
Au 14.4534 30.4097 33.0808
Au 14.1813 31.5163 30.6334
Au 14.0246 32.5244 28.0442
Au 13.5237 33.7495 25.2852
Au 13.3568 34.9728 22.9886
Au 13.1543 35.7887 20.1255
Au 18.9402 31.6183 33.5013
Au 18.4521 33.0178 30.8844
Au 18.4354 33.9932 28.037
Au 18.4178 35.4154 25.6774
Au 17.8837 36.2862 23.241
Au 17.7018 37.3628 20.7848
Au 21.4608 30.8457 33.113
Au 21.3369 32.1225 30.3492
Au 21.3593 33.3627 27.6892
Au 21.0473 34.6483 25.2614
Au 20.5542 35.4825 22.5822
Au 20.1621 36.7808 19.8235
Au 24.4851 30.0684 32.4392
Au 24.0676 31.3139 29.7543
Au 23.9737 32.7238 27.1587
Au 23.669 33.8637 24.5903
Au 23.4056 34.828 22.0363
Au 23.1482 35.6547 19.1974
Au 27.426 29.3847 31.7649
Au 27.0739 30.7594 29.4032
Au 26.6788 31.7208 26.6059
Au 26.4792 32.9711 24.0244
Au 25.9194 33.9923 21.1372
Au 25.7715 35.0722 18.4258
Au 30.1102 28.5605 31.1918
Au 29.713 29.7706 28.4138
Au 29.2115 31.0824 25.8035
Au 29.1022 32.2362 23.2505
Au 28.4976 33.2432 20.7044
Au 28.549 34.2981 17.8363
Au 32.4159 27.7142 30.1847
Au 32.5068 29.2668 27.6862
Au 32.0004 30.3108 25.0286
Au 31.8685 31.4534 22.5526
Au 31.511 32.4754 19.7728
Au 31.126 33.634 17.2703
Au 35.1393 24.3483 28.4563
Au 35.1446 25.5854 25.847
Au 34.7737 26.5873 23.4091
Au 34.6719 27.7009 20.8583
Au 34.4647 28.9005 18.281
Au 33.636 30.0149 15.6621
Au 35.1114 21.7613 27.4554
Au 34.9211 22.7668 24.778
Au 34.5919 23.792 22.0834
Au 34.2392 25.2418 19.4456
Au 34.1201 26.4007 16.9774
Au 33.5368 27.5435 14.3599
Au 35.1133 19.2083 26.3523
Au 34.9643 20.1707 23.5848
Au 34.4439 21.436 20.9254
Au 34.0899 22.7841 18.3174
Au 33.9228 23.8431 15.7279
Au 33.8083 25.1775 13.2806
Au 35.0032 16.3364 25.0899
Au 34.6562 17.6234 22.5117
Au 34.4918 18.9485 19.6998
Au 34.1176 19.8645 17.1204
Au 33.7904 21.0455 14.3871
Au 33.6335 22.2033 11.9188
Au 34.6625 13.8035 23.7949
Au 34.4914 14.9553 21.0938
Au 34.3163 16.0946 18.7672
Au 33.8593 17.3145 16.058
Au 33.7204 18.3629 13.4582
Au 33.2801 19.4107 10.7283
Au 34.5877 11.3394 22.7263
Au 34.6034 12.2437 19.7461
Au 34.5123 13.5691 17.4164
Au 34.023 14.802 14.971
Au 33.757 15.773 12.3508
Au 33.2079 17.0104 9.57776
Au 31.9633 7.74403 21.4651
Au 31.6668 8.52969 18.8873
Au 31.5694 9.77978 16.1743
Au 31.2349 10.9489 13.4783
Au 30.7598 12.0451 11.09
Au 30.6601 13.3329 8.73826
Au 29.0868 6.51911 21.4879
Au 28.9212 7.87001 18.6783
Au 28.8619 8.69641 16.0425
Au 28.4256 9.89079 13.2878
Au 28.0297 11.3244 10.9319
Au 27.7602 12.2737 8.09787
Au 26.226 5.87142 21.1383
Au 26.1785 6.9612 18.6446
Au 26.1305 7.91356 15.8596
Au 25.6015 9.15661 13.0939
Au 25.2246 10.5343 10.7351
Au 25.0282 11.7154 7.87405
Au 23.6659 5.03024 21.02
Au 23.5029 6.16549 18.4599
Au 23.1996 7.11423 15.8521
Au 22.9234 8.11356 13.1898
Au 22.5256 9.52178 10.6129
Au 22.3539 10.8109 7.66075
Au 20.9347 4.13486 21.2482
Au 20.6444 5.28224 18.4956
Au 20.4456 6.29185 15.9224
Au 20.3233 7.30327 13.0862
Au 19.8863 8.54634 10.5446
Au 19.5511 9.73483 7.7246
Au 18.2302 3.21191 20.9054
Au 17.8925 4.19227 18.2728
Au 17.6007 5.58086 15.4909
Au 17.4107 6.51344 12.9368
Au 16.9968 7.75393 10.352
Au 16.8104 8.94948 7.77249
Au 13.8229 4.29137 21.5137
Au 13.4826 5.58915 19.2382
Au 13.0068 6.69827 16.7722
Au 12.8518 8.16747 13.8332
Au 12.8996 9.20745 11.1804
Au 12.4295 10.4874 8.53077
Au 12.2169 6.42075 22.9253
Au 11.8933 8.01682 20.2618
Au 11.4502 8.9441 17.6779
Au 11.3529 9.97882 15.1193
Au 11.1424 11.2365 12.5181
Au 10.9298 12.6773 9.54274
Au 10.4097 8.5713 23.9994
Au 10.0087 9.94344 21.4567
Au 9.81548 10.9664 18.9556
Au 9.64996 12.0439 16.1639
Au 9.2937 13.4705 13.5626
Au 9.12498 14.5534 10.9128
Au 8.91 10.6119 25.3054
Au 8.53483 11.9846 22.6673
Au 7.78372 13.263 19.9965
Au 7.77271 14.3409 17.4374
Au 7.52494 15.3141 14.7076
Au 7.35477 16.6241 12.1111
Au 7.33644 12.9045 26.2914
Au 7.04543 14.1858 23.6121
Au 6.42131 15.4023 21.1015
Au 6.35808 16.5458 18.6318
Au 5.99431 17.4683 16.0472
Au 5.73728 18.7804 13.1934
Au 5.50659 15.4655 27.6627
Au 5.11529 16.5861 24.8008
Au 4.67075 17.6324 22.1697
Au 4.40547 18.7067 19.6606
Au 4.23944 19.7876 17.0655
Au 4.33545 20.9509 14.3846
Au 5.28139 21.9186 29.0084
Au 4.74078 23.4718 26.828
Au 4.32099 24.5765 24.0659
Au 4.03278 25.5514 21.316
Au 4.15593 26.7153 18.4979
Au 6.9263 24.2756 29.9528
Au 6.36983 25.7259 27.1183
Au 5.97829 26.7207 24.8235
Au 5.73081 27.7811 22.1714
Au 5.70978 28.9322 19.5715
Au 8.41926 26.2033 30.7318
Au 8.13975 27.7773 28.2859
Au 7.60552 28.9364 25.5672
Au 7.43942 29.9661 22.8853
Au 7.39232 31.0998 20.3626
Au 10.2002 28.636 31.3762
Au 9.92862 29.9611 29.1353
Au 9.37223 30.9088 26.4454
Au 9.19806 32.1657 23.7435
Au 9.15772 33.0117 21.0649
Au 11.7521 30.887 31.812