13
 Atoms. Timestep: 50000
Au 19.7098 18.1731 21.3899
Au 22.2397 21.4692 21.6864
Au 20.5099 20.4224 19.5995
Au 18.1797 20.1738 20.8597
Au 18.0619 20.4354 18.3713
Au 19.7905 22.6686 21.5489
Au 21.4582 22.9881 19.6576
Au 20.0932 20.3166 22.7675
Au 18.8254 22.6835 19.3487
Au 23.0882 20.4587 19.5855
Au 21.8399 18.0895 19.6119
Au 22.3639 18.9708 21.7386
Au 18.9746 18.2853 18.9693
