13
 Atoms. Timestep: 50000
Au 19.4736 22.848 19.9898
Au 19.4806 18.6625 18.7555
Au 18.8388 21.0681 22.3863
Au 22.9926 20.2214 20.8389
Au 21.9147 19.5003 18.4598
Au 18.928 18.4808 21.5079
Au 20.3223 20.4331 20.3676
Au 19.5667 21.1489 17.9674
Au 21.997 22.1675 19.411
Au 21.4628 18.0136 20.7259
Au 21.3589 22.3134 21.9005
Au 17.7771 20.5517 20.0354
Au 21.0218 19.7257 22.7889
