147
 Atoms. Timestep: 50000
Au 21.279 17.1924 27.8974
Au 20.9939 18.2098 25.5229
Au 20.897 19.2412 22.8834
Au 20.4572 20.3852 20.3492
Au 20.084 21.4327 17.9132
Au 19.552 22.5213 15.335
Au 19.5092 23.6022 12.8483
Au 18.7572 17.5514 27.0059
Au 18.2799 18.5017 24.4763
Au 18.146 19.9451 22.0365
Au 17.9064 21.1914 19.7093
Au 17.4744 22.3951 17.0302
Au 17.2591 23.5606 14.5681
Au 20.3947 19.6589 27.8551
Au 20.1037 20.7735 25.2093
Au 19.8922 22.0493 22.6703
Au 20.0138 23.0984 20.1648
Au 19.6646 24.4553 17.4214
Au 19.1193 25.4006 15.0304
Au 22.9741 19.1882 27.1602
Au 22.9642 19.9999 24.387
Au 22.5606 21.165 21.8503
Au 22.3734 22.0068 19.3148
Au 22.1475 23.0107 16.7253
Au 21.5809 24.1114 14.4415
Au 23.0578 16.3511 26.0283
Au 22.7224 17.2864 23.3647
Au 22.2808 18.3253 20.6697
Au 22.0222 19.4225 18.266
Au 21.6429 20.537 15.6903
Au 21.3647 21.5027 13.3088
Au 20.2732 15.5858 26.0096
Au 19.8491 16.4378 23.4088
Au 19.4289 17.8108 21.01
Au 19.2526 18.7694 18.3653
Au 18.7055 19.9385 15.8384
Au 18.532 21.1142 13.4278
Au 16.001 18.1297 25.7602
Au 15.8116 19.5499 23.2675
Au 15.9126 19.2306 20.3291
Au 15.3601 22.1101 18.9946
Au 15.1707 23.3208 16.2018
Au 17.799 20.2113 26.7338
Au 17.5806 21.5635 24.1265
Au 16.0155 21.9573 21.5003
Au 17.3458 24.0486 19.5507
Au 16.9196 25.3169 16.9289
Au 19.6837 22.3816 27.1969
Au 19.4758 23.6478 24.7174
Au 18.0987 24.081 22.238
Au 19.5294 25.7493 20.1138
Au 19.2109 27.0417 17.6487
Au 22.2672 21.6502 26.5944
Au 22.119 22.7438 24.2155
Au 21.1289 24.4448 22.3707
Au 22.0206 24.685 19.3111
Au 21.9296 25.9395 16.8373
Au 25.1215 20.9116 25.609
Au 24.9002 21.8866 23.1324
Au 23.639 23.7418 21.4724
Au 24.4698 23.7137 18.3613
Au 24.2083 24.6168 15.9189
Au 24.6446 18.1589 25.0714
Au 24.558 19.2086 22.1592
Au 25.0633 21.6258 20.2062
Au 24.1864 21.0346 17.3438
Au 23.8763 22.2487 14.63
Au 24.6092 15.4932 23.671
Au 24.241 16.6335 21.1317
Au 24.7724 18.8891 19.3694
Au 23.5528 18.538 16.2986
Au 23.4024 19.5771 13.8046
Au 21.9569 14.7181 23.7789
Au 21.5799 15.7718 21.1259
Au 22.7916 16.6856 18.3333
Au 20.7104 17.7519 16.3396
Au 20.4266 18.9767 13.8142
Au 18.9926 13.8652 23.5323
Au 18.896 15.0707 21.1253
Au 19.9438 16.118 18.6416
Au 17.9838 17.3161 16.6396
Au 17.7742 18.409 14.0507
Au 17.4251 15.8951 24.6714
Au 17.0643 17.1988 22.0489
Au 17.3131 16.8141 19.3721
Au 16.5388 19.6152 17.6854
Au 16.2318 20.8478 15.0727
Au 13.6972 18.9988 24.4649
Au 13.631 18.7206 21.7398
Au 13.5257 20.6748 20.0722
Au 13.0931 22.8911 18.025
Au 15.4184 20.8438 25.5443
Au 13.636 21.2916 22.7523
Au 13.7668 23.366 20.564
Au 14.9223 24.9351 18.8505
Au 16.9771 22.9542 26.2932
Au 15.4815 23.5052 23.7415
Au 15.6978 25.0611 21.5509
Au 17.0711 26.8369 19.7276
Au 18.5756 25.0545 26.701
Au 17.3013 25.2857 24.4726
Au 18.0651 26.9018 22.2568
Au 19.2839 28.4451 20.1254
Au 21.5125 24.5864 26.1031
Au 19.9548 26.2186 24.2318
Au 21.0167 27.2857 21.947
Au 21.5678 27.3699 19.1946
Au 24.3702 23.5948 25.2948
Au 22.8871 25.6991 23.8616
Au 23.5831 26.413 21.1863
Au 24.1831 26.326 18.5031
Au 27.0579 22.696 24.6595
Au 25.4992 24.5197 23.2597
Au 25.8883 24.863 20.3755
Au 26.4269 25.2378 17.8258
Au 26.8194 20.0293 23.7205
Au 26.9968 22.7056 21.8189
Au 27.0206 22.7417 19.0357
Au 26.1479 22.582 16.3527
Au 26.4855 17.3923 22.7447
Au 26.9374 19.9253 21.112
Au 26.6519 20.1544 18.0555
Au 25.6857 19.8573 15.4299
Au 26.138 14.9467 21.4146
Au 26.644 17.0264 19.9428
Au 25.8217 17.279 17.3035
Au 24.979 17.3343 14.5931
Au 23.5013 14.0941 21.5154
Au 24.7481 15.0315 19.0274
Au 24.0424 15.7679 16.3773
Au 22.4059 16.9511 14.3045
Au 20.7799 13.2297 21.6507
Au 22.2742 14.1168 18.7593
Au 20.9775 14.957 16.4323
Au 19.462 16.2941 14.5258
Au 18.0491 12.7551 21.3501
Au 19.7163 13.3635 19.1628
Au 18.2921 14.6718 17.0698
Au 16.8071 15.9096 14.8901
Au 16.3302 14.565 22.2206
Au 16.9906 14.2349 19.3907
Au 15.6204 16.1253 17.4028
Au 15.5385 18.3787 15.5914
Au 14.9027 16.7896 23.3655
Au 15.0081 16.5014 20.4018
Au 14.255 18.2338 18.4759
Au 14.1732 20.6785 17.0591
