147
 Atoms. Timestep: 50000
Au 15.1832 25.8456 23.3938
Au 13.8146 21.6543 21.5898
Au 17.0893 24.2294 22.4692
Au 17.8602 26.5584 23.1345
Au 14.5336 17.2277 19.7498
Au 15.8608 19.6407 20.5398
Au 18.7921 22.3588 21.5055
Au 19.7359 24.8929 22.3063
Au 21.0484 26.8313 23.2259
Au 17.2116 13.4069 17.6887
Au 18.2469 15.6348 18.5965
Au 19.3899 18.1624 19.5001
Au 20.2992 20.4261 20.4107
Au 21.469 22.7625 21.2742
Au 22.6256 24.933 22.2556
Au 23.7523 27.1912 22.947
Au 20.1123 13.656 17.5813
Au 20.9152 16.0588 18.3333
Au 22.2474 18.5259 19.4181
Au 25.1014 21.1915 20.3418
Au 26.2521 23.5067 20.9722
Au 22.6573 14.3746 17.3946
Au 23.7867 16.6051 18.3473
Au 26.9175 19.4048 19.265
Au 25.3391 14.8547 17.4558
Au 14.6112 24.4634 21.1567
Au 16.4521 26.5204 20.8523
Au 13.4033 19.9339 19.2636
Au 16.2779 22.408 20.3346
Au 18.0909 24.6644 19.7325
Au 19.2889 27.0349 20.6171
Au 15.8302 15.919 17.5279
Au 16.8279 18.1538 18.337
Au 18.0122 20.4904 19.1037
Au 19.7736 22.598 18.8376
Au 21.0201 25.1141 19.673
Au 22.0514 27.2892 20.6123
Au 17.85 15.3424 15.833
Au 19.107 17.6385 16.633
Au 20.3762 20.1302 17.6256
Au 22.4132 21.3699 19.1362
Au 23.7571 23.9211 19.8892
Au 24.734 26.3717 20.8303
Au 20.9958 15.7886 15.5126
Au 22.0124 18.2073 16.5419
Au 24.4766 19.3555 17.9011
Au 27.1343 22.019 18.7835
Au 23.7328 16.2168 15.5715
Au 26.1632 17.584 16.965
Au 13.8877 22.8021 18.9711
Au 15.5937 24.8821 18.4861
Au 17.4928 26.8422 18.1699
Au 14.5175 18.3435 17.1325
Au 15.5959 20.7971 17.9799
Au 17.3685 22.8517 17.5998
Au 19.4594 24.9837 17.2661
Au 20.1381 27.416 18.1985
Au 16.4742 17.546 15.3707
Au 17.7554 20.0335 16.3172
Au 19.8432 22.357 15.9272
Au 21.9694 23.6032 17.4658
Au 23.0379 26.0599 18.2759
Au 18.9515 17.4267 14.0648
Au 20.1636 19.8342 14.9211
Au 22.6257 21.0803 16.2149
Au 24.7882 22.2104 17.576
Au 25.831 24.603 18.5786
Au 21.9154 17.7908 13.8293
Au 24.3024 19.303 15.1258
Au 26.6046 20.4828 16.4787
Au 13.2596 20.987 16.8672
Au 15.0226 23.1545 16.5286
Au 17.0895 25.1414 16.1152
Au 19.0941 27.1039 15.715
Au 15.4206 20.5463 15.2078
Au 17.4697 22.4257 14.8656
Au 19.5395 24.5682 14.5845
Au 21.7531 25.7718 15.8164
Au 17.6189 19.7808 13.7261
Au 19.8582 21.8093 13.2368
Au 22.1374 23.1981 14.6728
Au 24.1847 24.497 16.2204
Au 20.2158 19.2521 12.3692
Au 22.4123 20.5719 13.5343
Au 24.8482 22.1408 14.7343
Au 26.8176 23.2544 16.3909
Au 14.7546 23.2999 23.6457
Au 17.0376 24.764 25.0282
Au 13.8113 18.889 22.052
Au 16.474 21.368 22.917
Au 18.9137 22.8322 24.3233
Au 20.0202 25.0916 25.1317
Au 15.8486 14.6523 20.1431
Au 17.2649 16.9991 20.8393
Au 18.2936 19.2308 21.9062
Au 20.4117 20.8202 23.1721
Au 21.6467 22.9926 24.1647
Au 22.9863 25.2388 24.8987
Au 18.7153 13.4012 19.9419
Au 19.857 15.6747 21.0403
Au 20.8708 18.0432 21.9426
Au 22.8013 20.0755 21.7053
Au 23.8419 22.5319 22.6388
Au 25.1871 24.8541 23.026
Au 21.6921 13.9324 20.0048
Au 22.7414 16.2502 20.9866
Au 24.735 18.3057 20.5705
Au 27.4528 20.8589 21.4913
Au 24.5316 14.342 19.7693
Au 26.3622 16.4236 19.4689
Au 14.3589 20.6573 24.3866
Au 16.4188 21.8584 25.5279
Au 19.0183 23.0135 26.8753
Au 15.1607 16.2513 22.3933
Au 16.1669 18.6353 23.2889
Au 18.2708 20.0022 24.7379
Au 20.5122 20.9154 25.9919
Au 21.7969 23.3244 26.7944
Au 17.5399 14.5764 22.2912
Au 18.5503 17.0081 23.3791
Au 20.8146 18.5244 24.619
Au 22.9783 20.5474 24.6152
Au 24.2559 22.8932 25.3615
Au 20.3374 13.4689 22.5098
Au 21.3574 15.7391 23.4387
Au 23.2213 17.7513 23.2976
Au 25.1339 19.7655 23.0834
Au 26.2407 22.2113 23.6682
Au 23.4424 14.0049 22.4847
Au 25.1052 16.1354 22.3199
Au 27.0123 18.1533 22.0355
Au 14.0861 17.7782 24.5971
Au 16.1134 19.1397 26.0324
Au 18.3058 20.3218 27.3565
Au 20.5183 21.2678 28.4591
Au 16.3645 16.5967 24.8993
Au 18.4014 17.5257 25.9219
Au 20.6812 18.7007 27.4154
Au 23.0085 20.7699 27.1195
Au 19.1468 14.7583 24.6194
Au 20.9203 16.1914 26.2137
Au 23.0124 18.0349 26.0226
Au 25.3378 20.2202 25.7125
Au 21.7496 13.6339 24.7915
Au 23.6588 15.5509 24.8873
Au 25.6466 17.5256 24.5869
Au 27.4766 19.8193 24.0186
