14
 Atoms. Timestep: 50000
Au 20.6582 22.2552 22.5926
Au 19.0796 20.8757 18.7863
Au 20.0522 23.329 20.2142
Au 21.842 17.8832 19.9434
Au 19.8036 17.8292 21.827
Au 20.512 20.2975 20.8421
Au 22.441 22.2229 20.8044
Au 19.4574 18.1838 19.1965
Au 23.2305 20.1484 19.4971
Au 19.2821 19.8978 23.138
Au 17.881 19.3702 20.9942
Au 21.3974 19.4918 17.9657
Au 21.5835 21.9935 18.3715
Au 18.3094 21.7518 21.3571
