1415
 Atoms. Timestep: 50000
Au 5.14482 30.8348 26.8928
Au 5.21899 27.3766 24.8677
Au 7.11956 29.5302 25.7239
Au 8.69811 31.6697 26.7021
Au 5.55413 23.6714 23.2593
Au 7.21223 25.7719 24.0111
Au 9.29073 27.9503 24.8639
Au 10.8652 30.2531 25.7992
Au 12.4989 32.2877 26.5614
Au 6.19094 19.9556 21.6151
Au 7.74613 22.1166 22.3297
Au 9.41108 24.2085 23.3388
Au 11.3884 26.3866 23.983
Au 13.0434 28.6033 24.6992
Au 14.6471 30.633 25.6963
Au 16.419 32.9019 26.4166
Au 6.53775 16.3563 20.0563
Au 8.28746 18.3351 20.775
Au 10.0919 20.7383 21.5433
Au 11.824 22.6528 22.5683
Au 13.6255 24.9108 23.2375
Au 15.2638 27.0873 23.874
Au 16.9726 29.2843 24.8204
Au 18.8521 31.5266 25.4734
Au 20.7231 33.5502 26.2181
Au 6.98085 12.849 18.2049
Au 8.55575 14.7647 19.0642
Au 10.5711 16.8929 19.8878
Au 12.2914 19.0189 20.5683
Au 14.083 21.1103 21.4371
Au 15.8662 23.4823 22.1533
Au 17.6987 25.554 23.0413
Au 19.3527 27.837 23.7163
Au 21.0717 29.9608 24.6015
Au 23.0215 32.0331 25.2526
Au 24.6925 34.1034 26.065
Au 7.63926 8.94452 16.5246
Au 9.28151 11.0838 17.3012
Au 11.3787 13.405 18.0918
Au 12.8891 15.497 19.2378
Au 14.6031 17.6239 19.8477
Au 16.3573 19.7648 20.3954
Au 18.1321 22.0043 21.3086
Au 19.901 24.047 22.1081
Au 21.5389 26.2916 22.7636
Au 23.4218 28.4856 23.5972
Au 25.2066 30.6219 24.3944
Au 26.845 32.7715 24.9911
Au 28.6015 34.8006 25.9237
Au 8.45378 5.89325 15.1935
Au 10.0757 7.71139 15.7367
Au 11.6749 9.61239 16.5028
Au 13.5732 11.9346 17.1081
Au 15.1889 13.9196 18.179
Au 16.8936 16.2926 18.9998
Au 18.5992 18.3047 19.591
Au 20.463 20.4116 20.4261
Au 22.0758 22.3334 21.3152
Au 23.9208 24.5295 21.7762
Au 25.5743 26.6804 22.5737
Au 27.252 29.0071 23.3422
Au 28.9749 31.2328 24.0412
Au 30.6924 33.1894 24.88
Au 32.2663 34.9639 25.6289
Au 12.2806 6.13985 14.8689
Au 14.0178 8.11912 15.6289
Au 15.7229 10.4418 16.2919
Au 17.3678 12.5243 17.1572
Au 19.2596 14.6552 17.9298
Au 20.7962 16.6034 18.7414
Au 22.501 18.728 19.5083
Au 24.234 20.971 20.2462
Au 26.1991 22.9951 20.9948
Au 27.8293 25.329 21.8341
Au 29.4871 27.4866 22.45
Au 31.4376 29.6724 23.2148
Au 33.1646 31.9149 23.6795
Au 16.0353 6.68015 14.6646
Au 18.0736 8.63234 15.3223
Au 19.6887 10.7972 16.1907
Au 21.5406 13.0586 17.0361
Au 23.037 15.2863 17.9073
Au 24.8723 17.3352 18.6444
Au 26.6041 19.5625 19.3351
Au 28.5139 21.6408 20.1289
Au 30.3349 23.8027 20.7634
Au 32.0311 25.998 21.5129
Au 33.7453 28.0366 22.3573
Au 20.233 7.39966 14.5685
Au 22.0528 9.357 15.3812
Au 23.7085 11.6594 16.3332
Au 25.4288 13.7444 16.8043
Au 27.1619 15.8896 17.5832
Au 29.0689 18.0451 18.5715
Au 30.9663 20.2261 19.2982
Au 32.3941 22.3728 19.8763
Au 34.2591 24.3738 20.4529
Au 24.2313 8.11377 14.4623
Au 25.908 10.0166 15.1895
Au 27.7923 12.3824 15.895
Au 29.4762 14.4904 16.8928
Au 31.1865 16.6483 17.7534
Au 33.1061 18.6752 18.4243
Au 34.5492 20.9582 19.081
Au 28.2919 8.6052 14.3511
Au 29.9742 10.6464 15.2848
Au 31.6248 12.9754 16.0747
Au 33.4904 15.0776 16.8075
Au 35.1715 17.337 17.6005
Au 32.1921 9.31646 14.402
Au 33.6576 11.5284 14.9865
Au 35.5689 13.4878 15.7524
Au 35.7371 10.2712 14.318
Au 5.07221 30.1945 24.1186
Au 6.71995 32.1579 24.9707
Au 5.31557 26.4351 22.1292
Au 7.26356 28.5844 23.1564
Au 8.73776 30.8184 23.9195
Au 10.433 32.9605 24.8903
Au 5.60961 22.7064 20.4589
Au 7.32988 24.6368 21.4368
Au 9.35064 27.0078 22.352
Au 10.8809 29.1241 22.9346
Au 12.5715 31.4198 23.8715
Au 14.2283 33.5441 24.7439
Au 6.29535 18.8622 18.9726
Au 7.90503 21.1397 19.7032
Au 9.51554 23.3203 20.5852
Au 11.4275 25.2253 21.3353
Au 13.2106 27.4847 22.049
Au 14.9501 29.9262 22.9358
Au 16.5753 31.9901 23.8023
Au 18.4636 34.0753 24.5589
Au 6.632 15.3235 17.2025
Au 8.30659 17.3674 18.0507
Au 9.89148 19.4846 18.803
Au 11.704 21.804 19.5899
Au 13.6971 23.6609 20.6602
Au 15.5398 26.0743 21.3401
Au 17.0221 28.256 21.9674
Au 18.9076 30.4387 22.9424
Au 20.7739 32.7304 23.6857
Au 22.5137 34.6031 24.3267
Au 7.07887 11.5383 15.5068
Au 8.89865 13.6517 16.3981
Au 10.6067 15.9174 17.2094
Au 12.1667 18.1236 17.8792
Au 14.0247 20.163 18.6663
Au 15.8302 22.2572 19.6895
Au 17.7234 24.5445 20.334
Au 19.3627 26.6125 21.0908
Au 21.2109 28.9609 21.9431
Au 22.8662 31.1344 22.6263
Au 24.7409 33.3852 23.3503
Au 26.5959 35.4584 23.9396
Au 8.03083 8.27067 13.781
Au 9.57717 10.0774 14.5889
Au 11.3254 12.3361 15.3057
Au 12.9517 14.6101 16.3865
Au 14.6956 16.6107 17.1366
Au 16.4347 18.7735 17.8562
Au 18.1691 20.9732 18.5109
Au 20.0062 22.9451 19.3174
Au 21.6399 25.0902 20.2257
Au 23.3902 27.3278 20.9383
Au 25.1816 29.3755 21.7382
Au 26.8838 31.5473 22.1647
Au 28.6638 33.9588 23.0998
Au 30.371 35.7722 23.8677
Au 10.2571 6.75862 13.124
Au 11.9965 8.74718 13.8244
Au 13.5733 10.8377 14.5641
Au 15.4053 13.1318 15.1225
Au 16.9815 15.0794 16.3269
Au 18.6452 17.2698 16.7972
Au 20.4709 19.2896 17.609
Au 22.2391 21.5293 18.5279
Au 23.8977 23.5793 19.1778
Au 25.7591 25.6637 19.9582
Au 27.4532 27.9284 20.7574
Au 29.1967 30.1229 21.4794
Au 30.8693 32.1579 22.172
Au 32.5233 34.3739 22.8685
Au 14.003 7.31729 12.8084
Au 15.8489 9.24947 13.714
Au 17.5633 11.3491 14.584
Au 19.1526 13.6747 15.2919
Au 21.0571 15.9604 16.0242
Au 22.7666 17.8008 16.8506
Au 24.3234 19.998 17.6403
Au 26.3036 22.1916 18.2237
Au 28.0683 24.2129 19.2515
Au 29.7517 26.3906 19.8299
Au 31.4581 28.5266 20.4723
Au 33.0643 30.8521 21.1732
Au 18.0108 7.77877 12.3801
Au 19.747 9.86306 13.3623
Au 21.4085 11.9875 14.2641
Au 23.2288 14.0193 15.0227
Au 25.0072 16.3887 15.8607
Au 26.6063 18.5959 16.5847
Au 28.6333 20.6637 17.4288
Au 30.4156 22.9138 18.1425
Au 32.2272 25.1517 18.7153
Au 33.7362 27.0754 19.5994
Au 22.0638 8.5853 12.8253
Au 23.7084 10.6345 13.4113
Au 25.6411 12.6879 14.0952
Au 27.3813 14.9964 14.9337
Au 28.9714 17.2541 15.8626
Au 30.9267 19.0237 16.6377
Au 32.6949 21.2531 17.0794
Au 34.0642 23.5275 17.9562
Au 25.8771 8.99351 12.5248
Au 27.8619 11.0777 13.2536
Au 29.547 13.4588 14.2068
Au 31.3333 15.6056 14.9674
Au 33.1896 17.574 15.8028
Au 34.9082 19.6661 16.0363
Au 30.0674 9.67872 12.2544
Au 31.4579 11.819 13.1266
Au 33.6865 14.1148 13.9404
Au 35.3268 16.3529 14.9196
Au 33.6897 10.3161 12.4318
Au 35.5604 12.5294 12.9678
Au 5.12919 29.0264 21.7183
Au 6.79321 31.3881 22.0983
Au 8.65058 33.4543 22.7269
Au 5.14359 25.2468 19.7196
Au 7.15137 27.4129 20.5244
Au 8.85059 29.7073 21.158
Au 10.4879 31.8895 22.0085
Au 12.0884 33.921 23.045
Au 5.65664 21.8511 17.9732
Au 7.3746 23.9528 18.7234
Au 9.32153 25.9625 19.5448
Au 11.1115 28.0832 20.3235
Au 12.7805 30.2979 21.2476
Au 14.4069 32.6195 22.208
Au 16.0516 34.5657 22.8519
Au 6.06627 18.0325 16.3343
Au 7.7974 20.1786 17.0205
Au 9.63278 22.1919 17.7348
Au 11.5159 24.3965 18.7119
Au 13.3251 26.4501 19.4108
Au 15.0344 28.7103 20.2775
Au 16.7057 30.958 21.1606
Au 18.3684 33.1513 21.9575
Au 20.0432 35.2478 22.3996
Au 6.79924 14.3392 14.576
Au 8.27676 16.2614 15.2536
Au 10.0853 18.6449 16.0505
Au 11.8515 20.8119 16.9136
Au 13.6533 22.8243 17.7263
Au 15.4492 25.0926 18.6217
Au 17.2314 27.1331 19.2824
Au 19.1509 29.3681 20.2502
Au 20.6854 31.3975 20.9646
Au 22.3978 33.7922 21.5346
Au 24.2886 35.9834 22.3155
Au 7.47374 10.792 12.8279
Au 9.18596 12.8223 13.7128
Au 10.7746 15.0427 14.4643
Au 12.4809 17.1204 15.3223
Au 14.172 19.2438 16.1474
Au 16.0391 21.3526 16.8692
Au 17.5377 23.6012 17.7443
Au 19.4353 25.6497 18.4616
Au 21.1417 27.6151 19.3017
Au 22.7389 29.947 19.9546
Au 24.6198 32.0731 20.8724
Au 26.5167 34.3675 21.3699
Au 28.2807 36.4854 22.0104
Au 9.58442 9.22638 11.8819
Au 11.3716 11.3761 12.5275
Au 13.1419 13.4931 13.7036
Au 14.7797 15.7239 14.5574
Au 16.6151 17.6901 15.1916
Au 18.4164 19.9608 15.7815
Au 19.9567 22.0438 16.6668
Au 21.6068 24.1525 17.4076
Au 23.4006 26.2322 18.2165
Au 25.1599 28.5712 19.0437
Au 26.8286 30.6358 19.6079
Au 28.4452 32.7823 20.5357
Au 30.435 34.8131 21.0151
Au 11.87 7.94891 11.1906
Au 13.547 9.80638 11.8056
Au 15.4213 11.9384 12.6798
Au 17.139 14.1597 13.3368
Au 18.915 16.1325 14.2256
Au 20.5929 18.4546 14.9974
Au 22.1827 20.5885 15.8461
Au 23.9306 22.7836 16.5692
Au 25.6445 24.7818 17.2996
Au 27.4978 26.8271 18.2419
Au 29.1401 29.0269 18.9069
Au 30.7603 31.357 19.5959
Au 32.6603 33.312 20.2938
Au 15.8707 8.52416 10.976
Au 17.6029 10.2899 11.7119
Au 19.1978 12.4669 12.7674
Au 21.0748 14.7697 13.4011
Au 22.7537 16.9145 13.9703
Au 24.424 19.0235 14.8869
Au 26.1427 21.179 15.6498
Au 28.2018 23.3028 16.3436
Au 29.8712 25.4504 17.2471
Au 31.5554 27.7858 17.9376
Au 33.2014 29.876 18.8021
Au 19.8982 9.02323 10.8256
Au 21.5827 11.1006 11.4764
Au 23.5593 13.356 12.1977
Au 25.1435 15.3934 13.2478
Au 26.7516 17.5348 13.8451
Au 28.6843 19.7583 14.7475
Au 30.4207 21.7684 15.5533
Au 32.12 23.9683 16.0976
Au 33.9503 26.351 16.8964
Au 23.7732 9.70507 10.5514
Au 25.6091 11.584 11.3722
Au 27.19 13.8973 12.2319
Au 29.1223 15.8888 12.958
Au 30.8051 17.9505 13.8157
Au 32.7361 20.3503 14.4329
Au 34.433 22.5277 15.0754
Au 27.8508 10.2703 10.5224
Au 29.5322 12.3757 11.3699
Au 31.632 14.5845 12.2416
Au 33.3395 16.7477 12.9721
Au 35.0278 18.7086 13.6268
Au 31.6998 10.9891 10.4081
Au 33.4368 12.867 11.3018
Au 35.3058 15.3343 12.1256
Au 5.01776 27.9446 18.9267
Au 6.68937 30.1461 19.6369
Au 8.36365 32.4391 20.1223
Au 10.3187 34.3676 20.7606
Au 5.26915 24.3628 16.9305
Au 7.01367 26.4189 17.854
Au 8.8237 28.5478 18.4634
Au 10.544 30.7405 19.3682
Au 12.4811 32.9516 20.2197
Au 14.1931 35.0807 20.9632
Au 5.74341 20.5468 15.2501
Au 7.36907 22.8107 16.1366
Au 9.23276 24.954 16.8908
Au 11.0757 27.0191 17.6485
Au 12.7572 29.2719 18.4411
Au 14.7149 31.3811 19.394
Au 16.2185 33.8532 20.2629
Au 18.0104 35.7046 20.8096
Au 6.0877 16.8742 13.721
Au 7.97314 18.966 14.4255
Au 9.64893 21.348 15.2085
Au 11.6688 23.5692 15.9107
Au 13.4613 25.6006 16.8404
Au 15.1857 27.8287 17.6684
Au 16.8592 29.8157 18.4531
Au 18.247 31.9037 19.2498
Au 19.8787 33.9583 19.7562
Au 21.9178 36.2028 20.7558
Au 6.98252 13.2672 11.9849
Au 8.6312 15.5679 12.5425
Au 10.3444 17.6128 13.1716
Au 11.9633 19.6263 14.2565
Au 13.773 21.8628 15.1957
Au 15.5218 24.0768 15.9011
Au 17.2428 26.2727 16.7613
Au 19.1866 28.3704 17.2762
Au 20.6657 30.5035 18.1784
Au 22.4583 32.5511 19.0412
Au 24.2393 34.8943 19.7974
Au 25.9758 36.968 20.5554
Au 9.08497 11.8363 10.8508
Au 10.9079 14.0135 11.7153
Au 12.7324 16.0152 12.4327
Au 14.3234 18.2748 13.3597
Au 15.8658 20.3673 14.1804
Au 17.8341 22.6248 14.8543
Au 19.509 24.8232 15.5413
Au 21.4318 26.9864 16.5089
Au 22.8716 29.0994 17.3063
Au 24.6436 31.1146 18.0503
Au 26.4855 33.3471 18.7274
Au 28.1969 35.6155 19.4682
Au 11.4451 10.3194 10.0273
Au 13.1625 12.5195 10.6579
Au 14.8187 14.5168 11.6826
Au 16.7927 16.7891 12.527
Au 18.3827 18.914 13.1841
Au 20.0789 21.0215 14.038
Au 21.7842 23.2204 14.5705
Au 23.4325 25.3061 15.4174
Au 25.0705 27.7176 16.4223
Au 26.973 29.7201 17.0274
Au 28.6927 31.8412 17.7472
Au 30.2622 33.9082 18.548
Au 13.6062 9.13442 9.10599
Au 15.5668 11.0007 9.82729
Au 17.1057 13.1039 10.6332
Au 18.8749 15.16 11.409
Au 20.4589 17.2796 12.1951
Au 22.2487 19.4748 13.0031
Au 24.0875 21.6366 13.8412
Au 25.7985 23.8394 14.5537
Au 27.5117 26.1041 15.5976
Au 29.1184 28.218 16.1282
Au 30.9533 30.1443 16.9738
Au 32.4983 32.3075 17.6884
Au 17.7015 9.35043 8.97445
Au 19.4455 11.4911 9.74901
Au 21.0555 13.6479 10.7099
Au 22.8673 15.9458 11.3423
Au 24.6052 17.9305 12.0979
Au 26.3183 20.1113 12.8923
Au 28.1395 22.2019 13.6935
Au 29.9079 24.5251 14.592
Au 31.7434 26.703 15.352
Au 33.308 29.0532 16.2579
Au 21.6742 10.2862 8.77492
Au 23.5315 12.2568 9.55807
Au 25.1587 14.6299 10.4572
Au 26.9931 16.6127 11.2445
Au 28.6878 18.5002 12.0489
Au 30.3954 20.6567 12.8722
Au 32.3 22.9354 13.6946
Au 34.0371 25.2121 14.4738
Au 25.725 10.5487 8.8149
Au 27.4343 12.8374 9.50342
Au 29.2129 14.995 10.4185
Au 30.9884 17.085 11.0839
Au 32.625 19.2047 11.8936
Au 34.3976 21.1655 12.6304
Au 29.6379 11.5743 8.67264
Au 31.4645 13.6195 9.55529
Au 33.418 15.714 10.2051
Au 34.8242 17.9268 10.9377
Au 5.09483 26.8841 16.0201
Au 6.4201 29.1602 16.9906
Au 8.35551 31.1676 17.6963
Au 10.3918 33.4154 18.2211
Au 12.105 35.5562 18.9688
Au 5.4492 23.1665 14.2921
Au 7.0421 25.5815 15.1082
Au 8.78131 27.7035 15.9635
Au 10.5827 29.9148 16.6588
Au 12.4258 31.8241 17.4594
Au 14.1098 33.9385 18.2487
Au 15.7411 36.3223 18.9044
Au 5.81321 19.5395 12.6837
Au 7.55083 21.5925 13.4828
Au 9.40325 24.214 14.3533
Au 11.0146 26.1859 15.0157
Au 12.8088 28.214 15.7911
Au 14.597 30.3138 16.689
Au 16.2147 32.4433 17.304
Au 17.7117 34.7718 18.1858
Au 19.949 36.7802 18.8397
Au 6.47021 16.173 11.0774
Au 8.09017 18.1794 11.797
Au 9.99893 20.3912 12.4355
Au 11.61 22.4348 13.4173
Au 13.3142 24.5871 14.0422
Au 15.129 26.808 14.9064
Au 16.8426 28.9163 15.5082
Au 18.5819 30.969 16.5319
Au 20.2568 33.1158 17.1578
Au 21.9723 35.2241 18.1308
Au 23.6748 37.3004 18.7005
Au 8.56199 14.4887 10.1058
Au 10.3638 16.5993 10.6335
Au 12.1497 18.9469 11.4544
Au 13.8253 20.9761 12.3753
Au 15.7007 22.9757 13.1299
Au 17.2883 25.1922 14.0269
Au 19.125 27.5037 14.4676
Au 20.8171 29.6518 15.5585
Au 22.587 31.7665 16.1724
Au 24.1695 33.7528 17.0005
Au 25.9534 36.0276 17.7597
Au 10.9492 12.9102 8.89647
Au 12.6857 15.1352 9.74733
Au 14.6571 17.399 10.6966
Au 16.2787 19.5049 11.5702
Au 17.9579 21.6737 12.2375
Au 19.4229 23.8546 12.8192
Au 21.2746 25.7679 13.5436
Au 23.0857 27.9441 14.3209
Au 24.7508 30.1089 15.2882
Au 26.444 32.3201 16.0876
Au 28.1219 34.3665 16.9098
Au 13.3218 11.5813 8.12642
Au 14.8796 13.6443 8.73799
Au 16.6695 15.7552 9.79039
Au 18.4712 17.7957 10.5389
Au 20.0318 20.0654 11.2885
Au 21.9008 22.1832 11.8202
Au 23.6273 24.2781 12.7353
Au 25.5449 26.3891 13.6931
Au 26.9451 28.6983 14.4207
Au 28.7831 30.8759 14.938
Au 30.3467 32.9989 16.0215
Au 15.5841 9.95118 7.28989
Au 17.3132 11.9965 8.00485
Au 19.0957 14.1427 8.83671
Au 20.7075 16.4182 9.50146
Au 22.4128 18.6212 10.2746
Au 24.1611 20.5941 11.1748
Au 25.8914 22.6825 11.889
Au 27.784 24.8862 12.7404
Au 29.2697 27.1108 13.5774
Au 30.9906 29.4637 14.1865
Au 32.441 31.638 15.1423
Au 19.5427 10.6471 7.1053
Au 21.2431 12.7923 7.66994
Au 22.9282 14.8257 8.82889
Au 24.7046 17.1019 9.27737
Au 26.4212 19.3136 10.1716
Au 28.2867 21.3787 11.0805
Au 29.9806 23.3684 11.9883
Au 31.7799 25.3917 12.8512
Au 33.2481 27.7696 13.3318
Au 23.4644 11.4495 7.00177
Au 25.1947 13.5039 7.7501
Au 26.9326 15.5696 8.5456
Au 28.6978 17.6295 9.2059
Au 30.6568 19.6442 10.0142
Au 32.1766 21.9645 11.0531
Au 33.986 23.8546 11.7486
Au 27.3984 12.1887 6.98378
Au 29.2581 14.2206 7.86747
Au 31.0035 16.2691 8.46688
Au 32.8752 18.2941 9.17007
Au 34.0665 20.5466 9.93346
Au 5.03018 25.8473 13.5021
Au 6.75194 28.2906 14.1937
Au 8.52964 30.4905 15.0216
Au 10.3785 32.6959 15.5649
Au 12.1566 34.5679 16.2907
Au 13.6745 36.6281 17.1675
Au 5.537 22.0072 11.7318
Au 7.02827 24.2482 12.5649
Au 8.89835 26.7206 13.2863
Au 10.6108 28.8704 14.0473
Au 12.4696 31.0113 14.8361
Au 14.1416 33.156 15.3382
Au 15.697 35.1468 16.3687
Au 17.5286 37.2148 17.114
Au 6.17449 18.5739 10.0876
Au 7.82127 20.7044 10.6541
Au 9.43366 22.8692 11.6977
Au 11.048 25.039 12.2529
Au 12.8024 27.2224 13.0011
Au 14.7345 29.2033 13.858
Au 16.5077 31.5339 14.4634
Au 17.9506 33.5832 15.3552
Au 19.6856 35.7015 16.2832
Au 21.4445 37.6864 16.9673
Au 8.10121 17.0212 9.05837
Au 9.9131 19.1671 9.89301
Au 11.8092 21.4845 10.6389
Au 13.7073 23.6484 11.5039
Au 15.0611 25.7882 12.0806
Au 16.8432 27.7877 12.8623
Au 18.7914 30.0339 13.608
Au 20.269 32.2081 14.5117
Au 22.0232 34.3693 15.1762
Au 23.6917 36.4269 16.1291
Au 10.4508 15.6833 7.99904
Au 12.2874 17.9245 8.8395
Au 13.9229 19.9294 9.69503
Au 15.6739 21.9674 10.3106
Au 17.3284 24.3887 11.1389
Au 19.1141 26.4427 11.6568
Au 21.0126 28.4596 12.6652
Au 22.6615 30.7421 13.5066
Au 24.3498 32.8367 14.173
Au 25.787 35.1088 15.2444
Au 12.6787 14.1447 7.23294
Au 14.5572 16.2656 8.13112
Au 16.4214 18.4179 8.84996
Au 17.8831 20.6783 9.34381
Au 19.7248 22.8914 10.2155
Au 21.4238 24.8752 10.8617
Au 23.2836 26.8865 11.8023
Au 24.9307 28.8996 12.6501
Au 26.5635 31.2493 13.3455
Au 28.0682 33.3628 14.14
Au 15.1059 12.5522 6.15255
Au 16.7315 14.4913 6.89886
Au 18.5392 16.7395 7.96129
Au 20.1874 19.1556 8.47905
Au 21.8541 21.2087 9.25921
Au 23.709 23.2986 10.0248
Au 25.4888 25.5043 10.9696
Au 27.281 27.5731 11.6109
Au 28.8848 29.8856 12.3745
Au 30.6008 32.2224 13.2605
Au 17.3672 11.152 5.38099
Au 18.895 13.2911 5.96911
Au 20.7967 15.3585 6.90081
Au 22.4597 17.4033 7.82387
Au 24.1885 19.7938 8.45092
Au 26.076 21.8684 9.08832
Au 27.6019 24.0601 10.2606
Au 29.6141 25.9636 11.1375
Au 31.2474 28.3258 11.6329
Au 32.791 30.4568 12.5542
Au 21.3098 11.978 5.05631
Au 22.9987 14.0583 5.99316
Au 24.8425 16.1281 6.81594
Au 26.6221 18.2052 7.56914
Au 28.3973 20.3312 8.23743
Au 30.2433 22.2818 9.03451
Au 31.7935 24.7082 9.96663
Au 33.3284 26.6611 10.921
Au 25.1237 12.68 5.15067
Au 27.1518 14.6952 5.95996
Au 28.7462 16.9443 6.44511
Au 30.5624 18.8544 7.33416
Au 32.3078 21.0209 7.91165
Au 33.745 23.0799 9.12066
Au 5.10466 24.6371 10.6625
Au 6.7273 26.9656 11.6989
Au 8.58593 29.5631 12.3028
Au 10.3559 31.4269 13.0114
Au 12.0599 33.8112 13.6288
Au 13.725 35.7855 14.4758
Au 15.3699 37.9006 15.4689
Au 5.73843 21.103 8.93044
Au 7.32595 23.3339 9.63765
Au 8.98808 25.5894 10.6174
Au 10.6804 27.7973 11.3942
Au 12.4183 29.9316 12.0765
Au 14.3208 32.003 12.6891
Au 15.9533 34.224 13.4166
Au 17.5221 36.341 14.5397
Au 19.3361 38.215 15.1291
Au 7.69206 19.5243 7.94967
Au 9.73866 22.0297 8.92934
Au 11.4079 24.1722 9.57665
Au 13.1484 26.3383 10.3888
Au 14.7558 28.4214 11.0182
Au 16.5048 30.5583 11.7576
Au 18.1282 32.6824 12.6178
Au 19.7893 34.8041 13.5514
Au 21.5912 36.8671 14.1348
Au 10.0617 18.0879 7.17394
Au 11.9229 20.4673 8.0807
Au 13.5575 22.7114 8.53185
Au 15.2449 24.8822 9.31172
Au 16.8601 26.9999 10.0983
Au 18.9289 29.0352 10.8193
Au 20.3902 31.1752 11.6734
Au 22.2669 33.2735 12.4859
Au 23.8075 35.346 13.2885
Au 12.3737 16.6713 6.42208
Au 14.1788 18.8455 6.9928
Au 15.6876 21.0718 7.57455
Au 17.344 23.3069 8.19582
Au 19.1402 25.4927 9.09675
Au 21.0221 27.4383 9.95671
Au 22.7447 29.5671 10.6783
Au 24.3611 31.7209 11.4524
Au 26.121 33.8593 12.3074
Au 14.5329 15.2939 5.34254
Au 16.3713 17.3926 6.3457
Au 18.0422 19.5174 6.8589
Au 19.6435 21.8099 7.40047
Au 21.3385 23.8222 8.2688
Au 23.3797 25.8546 9.03441
Au 24.9647 28.1069 9.90579
Au 26.6926 30.1044 10.7087
Au 28.4273 32.4386 11.4601
Au 16.6505 13.7133 4.16146
Au 18.4028 15.9713 5.08694
Au 20.3452 18.041 5.70208
Au 21.9597 20.1826 6.67684
Au 23.6474 22.3575 7.47983
Au 25.6261 24.5218 8.21571
Au 27.1251 26.6805 8.94234
Au 29.0901 28.6848 9.78707
Au 30.7433 31.1458 10.5595
Au 18.9635 12.6924 3.45796
Au 20.6433 14.6435 4.08678
Au 22.5455 16.6577 5.05401
Au 24.2901 18.8377 5.95003
Au 26.2512 20.9274 6.51033
Au 27.9172 22.9669 7.40335
Au 29.4903 25.0339 8.31931
Au 31.1893 27.2252 9.03299
Au 32.6526 29.7952 9.88371
Au 23.0507 13.4677 3.34468
Au 24.8188 15.3669 4.0977
Au 26.6366 17.2878 4.89752
Au 28.3798 19.3725 5.45266
Au 30.0637 21.5888 6.13359
Au 31.7233 23.6931 7.19234
Au 33.3139 25.6865 8.11832
Au 5.54216 23.7969 7.84362
Au 6.67315 25.8842 9.07821
Au 8.64999 28.0538 9.81778
Au 10.4227 30.4211 10.3455
Au 12.4135 32.4399 11.0142
Au 13.828 34.6294 11.943
Au 15.7382 36.8784 12.6525
Au 17.2215 38.9233 13.6915
Au 7.47148 22.0056 7.20606
Au 9.0118 24.6719 7.8397
Au 10.9 26.7339 8.64537
Au 12.5053 28.8392 9.41518
Au 14.3399 30.9594 9.98251
Au 15.6758 32.9471 10.7014
Au 17.6592 35.3506 11.7071
Au 19.2389 37.3633 12.5909
Au 9.77261 20.944 6.45985
Au 11.1359 23.1151 6.93441
Au 13.1002 25.2765 7.58628
Au 14.6276 27.436 8.25318
Au 16.559 29.4352 9.22366
Au 18.2546 31.5957 10.113
Au 19.9397 33.8394 10.8987
Au 21.6147 35.8428 11.7182
Au 11.8583 19.3702 5.57553
Au 13.5103 21.4505 6.0735
Au 15.1166 23.768 6.63235
Au 17.022 26.1352 7.48675
Au 18.9479 27.9087 8.24274
Au 20.7726 30.0454 8.78225
Au 22.126 32.1671 9.93757
Au 23.8483 34.3133 10.7105
Au 14.2441 17.9216 4.49524
Au 15.8174 19.892 5.16322
Au 17.2961 22.0208 5.78329
Au 19.2771 24.3393 6.51109
Au 21.1504 26.5356 7.31353
Au 22.8468 28.3899 8.16834
Au 24.3033 30.8022 8.96488
Au 26.1992 32.5403 9.81213
Au 16.2994 16.703 3.49439
Au 17.8758 18.5341 4.16497
Au 19.7855 20.6026 4.90809
Au 21.6874 22.7012 5.68747
Au 23.2728 25.0027 6.39035
Au 24.9816 26.8933 7.20948
Au 26.8627 29.015 8.04689
Au 28.5589 31.1554 8.92697
Au 18.3672 15.2533 2.40881
Au 20.2938 17.1004 3.07454
Au 22.0373 19.3635 3.93555
Au 23.8995 21.2082 4.81441
Au 25.4295 23.5409 5.59676
Au 27.5471 25.6495 6.31178
Au 29.2183 27.6289 7.15386
Au 30.8117 29.9588 8.03168
Au 20.6905 14.3028 1.52007
Au 22.5636 15.8321 2.33658
Au 24.3606 18.0627 3.48401
Au 26.2119 19.9307 4.16211
Au 27.8717 22.3356 4.85647
Au 29.6394 24.2575 5.42069
Au 31.2634 26.0959 6.27791
Au 32.8853 28.2567 7.46892
Au 5.35605 28.3551 27.3629
Au 7.02602 30.5424 28.528
Au 5.56809 24.7127 25.8988
Au 7.34538 26.6858 26.4744
Au 9.07007 29.021 27.6604
Au 10.6742 31.2409 28.4405
Au 5.86854 20.7082 24.3177
Au 7.52244 22.8379 25.0301
Au 9.47558 25.2245 25.9105
Au 11.462 27.5666 26.8189
Au 12.9643 29.7151 27.668
Au 14.6985 31.837 28.2352
Au 6.50393 17.3945 22.6917
Au 8.34826 19.5558 23.3491
Au 9.95376 21.7006 24.2984
Au 11.7052 23.6931 25.134
Au 13.5455 25.8717 25.7576
Au 15.0057 27.9984 26.6626
Au 16.9982 30.3629 27.3657
Au 18.8421 32.2778 28.2851
Au 7.00862 13.2566 21.0443
Au 8.59785 15.5141 21.7277
Au 10.5526 17.8881 22.5746
Au 12.2245 20.059 23.3108
Au 13.8611 22.2585 24.0949
Au 15.6594 24.2473 24.9408
Au 17.5068 26.6106 25.6233
Au 19.3048 28.6956 26.355
Au 20.9694 30.8362 27.1999
Au 22.7654 33.139 27.7464
Au 7.30935 10.0346 19.1287
Au 9.22535 12.1098 19.7637
Au 10.8803 14.2279 20.959
Au 12.7432 16.4329 21.7738
Au 14.4519 18.531 22.4513
Au 16.2804 20.729 23.1836
Au 18.1169 22.9065 24.1237
Au 19.9153 25.1185 24.6553
Au 21.7485 27.4295 25.3949
Au 23.3519 29.517 26.5761
Au 25.2365 31.614 26.9944
Au 26.9266 33.7097 27.916
Au 8.27869 6.387 17.6891
Au 9.59817 8.59825 18.4667
Au 11.755 10.8994 19.0281
Au 13.4217 12.8779 20.1405
Au 15.2022 15.0429 20.8588
Au 16.9501 17.1371 21.8115
Au 18.5519 19.3028 22.4919
Au 20.2286 21.2716 23.2171
Au 22.0178 23.4656 23.8874
Au 23.7705 25.6821 24.4176
Au 25.4661 27.8524 25.3139
Au 27.3519 29.8379 26.0364
Au 28.847 32.057 26.8438
Au 30.6583 33.9955 27.6073
Au 10.4949 4.98695 16.7626
Au 11.9953 6.95076 17.5657
Au 13.8813 9.32199 18.0898
Au 15.5297 11.4193 19.1127
Au 17.329 13.555 19.7453
Au 19.0804 15.6166 20.5964
Au 20.6212 17.6975 21.4532
Au 22.5116 19.7949 22.2764
Au 24.367 21.9968 23.089
Au 26.1219 24.0305 23.6424
Au 27.9324 26.2705 24.3999
Au 29.5961 28.5233 25.1221
Au 31.2377 30.7533 25.7109
Au 32.8842 32.508 26.4928
Au 14.3843 5.58148 16.5515
Au 16.2229 7.76491 17.3661
Au 17.9612 9.72744 18.1182
Au 19.4862 11.8032 18.8609
Au 21.2284 13.8542 19.7174
Au 22.9805 16.0248 20.5313
Au 24.8109 18.4722 21.2254
Au 26.4112 20.3592 21.9839
Au 28.5234 22.5314 22.7364
Au 30.3422 24.8662 23.5525
Au 32.0151 27.0596 24.3127
Au 33.5435 29.2375 25.0098
Au 18.2354 6.09828 16.6368
Au 20.132 8.09521 17.1041
Au 21.8931 10.4111 18.0659
Au 23.7212 12.5263 18.9089
Au 25.4295 14.6192 19.6404
Au 27.0672 16.8633 20.4467
Au 28.8512 18.9666 21.2065
Au 30.7376 21.3233 21.9513
Au 32.5165 23.2123 22.59
Au 33.8842 25.3383 23.2487
Au 22.5207 6.63577 16.3605
Au 24.0741 8.96282 17.0676
Au 26.0179 10.9778 17.7804
Au 27.7787 13.2515 18.9441
Au 29.4334 15.4647 19.6026
Au 31.2478 17.6588 20.4593
Au 33.0864 19.73 21.0207
Au 34.6691 21.9482 21.6858
Au 26.4978 7.5822 16.3445
Au 28.1064 9.55797 16.9455
Au 29.9252 11.5639 17.8265
Au 31.6907 13.8408 18.6703
Au 33.476 16.0053 19.5064
Au 35.3196 18.2084 20.194
Au 30.139 7.926 16.1256
Au 32.2672 9.88824 16.9072
Au 33.8395 12.408 17.7292
Au 35.5207 14.2432 18.3433
Au 34.6857 9.0158 16.1745
Au 36.0854 11.0352 16.9134
Au 5.60019 25.8187 28.4502
Au 7.27534 28.0384 29.5565
Au 8.95859 29.7984 30.4552
Au 5.74236 21.8192 26.9069
Au 7.67694 24.0027 27.714
Au 9.26243 26.2979 28.554
Au 11.1914 28.4556 29.5089
Au 12.8274 30.5024 30.3749
Au 6.29843 18.164 25.3884
Au 7.9144 20.2954 26.1488
Au 9.88842 22.3253 27.137
Au 11.5147 24.78 27.7192
Au 13.3967 26.866 28.5782
Au 15.0837 29.2332 29.3346
Au 17.036 31.1558 29.9191
Au 7.04811 14.6171 23.5664
Au 8.71484 16.7707 24.3142
Au 10.3186 18.9313 25.3394
Au 12.1608 21.0383 26.1061
Au 13.9332 23.3187 26.7965
Au 15.8798 25.3324 27.4563
Au 17.4312 27.6447 28.2884
Au 19.3403 29.6869 29.1985
Au 20.7401 31.6655 30.089
Au 7.62482 10.5932 21.7655
Au 9.00679 12.8765 22.5379
Au 10.8863 15.2072 23.6008
Au 12.6811 17.3656 24.3982
Au 14.4657 19.5009 25.0836
Au 16.1564 21.5639 25.7247
Au 18.021 23.794 26.6759
Au 19.7809 26.0993 27.4327
Au 21.4324 28.1576 28.2888
Au 23.1291 30.6773 29.0185
Au 24.8861 32.4943 29.4901
Au 8.00799 7.71321 20.584
Au 9.89914 9.57479 21.0229
Au 11.634 11.6264 21.8952
Au 13.4531 13.9863 22.8568
Au 15.0772 15.9107 23.776
Au 16.8815 18.007 24.5149
Au 18.503 20.3337 25.096
Au 20.227 22.4601 25.8942
Au 22.066 24.5343 26.5389
Au 23.8005 26.607 27.2662
Au 25.5699 28.742 27.9761
Au 27.1788 30.8111 28.7399
Au 28.8931 33.0175 29.4643
Au 10.3024 5.96383 19.4301
Au 12.1267 8.2163 19.9485
Au 13.686 10.0854 21.0635
Au 15.5743 12.396 21.7565
Au 17.4062 14.3592 22.7279
Au 19.1119 16.4592 23.5774
Au 20.9116 18.751 24.2162
Au 22.4041 20.8675 25.001
Au 24.3435 23.0692 25.6554
Au 26.0573 25.2425 26.2979
Au 27.8239 27.2692 27.0072
Au 29.4485 29.6337 27.9708
Au 31.3028 31.5292 28.5602
Au 12.6635 4.45892 18.4107
Au 14.2204 6.5327 19.1432
Au 15.8514 8.78749 19.9784
Au 17.7836 10.6345 20.8253
Au 19.3993 12.7549 21.4836
Au 21.1237 14.9064 22.507
Au 22.9134 17.2033 23.1971
Au 24.8267 19.2717 24.0551
Au 26.7099 21.5049 24.7127
Au 28.4848 23.7627 25.554
Au 30.2931 25.8208 26.195
Au 31.6965 28.1132 26.9353
Au 33.566 29.8869 27.5598
Au 16.5086 5.07287 18.4586
Au 18.4363 7.14967 19.0732
Au 20.0354 9.28747 20.0109
Au 21.8452 11.1665 20.925
Au 23.5915 13.4726 21.4853
Au 25.1487 15.6996 22.3008
Au 26.9706 17.873 23.1171
Au 28.9291 19.8598 23.8578
Au 30.7206 22.1713 24.6595
Au 32.5091 24.2537 25.3707
Au 33.8673 26.6767 26.2763
Au 20.5682 5.75491 18.1685
Au 22.3448 7.67147 19.0948
Au 24.1422 9.77327 19.7869
Au 25.827 11.8186 20.585
Au 27.5498 14.356 21.4972
Au 29.2928 16.4822 22.2286
Au 31.2429 18.636 23.0202
Au 33.2212 20.7479 23.7823
Au 34.6852 22.8003 24.409
Au 24.7375 6.35525 18.0736
Au 26.3678 8.29226 19.0458
Au 28.1182 10.4063 19.731
Au 29.9224 12.7763 20.617
Au 31.4166 14.8414 21.2328
Au 33.6087 17.1689 21.9906
Au 35.3778 19.0416 22.8029
Au 28.5579 6.8617 18.1686
Au 30.2928 8.90773 18.6355
Au 32.2134 11.0592 19.4804
Au 33.7825 13.4055 20.5081
Au 35.7293 15.5964 21.2132
Au 32.4698 7.68194 18.2108
Au 34.4767 9.68675 18.7599
Au 35.8776 11.6517 19.679
Au 6.15491 23.3325 29.5856
Au 7.59139 25.3854 30.3183
Au 9.51918 27.3065 31.3507
Au 11.0812 29.1439 32.1983
Au 6.13116 19.2827 28.0089
Au 7.86305 21.2256 28.8745
Au 9.71555 23.4779 29.6364
Au 11.5006 25.8334 30.3098
Au 13.1628 27.7757 31.2321
Au 15.1079 30.0163 32.0354
Au 7.06117 15.4725 26.2347
Au 8.56461 17.695 27.1293
Au 10.3738 19.8976 27.8776
Au 12.1937 22.1946 28.7308
Au 13.8277 24.312 29.4613
Au 15.7649 26.4788 30.0274
Au 17.2417 28.6089 30.8751
Au 19.1524 30.6037 31.7604
Au 7.43068 11.5643 24.6987
Au 9.10252 14.0381 25.3399
Au 10.8325 16.1866 26.3592
Au 12.5991 18.2434 27.1296
Au 14.3996 20.5328 27.8028
Au 16.0174 22.6633 28.6127
Au 17.8246 24.949 29.492
Au 19.71 26.9985 30.054
Au 21.4134 29.151 31.114
Au 23.2302 31.331 31.755
Au 7.93097 8.35569 23.1967
Au 9.77551 10.3737 23.7691
Au 11.4535 12.6516 24.5208
Au 13.0007 14.7599 25.474
Au 15.0261 17.0079 26.1662
Au 16.5348 19.0664 26.9385
Au 18.5369 21.3026 27.7938
Au 20.4023 23.5209 28.507
Au 22.0785 25.6523 29.2358
Au 23.7393 27.9896 29.9607
Au 25.4789 29.8524 30.725
Au 26.9115 31.8698 31.3069
Au 10.1834 7.05141 22.0248
Au 11.9603 9.05878 23.0413
Au 13.7497 11.0531 23.5994
Au 15.4199 13.2025 24.4122
Au 17.3169 15.3324 25.4777
Au 19.0307 17.4954 26.2271
Au 20.779 19.7322 27.0631
Au 22.6236 21.8237 27.5553
Au 24.2994 24.0959 28.4084
Au 26.0694 26.2148 29.1338
Au 27.7152 28.3794 29.7791
Au 29.5093 30.7044 30.6336
Au 12.4609 5.48301 20.9384
Au 14.0672 7.58981 22.0725
Au 16.1437 9.71655 22.7897
Au 17.7132 11.8016 23.6537
Au 19.4512 13.6992 24.5135
Au 21.2829 16.0187 25.1765
Au 22.9347 18.2742 25.9559
Au 24.7963 20.2699 26.9511
Au 26.6013 22.5962 27.3895
Au 28.1864 24.6886 28.0996
Au 29.9724 26.9179 29.0008
Au 31.514 28.99 29.6776
Au 14.6096 4.09437 20.3418
Au 16.2509 6.28199 20.9975
Au 18.2351 8.16947 21.905
Au 19.9759 10.1795 22.6752
Au 21.7455 12.2955 23.4734
Au 23.3654 14.5154 24.18
Au 25.1164 16.7221 24.9879
Au 26.962 18.9143 25.619
Au 28.7542 20.9288 26.5396
Au 30.6439 23.0662 27.2422
Au 32.2354 25.3317 28.2573
Au 33.7089 27.402 28.837
Au 18.6004 4.62863 20.1882
Au 20.4747 6.55324 20.8328
Au 22.394 8.55125 21.8477
Au 24.0729 11.0089 22.535
Au 25.7363 13.0277 23.1522
Au 27.5597 15.1719 24.1771
Au 29.289 17.3773 24.7903
Au 31.2319 19.6301 25.531
Au 32.9663 21.6135 26.4962
Au 34.3601 23.7699 27.402
Au 23.0515 5.00563 20.0748
Au 24.628 6.99697 20.829
Au 26.2386 9.37988 21.7132
Au 27.9681 11.5425 22.4405
Au 29.7255 13.7525 23.243
Au 31.5883 15.8459 23.9695
Au 33.4863 18.0305 24.4802
Au 35.1326 20.02 25.742
Au 27.0168 5.60764 19.8967
Au 28.6944 7.80263 20.7658
Au 30.375 9.97302 21.5099
Au 32.0389 12.1273 22.3041
Au 33.8081 14.2337 22.9968
Au 35.7147 16.1693 23.9622
Au 30.8229 6.32568 20.0267
Au 32.3508 8.52647 20.6121
Au 34.2326 10.5956 21.4287
Au 35.984 12.7004 22.1371
Au 6.27442 20.499 30.6042
Au 7.87406 22.5534 31.4914
Au 9.46056 24.7755 32.3009
Au 11.5612 26.6225 33.2026
Au 13.1872 28.7338 33.8473
Au 6.68175 16.6273 28.9607
Au 8.45481 18.7394 29.9122
Au 10.3045 21.0253 30.5021
Au 11.9684 23.1173 31.3677
Au 13.6801 25.2511 32.0409
Au 15.5914 27.4022 32.9312
Au 17.2537 29.5799 33.5106
Au 7.51414 12.9261 27.0293
Au 9.0468 15.0924 28.2177
Au 10.7522 17.3481 28.9049
Au 12.521 19.5611 29.7074
Au 14.288 21.5942 30.562
Au 16.0156 23.8289 31.3665
Au 17.7179 26.0067 32.102
Au 19.4361 28.0147 32.8393
Au 21.3763 29.901 33.6064
Au 8.14079 9.16591 25.8065
Au 9.68311 11.4651 26.4436
Au 11.1512 13.5948 27.2086
Au 13.1371 15.675 28.1888
Au 14.7949 17.9069 28.8556
Au 16.5413 19.9747 29.6701
Au 18.4734 22.3823 30.2843
Au 20.1549 24.4075 31.1234
Au 21.8874 26.4584 31.9739
Au 23.5616 28.6178 32.6008
Au 25.3563 30.4094 33.3782
Au 10.2247 7.66479 24.7753
Au 11.8749 10.0227 25.5483