1428
 Atoms. Timestep: 50000
Au 22.2521 13.2006 35.9753
Au 21.7197 14.3872 33.4823
Au 21.7039 15.4298 30.8396
Au 21.2714 16.7837 28.4166
Au 21.1167 17.9839 25.5987
Au 20.8924 19.2248 23.0276
Au 20.7255 20.336 20.1988
Au 20.2447 21.5737 17.6006
Au 20.0038 22.7163 14.8594
Au 19.5109 23.8224 12.2557
Au 19.3016 25.075 9.7345
Au 19.0891 26.2978 7.22022
Au 18.8745 27.3677 4.84822
Au 19.6011 13.993 35.0825
Au 19.0947 14.9995 32.5799
Au 18.9095 16.1695 29.9084
Au 18.7131 17.2896 27.2984
Au 18.3134 18.4515 24.7336
Au 18.3566 19.6922 21.8441
Au 18.1177 21.0279 19.3242
Au 17.5278 22.0264 16.5505
Au 17.2585 23.3558 14.0535
Au 17.1513 24.4806 11.4305
Au 16.7427 25.6514 8.5852
Au 16.6642 26.9146 6.16952
Au 21.4588 15.8666 35.6938
Au 20.9838 17.0955 33.2562
Au 20.5917 18.3603 30.7974
Au 20.5465 19.4435 28.0568
Au 20.259 20.7277 25.2681
Au 20.0351 21.8779 22.452
Au 19.7208 23.0554 20.0845
Au 19.2763 24.2439 17.3761
Au 18.9231 25.4368 14.8938
Au 18.6717 26.7816 12.1013
Au 18.5498 27.9054 9.68632
Au 18.1996 28.8427 7.09785
Au 23.9506 15.2011 35.0138
Au 23.73 16.414 32.7389
Au 23.2908 17.5857 30.1409
Au 23.3199 18.8492 27.5789
Au 23.0448 19.9464 24.8081
Au 22.7828 21.217 22.0687
Au 22.5776 22.3518 19.5347
Au 22.1237 23.6638 16.7976
Au 21.6166 24.8136 14.1818
Au 21.4407 25.9537 11.5949
Au 21.3311 26.9596 8.94617
Au 21.1128 28.3535 6.39747
Au 23.9289 12.4934 34.2064
Au 23.6787 13.8076 31.613
Au 23.3389 14.8729 28.9011
Au 23.0377 16.1742 26.3439
Au 22.6883 17.3114 23.557
Au 22.6692 18.4153 20.8366
Au 22.4647 19.7905 18.4163
Au 21.9663 20.7758 15.7888
Au 21.6 22.1564 12.9172
Au 21.4159 23.36 10.268
Au 21.1065 24.3162 7.72176
Au 20.8182 25.5489 5.21067
Au 20.8359 11.7926 34.0473
Au 20.6491 12.8568 31.3836
Au 20.5359 14.0993 28.5706
Au 20.3565 15.3339 26.2645
Au 19.9309 16.4037 23.5602
Au 19.9496 17.601 20.8766
Au 19.5837 18.8937 18.2744
Au 19.2701 20.0592 15.502
Au 18.7524 21.2636 12.8796
Au 18.6658 22.3286 10.0524
Au 18.543 23.4019 7.50239
Au 18.1263 24.644 5.06273
Au 16.983 14.5071 34.1234
Au 16.6438 15.615 31.5281
Au 16.314 16.8527 28.9613
Au 15.8626 17.9204 26.2629
Au 15.9675 18.9887 23.4526
Au 15.6871 20.0643 20.9379
Au 15.2282 21.4919 18.1368
Au 14.8545 22.8842 15.3841
Au 14.6641 23.9628 12.6808
Au 14.4217 25.0417 10.3237
Au 14.1617 26.3469 7.77208
Au 18.8031 16.6883 34.737
Au 18.1309 17.8338 32.2319
Au 18.1069 18.976 29.643
Au 17.8818 19.9979 26.9729
Au 17.668 21.2087 24.2549
Au 17.163 22.3177 21.6653
Au 16.9821 23.623 18.8539
Au 16.4767 24.9984 16.298
Au 16.3198 26.0227 13.535
Au 16.1049 27.1296 11.0456
Au 15.9392 28.3401 8.58589
Au 20.5298 18.5251 35.5149
Au 19.9157 19.7262 33.0993
Au 19.7244 21.1096 30.2826
Au 19.5614 22.0335 27.5295
Au 19.1813 23.3957 25.0548
Au 18.8283 24.595 22.325
Au 18.7354 25.7682 19.6783
Au 18.5387 27.1108 17.1303
Au 18.0599 28.1406 14.4355
Au 17.6521 29.326 12.1666
Au 17.5278 30.349 9.51734
Au 23.0547 18.2289 34.9882
Au 22.8281 19.2258 32.343
Au 22.3378 20.2617 29.7431
Au 22.3218 21.5124 27.0515
Au 21.9949 22.7764 24.3592
Au 21.8884 23.8823 21.7517
Au 21.4572 25.0313 19.117
Au 21.1717 26.169 16.6063
Au 20.7887 27.5484 14.0656
Au 20.605 28.6564 11.3049
Au 20.4122 29.7397 8.59048
Au 25.7343 17.2845 34.3564
Au 25.6628 18.4749 31.7711
Au 25.209 19.3859 29.2947
Au 25.1974 20.6508 26.4305
Au 24.8083 21.9276 23.7494
Au 24.7238 23.1194 21.2567
Au 24.3458 24.3942 18.417
Au 23.74 25.5359 15.828
Au 23.5695 26.6939 13.3122
Au 23.382 27.8473 10.6524
Au 23.0784 28.8722 8.18423
Au 25.7649 14.3732 33.2686
Au 25.5995 15.8391 30.6787
Au 25.2567 16.8335 28.105
Au 25.1372 17.8703 25.3253
Au 24.8563 19.0379 22.7235
Au 24.5829 20.5061 20.0436
Au 24.2363 21.7661 17.3848
Au 23.8908 22.8368 14.7277
Au 23.587 24.0683 12.0824
Au 23.4732 25.3563 9.5194
Au 23.2114 26.283 7.01352
Au 25.5579 11.9982 32.0442
Au 25.3354 12.9681 29.5533
Au 25.227 14.2644 26.7902
Au 24.9954 15.3793 24.182
Au 24.788 16.6209 21.5877
Au 24.4043 17.6505 18.9957
Au 24.0287 18.9927 16.3288
Au 23.7438 20.1652 13.3915
Au 23.4493 21.5418 10.9219
Au 23.3048 22.7483 8.29935
Au 22.9135 23.6969 5.72639
Au 22.7305 11.1142 31.8677
Au 22.5164 12.1888 29.476
Au 22.5589 13.2804 26.7404
Au 22.1842 14.5803 24.2093
Au 21.8845 15.6596 21.5148
Au 21.5917 16.9354 18.7871
Au 21.238 18.1414 15.9975
Au 20.9674 19.4095 13.4811
Au 20.7824 20.5043 10.7128
Au 20.5964 21.4944 8.1933
Au 20.0715 22.7226 5.46328
Au 19.9971 10.4451 31.6934
Au 19.7735 11.2775 29.0865
Au 19.4695 12.4842 26.4584
Au 19.4436 13.6577 23.8594
Au 19.2607 14.9001 21.2151
Au 18.8845 16.242 18.6904
Au 18.5251 17.225 16.0823
Au 18.214 18.5912 13.2903
Au 17.9923 19.6474 10.5621
Au 17.7561 20.7765 7.86794
Au 17.3501 21.9535 5.36845
Au 18.2001 12.1444 33.0263
Au 18.2285 13.3975 30.2793
Au 18.076 14.5333 27.7159
Au 17.5823 15.7295 25.132
Au 17.5827 16.9073 22.3522
Au 17.2791 18.1413 19.6904
Au 16.9413 19.4597 17.1995
Au 16.4314 20.5962 14.3596
Au 16.2199 21.8549 11.6843
Au 16.0597 22.9513 9.0591
Au 15.9075 24.0617 6.58258
Au 14.2067 15.011 32.785
Au 13.9229 16.0195 30.3822
Au 13.6476 17.2064 27.8508
Au 13.3716 18.5775 25.0708
Au 13.3252 19.5903 22.4335
Au 12.809 20.7793 19.8372
Au 12.5352 22.227 17.1211
Au 12.3377 23.2414 14.4947
Au 11.9966 24.2893 11.9027
Au 12.0269 25.4121 9.35594
Au 15.8616 17.1035 33.9272
Au 15.4432 18.2539 31.2161
Au 15.348 19.6006 28.5223
Au 15.2714 20.6639 25.767
Au 14.849 21.8158 23.1607
Au 14.5296 23.0403 20.4255
Au 14.1876 24.3201 18.0113
Au 13.9626 25.5209 15.1949
Au 13.5112 26.6083 12.5581
Au 13.5215 27.5864 10.1027
Au 17.6257 19.261 34.5367
Au 17.411 20.4818 32.1025
Au 17.1897 21.6555 29.3106
Au 16.7844 22.6812 26.8321
Au 16.6204 23.7184 24.0908
Au 16.4203 25.1638 21.3055
Au 15.9881 26.4644 18.7533
Au 15.7574 27.7401 16.1119
Au 15.1823 28.6821 13.427
Au 15.217 29.8517 10.9075
Au 19.645 21.3226 35.0882
Au 19.2748 22.5787 32.6257
Au 19.0925 23.7068 29.9918
Au 18.5556 24.7642 27.5163
Au 18.2873 26.0374 24.8003
Au 17.9996 27.321 22.1286
Au 18.0051 28.5558 19.5947
Au 17.5261 29.7478 16.8204
Au 17.4723 30.9101 14.4703
Au 17.142 31.9256 11.9038
Au 22.1599 20.7364 34.6341
Au 21.9959 21.99 32.0839
Au 21.648 23.0097 29.3005
Au 21.3378 24.1777 26.843
Au 20.9776 25.46 24.0201
Au 20.9503 26.5557 21.3681
Au 20.813 27.8238 18.9411
Au 20.2504 29.2665 16.3177
Au 20.0592 30.1266 13.6254
Au 19.7595 31.2712 11.0721
Au 24.7476 19.9867 34.017
Au 24.6729 21.2327 31.4494
Au 24.4168 22.2368 28.7004
Au 24.1012 23.4817 26.0638
Au 24.1005 24.5634 23.4438
Au 23.7361 25.7903 20.7225
Au 23.4541 27.0837 18.2155
Au 23.0111 28.2459 15.5858
Au 22.6988 29.2878 13.0219
Au 22.511 30.3655 10.4005
Au 27.7531 19.1118 33.3081
Au 27.2878 20.5226 30.8241
Au 27.1005 21.4845 28.2118
Au 26.9718 22.5043 25.5627
Au 26.7848 23.8657 22.8928
Au 26.3555 25.1158 20.2024
Au 26.1295 26.1883 17.5135
Au 25.8632 27.4854 14.9289
Au 25.652 28.5549 12.2785
Au 25.1378 29.7938 9.89322
Au 27.6489 16.3307 32.3887
Au 27.51 17.6199 29.7631
Au 27.1503 18.8117 27.1804
Au 26.9065 20.0826 24.211
Au 26.7515 21.2609 21.7624
Au 26.4175 22.5168 19.0803
Au 25.9793 23.4935 16.281
Au 25.776 24.8971 13.8584
Au 25.5951 26.0022 11.1994
Au 25.2361 27.1181 8.66964
Au 27.5165 13.8694 31.121
Au 27.4441 14.8042 28.598
Au 27.2045 16.2262 26.1646
Au 26.8949 17.2932 23.3238
Au 26.6168 18.4397 20.5755
Au 26.1234 19.5884 17.9691
Au 25.8281 20.844 15.2384
Au 25.6219 22.1998 12.6252
Au 25.2995 23.3323 10.033
Au 25.2189 24.474 7.32007
Au 27.437 11.0698 29.8316
Au 27.1491 12.1473 27.3996
Au 26.9223 13.3828 24.8245
Au 26.8033 14.569 22.1062
Au 26.5209 15.7534 19.5471
Au 26.1371 17.0514 16.8177
Au 25.6837 18.3591 14.0504
Au 25.3958 19.5132 11.2201
Au 25.2427 20.6197 8.69851
Au 24.7679 21.6 6.12848
Au 24.6684 10.2072 29.7935
Au 24.5619 11.2609 27.2801
Au 24.279 12.6412 24.5553
Au 24.0818 13.8193 22.0009
Au 23.6745 15.0946 19.3531
Au 23.3097 16.2542 16.5717
Au 23.0855 17.5186 14.0643
Au 22.7045 18.737 11.346
Au 22.5324 19.6968 8.8079
Au 22.1839 20.8685 6.26946
Au 21.9006 9.5352 29.7108
Au 21.7986 10.639 27.0365
Au 21.4107 11.8739 24.5041
Au 21.3054 12.9852 21.7867
Au 20.9929 14.3626 19.2262
Au 20.7782 15.4705 16.6007
Au 20.3609 16.5491 13.9863
Au 19.9586 17.6476 11.1752
Au 19.6958 18.9499 8.42007
Au 19.4612 20.0844 5.80502
Au 19.2186 8.70808 29.1732
Au 18.9323 9.79428 26.8278
Au 18.6781 10.7967 24.1356
Au 18.5779 12.1907 21.6142
Au 18.1846 13.339 19.0317
Au 17.9911 14.4744 16.3931
Au 17.4462 15.7974 13.7329
Au 17.2593 16.9096 11.2257
Au 16.9385 18.2544 8.40899
Au 16.7118 19.3053 5.83527
Au 17.3927 10.6696 30.9358
Au 17.2016 11.7058 28.1421
Au 16.8932 12.9225 25.4788
Au 16.6202 14.2382 22.9453
Au 16.5468 15.4255 20.1806
Au 16.1943 16.5977 17.6266
Au 15.9654 17.8944 14.9909
Au 15.5226 19.0445 12.0885
Au 15.4189 20.1122 9.59891
Au 15.0843 21.1351 6.83522
Au 15.8846 12.9972 31.9632
Au 15.5004 14.0508 29.3364
Au 15.4488 15.2499 26.7145
Au 15.0861 16.4772 24.0763
Au 14.8481 17.6012 21.3399
Au 14.5533 18.7165 18.6903
Au 14.3949 20.0277 15.9264
Au 13.8573 21.241 13.2252
Au 13.7514 22.2814 10.6862
Au 13.6715 23.4225 7.99904
Au 11.7731 15.4955 31.7995
Au 11.4896 16.9128 29.2024
Au 11.2361 18.0125 26.7237
Au 11.0652 19.2184 23.8395
Au 10.4616 20.3313 21.4148
Au 10.3082 21.5202 18.8464
Au 9.9291 22.6 16.0995
Au 9.76526 23.6066 13.4684
Au 9.45311 25.0772 10.9798
Au 13.2384 17.6431 32.7696
Au 13.1115 18.9847 30.0583
Au 12.8416 20.2915 27.4131
Au 12.7674 21.3684 24.8802
Au 12.2921 22.5673 22.1324
Au 11.9037 23.8242 19.3276
Au 11.6928 24.8646 16.7162
Au 11.2686 25.95 14.1045
Au 11.1252 27.2105 11.5656
Au 15.1921 19.8186 33.4532
Au 15.0159 21.1005 30.9684
Au 14.4543 22.3306 28.3126
Au 14.338 23.4326 25.6963
Au 14.208 24.6327 22.9222
Au 13.6158 25.6826 20.2946
Au 13.5695 27.0116 17.5405
Au 12.9457 28.2608 14.852
Au 12.9009 29.3173 12.3142
Au 17.0004 22.206 34.3995
Au 16.554 23.13 31.7619
Au 16.2977 24.3923 29.1629
Au 15.9517 25.4972 26.3304
Au 15.8391 26.6911 23.8486
Au 15.3859 27.9631 21.2239
Au 15.2989 29.0842 18.3901
Au 14.9973 30.3727 15.771
Au 14.7664 31.3821 13.3084
Au 18.8613 24.153 34.8854
Au 18.2678 25.2987 32.2139
Au 18.0614 26.4498 29.7759
Au 17.8256 27.6535 27.2355
Au 17.5905 28.8174 24.5191
Au 17.168 30.0937 21.8717
Au 17.0769 31.3237 19.4434
Au 16.6923 32.3766 16.7333
Au 16.5537 33.3842 14.0941
Au 21.4464 23.5846 34.2905
Au 21.0702 24.7091 31.8061
Au 20.7249 25.8618 29.1872
Au 20.4666 26.8782 26.4911
Au 20.1762 28.0461 23.7967
Au 19.9937 29.1375 21.3055
Au 19.8164 30.4664 18.6629
Au 19.5248 32.0263 16.1652
Au 19.3268 32.8274 13.4338
Au 24.1285 22.6296 33.6904
Au 23.7853 23.9046 31.0914
Au 23.6646 25.0224 28.5241
Au 23.1984 26.0547 25.937
Au 22.8811 27.352 23.2605
Au 22.7895 28.507 20.7146
Au 22.7759 29.637 18.0001
Au 22.2072 31.027 15.3452
Au 21.8994 32.0043 12.7674
Au 26.7464 21.8921 33.1655
Au 26.4538 23.1462 30.5893
Au 26.3792 24.256 27.9831
Au 25.9286 25.3828 25.212
Au 25.8974 26.623 22.4527
Au 25.5829 27.785 19.9196
Au 25.3139 28.8873 17.3252
Au 24.9827 30.1487 14.6283
Au 24.657 31.4071 12.1603
Au 29.3863 21.2033 32.6493
Au 29.451 22.2835 30.0497
Au 29.1303 23.4448 27.3046
Au 28.9481 24.6135 24.6494
Au 28.651 25.8769 21.919
Au 28.1461 26.9545 19.3098
Au 27.9305 28.4278 16.7438
Au 27.7513 29.4491 13.9335
Au 27.1909 30.5298 11.4789
Au 29.4954 18.4366 31.3278
Au 29.2655 19.7182 28.9564
Au 29.0979 20.8314 26.3024
Au 28.8062 21.9861 23.4913
Au 28.514 23.1733 20.8108
Au 28.2793 24.44 18.1376
Au 27.9458 25.6844 15.4567
Au 27.8103 26.8186 12.6733
Au 27.349 28.066 10.1111
Au 29.4429 15.6892 30.378
Au 29.2844 16.8153 27.934
Au 29.0386 18.0012 24.8049
Au 28.7644 19.2261 22.2392
Au 28.4468 20.3992 19.5909
Au 28.1199 21.727 17.0693
Au 27.6989 22.7693 14.3903
Au 27.4894 24.0328 11.7085
Au 27.1591 25.2977 9.1719
Au 29.3795 12.8124 29.133
Au 29.071 13.9202 26.4176
Au 28.8531 15.2741 23.9649
Au 28.59 16.5127 21.1705
Au 28.2704 17.876 18.422
Au 27.9952 19.129 15.7916
Au 27.5267 20.1969 13.013
Au 27.3874 21.4665 10.554
Au 27.054 22.433 7.85177
Au 29.2255 10.4613 27.7074
Au 29.0806 11.4282 25.091
Au 28.8573 12.6727 22.7253
Au 28.4998 13.8948 19.9269
Au 28.1064 15.0818 17.1566
Au 27.625 16.3977 14.5456
Au 27.508 17.4622 11.9026
Au 27.3229 18.6912 9.16908
Au 26.7312 19.7706 6.57225
Au 26.4305 9.39399 27.6922
Au 26.2842 10.6633 25.0364
Au 26.1053 11.8119 22.5609
Au 25.8072 13.0317 19.8273
Au 25.3336 14.4113 17.3319
Au 25.0455 15.5297 14.5122
Au 24.7958 16.6248 11.8184
Au 24.5395 17.8236 8.98203
Au 24.0347 18.8697 6.6265
Au 23.8249 8.42494 27.8581
Au 23.7225 9.68716 25.2536
Au 23.3821 11.019 22.6346
Au 23.1607 12.2977 19.7066
Au 22.6746 13.3031 17.0646
Au 22.3707 14.7784 14.4037
Au 21.9714 16.1215 11.7282
Au 21.8971 16.9045 9.00966
Au 21.4253 18.1727 6.50091
Au 21.056 7.93545 27.4541
Au 20.8149 9.05277 24.7653
Au 20.6409 10.1562 22.3183
Au 20.3125 11.4634 19.6059
Au 19.9283 12.47 16.8499
Au 19.6518 13.7614 14.3044
Au 19.433 14.9247 11.7367
Au 19.1592 16.1378 9.04234
Au 18.8609 17.3671 6.40959
Au 18.2937 6.95581 27.3739
Au 18.0463 8.16761 24.726
Au 17.8081 9.4866 21.9505
Au 17.5887 10.6759 19.4762
Au 17.2742 11.6811 16.9162
Au 16.8235 12.8884 14.2003
Au 16.6971 14.1451 11.5292
Au 16.2891 15.4451 9.07577
Au 16.0736 16.6537 6.51546
Au 16.5721 9.07137 28.4398
Au 16.4598 10.2093 25.9522
Au 16.1066 11.3664 23.4584
Au 15.8247 12.7723 20.8129
Au 15.6383 13.7834 18.0351
Au 15.3082 15.1044 15.3909
Au 14.8938 16.2906 12.363
Au 14.7012 17.3957 9.87769
Au 14.3939 18.5695 7.32323
Au 14.847 11.2573 29.7456
Au 14.5177 12.4736 27.1888
Au 14.3373 13.8146 24.5636
Au 14.2141 14.7796 21.7066
Au 13.8671 16.1093 19.1865
Au 13.7725 17.193 16.5004
Au 13.2604 18.4413 13.6175
Au 12.9944 19.4688 11.005
Au 12.8995 20.6309 8.52689
Au 13.0765 13.3476 30.6878
Au 12.8883 14.5928 28.2211
Au 12.675 15.8157 25.5342
Au 12.5704 16.8917 22.836
Au 12.2633 18.2576 20.1651
Au 11.9772 19.3494 17.5672
Au 11.7402 20.6156 14.8626
Au 11.2749 21.6087 12.0365
Au 11.0749 22.7382 9.57251
Au 9.14227 16.1546 30.738
Au 8.78242 17.3951 28.1943
Au 8.6558 18.5217 25.6222
Au 8.28992 19.7537 22.8187
Au 7.91859 20.9496 20.1204
Au 7.71884 22.0513 17.5576
Au 7.47797 23.3421 14.9066
Au 7.38388 24.3294 12.4442
Au 10.8343 18.2574 31.5109
Au 10.5709 19.6612 29.044
Au 10.284 20.6047 26.2819
Au 9.95044 21.9885 23.6827
Au 9.54116 23.0697 21.2379
Au 9.26609 24.2516 18.3628
Au 8.99901 25.4798 15.7569
Au 8.8141 26.6688 13.3192
Au 12.5463 20.332 32.364
Au 12.3434 21.8922 29.9647
Au 11.8117 22.9233 27.1346
Au 11.7725 24.0016 24.5039
Au 11.4628 25.1151 21.8787
Au 11.1492 26.5784 19.0913
Au 10.8303 27.603 16.6229
Au 10.6174 28.8239 14.0541
Au 14.3404 22.3843 33.336
Au 14.0638 23.8065 30.7716
Au 13.6362 24.8746 28.0961
Au 13.4262 26.2167 25.2899
Au 13.0975 27.4283 22.7238
Au 13.127 28.5162 19.8752
Au 12.7185 29.8186 17.3045
Au 12.4091 30.8025 14.7525
Au 16.0679 24.7203 33.8306
Au 15.6426 26.0924 31.5114
Au 15.5179 26.9622 28.6965
Au 15.1077 28.308 26.1621
Au 14.8971 29.4868 23.4374
Au 14.6452 30.5668 20.7697
Au 14.2979 31.9752 18.2802
Au 14.2655 32.9295 15.6816
Au 17.6424 26.7991 34.5385
Au 17.5545 28.0625 31.9257
Au 17.269 29.2533 29.4605
Au 17.0656 30.3284 26.8892
Au 16.8626 31.6413 24.3052
Au 16.7088 32.9146 21.7025
Au 16.1494 34.1051 19.211
Au 15.8492 35.0098 16.6467
Au 20.369 26.1412 34.0939
Au 20.256 27.2322 31.5399
Au 20.011 28.5536 28.9531
Au 19.7708 29.6268 26.3125
Au 19.3315 30.79 23.5287
Au 19.3746 31.9156 20.9565
Au 18.788 33.3431 18.4091
Au 18.5718 34.4247 15.6976
Au 23.2598 25.4273 33.4789
Au 22.8419 26.6189 31.0139
Au 22.6629 27.7026 28.1542
Au 22.3802 28.8447 25.5098
Au 22.1425 30.0433 22.9274
Au 22.1458 31.2397 20.2367
Au 21.7282 32.3636 17.5725
Au 21.1872 33.6847 14.8206
Au 25.8477 24.6933 32.8094
Au 25.5847 25.9555 30.36
Au 25.4462 26.9184 27.5665
Au 25.0805 27.9529 24.9198
Au 24.9992 29.2243 22.3874
Au 24.9113 30.4499 19.9109
Au 24.4063 31.6839 17.1437
Au 24.0324 32.6948 14.4277
Au 28.712 23.8161 32.3205
Au 28.3883 24.9582 29.6923
Au 28.1608 26.1657 27.0007
Au 27.8138 27.158 24.2961
Au 27.7995 28.6657 21.4579
Au 27.4159 29.9124 18.851
Au 27.0699 31.0873 16.3066
Au 26.8513 32.0745 13.7777
Au 31.5034 22.8806 31.6485
Au 31.2417 24.0839 29.0636
Au 31.1982 25.2439 26.5396
Au 30.5334 26.644 23.5901
Au 30.5547 27.9016 20.8938
Au 30.0779 29.0527 18.4757
Au 29.6786 30.4214 15.6996
Au 29.5281 31.358 13.222
Au 31.5428 20.3923 30.5713
Au 31.2355 21.4654 28.0896
Au 31.0638 22.7108 25.0483
Au 30.6362 24.0026 22.3691
Au 30.4096 25.3063 19.7418
Au 29.8627 26.5751 17.0422
Au 29.8369 27.8975 14.4349
Au 29.489 28.8709 11.7577
Au 31.2677 17.5927 29.4665
Au 30.9497 18.997 26.7809
Au 30.8525 20.0318 24.1512
Au 30.4991 21.2425 21.2712
Au 30.2505 22.6353 18.6848
Au 29.838 23.7231 15.9723
Au 29.6811 24.7748 13.2881
Au 29.5157 25.8119 10.5706
Au 31.22 14.8519 28.3341
Au 30.8781 16.2965 25.5539
Au 30.8714 17.3828 22.8941
Au 30.5132 18.556 20.1315
Au 30.2082 19.7162 17.6207
Au 29.9434 21.1199 15.059
Au 29.6288 22.1752 12.2547
Au 29.2192 23.3047 9.71383
Au 31.1585 12.3284 27.1016
Au 30.9376 13.4736 24.386
Au 30.8157 14.7791 21.6237
Au 30.171 15.9133 18.8834
Au 29.8206 17.1529 16.2296
Au 29.61 18.1708 13.6519
Au 29.4787 19.5937 11.1607
Au 29.0318 20.5341 8.38049
Au 31.2376 9.74027 25.8257
Au 31.0471 10.7869 23.0279
Au 30.4795 11.9802 20.6221
Au 30.4598 13.1796 17.7307
Au 29.8514 14.294 15.0001
Au 29.6555 15.6453 12.5273
Au 29.354 16.8284 9.8668
Au 28.9105 17.7269 7.23584
Au 28.567 8.79634 25.5689
Au 28.1356 9.80798 23.0148
Au 27.8289 11.0902 20.399
Au 27.7217 12.3157 17.722
Au 27.0892 13.5688 15.2086
Au 26.8069 14.7634 12.2838
Au 26.642 16.0723 9.56181
Au 26.3294 16.9977 6.83905
Au 25.7745 7.66481 25.4616
Au 25.4096 8.94711 23.0034
Au 25.2435 10.3947 20.4331
Au 24.7807 11.4679 17.7186
Au 24.4405 12.7573 14.8747
Au 24.1125 14.0541 12.2307
Au 23.8449 15.0183 9.65705
Au 23.6363 16.1025 6.98847
Au 22.8076 6.94757 25.1378
Au 22.5865 8.08657 22.79
Au 22.3821 9.57248 20.2418
Au 21.9846 10.7211 17.6474
Au 21.6844 11.9027 14.7511
Au 21.5138 13.2624 12.112
Au 21.0541 14.3252 9.48288
Au 20.764 15.471 6.82217
Au 20.0929 6.46063 25.1837
Au 19.7207 7.41153 22.5546
Au 19.8635 8.75531 20.0663
Au 19.1493 9.78976 17.5464
Au 19.0474 11.007 14.6216
Au 18.8258 12.2599 12.137
Au 18.3464 13.3366 9.25261
Au 17.9403 14.6795 7.01235
Au 17.2879 5.71162 25.0618
Au 16.8846 6.75242 22.4799
Au 16.7452 7.95666 19.9778
Au 16.5068 9.14694 17.4033
Au 16.3609 10.1733 14.6448
Au 15.8004 11.3963 11.9511
Au 15.6677 12.548 9.35916
Au 15.4858 13.8056 7.00345
Au 15.6367 7.53033 26.3267
Au 15.3396 8.72789 23.7153
Au 14.9849 9.83434 21.1309
Au 15.0463 11.2722 18.6551
Au 14.5949 12.3901 15.9162
Au 14.2297 13.5293 13.1105
Au 13.89 14.7248 10.3894
Au 13.6765 15.8863 7.76174
Au 14.248 9.73034 27.5834
Au 13.6705 10.8277 25.13
Au 13.7072 11.9344 22.3179
Au 13.2779 13.2672 19.5631
Au 12.9393 14.4322 16.9006
Au 12.8155 15.7993 14.291
Au 12.2933 16.7856 11.3775
Au 11.9962 18.0328 8.9867
Au 12.0105 11.9149 28.5628
Au 11.929 13.0615 26.1683
Au 12.0339 14.0551 23.3093
Au 11.6538 15.4075 20.6013
Au 11.3469 16.4873 17.9574
Au 11.118 17.808 15.3365
Au 10.7486 18.9903 12.5461
Au 10.2106 20.1227 9.957
Au 10.497 14.161 29.8143
Au 10.363 15.2157 27.0139
Au 10.2215 16.5277 24.3679
Au 9.91662 17.6349 21.7429
Au 9.78246 18.7661 19.0285
Au 9.35294 19.9151 16.4828
Au 9.09398 21.05 13.8956
Au 8.74864 22.3501 11.2489
Au 6.7382 16.8816 29.4629
Au 6.26308 18.0073 26.8481
Au 5.88645 19.2249 24.265
Au 5.66106 20.3215 21.6465
Au 5.29096 21.4144 19.0201
Au 5.1368 22.636 16.3713
Au 4.95254 23.654 13.9092
Au 8.3845 19.1496 30.4093
Au 7.68583 20.0683 27.8345
Au 7.80153 21.1751 25.0278
Au 7.36823 22.3442 22.5603
Au 7.09637 23.6751 19.8521
Au 6.72227 24.8707 17.1475
Au 6.36243 25.9592 14.6369
Au 9.99026 21.3751 31.1882
Au 9.49438 22.1574 28.6221
Au 9.35925 23.4977 26.1516
Au 9.09132 24.5544 23.5462
Au 8.84166 25.841 20.8019
Au 8.56693 27.0631 18.2095
Au 8.31543 28.1954 15.6736
Au 11.7648 23.0987 32.3053
Au 11.345 24.3891 29.7023
Au 10.975 25.6108 26.8813
Au 10.943 26.5685 24.1767
Au 10.7378 27.9696 21.455
Au 10.2276 29.3226 18.9757
Au 10.0693 30.3023 16.4113
Au 13.2883 25.2694 32.8596
Au 13.1227 26.6589 30.4605
Au 12.8836 27.6045 27.7509
Au 12.6664 28.9339 25.0226
Au 12.2678 30.1683 22.3995
Au 12.0023 31.3306 19.854
Au 11.7538 32.3695 17.1274
Au 15.3061 27.7805 33.7868
Au 15.0236 28.7389 31.1689
Au 14.7728 29.685 28.6315
Au 14.4515 31.1503 25.9654
Au 13.9572 32.0843 23.3451
Au 13.9528 33.2751 20.7534
Au 13.5875 34.6015 18.0581
Au 17.2297 29.6333 34.1042
Au 16.7622 30.8425 31.9826
Au 16.5478 31.8992 29.3562
Au 16.2171 33.1709 26.6531
Au 15.8991 34.2719 23.9061
Au 15.8104 35.6183 21.5447
Au 15.2845 36.5971 18.8718
Au 19.8346 28.9267 33.6514
Au 19.4184 30.0621 31.2282
Au 19.2164 31.3029 28.6465
Au 18.9514 32.5643 25.9822
Au 18.8065 33.5239 23.3671
Au 18.4499 34.8625 20.6586
Au 18.0176 36.0318 18.0234
Au 22.3889 28.1728 33.3046
Au 21.9711 29.2954 30.5183
Au 22.0488 30.4723 27.925
Au 21.3574 31.6456 25.4025
Au 21.3845 32.6483 22.8116
Au 21.1165 33.8622 19.9308
Au 20.8479 35.0478 17.3453
Au 24.8885 27.5888 32.4322
Au 24.6442 28.7164 29.8067
Au 24.6744 29.6395 27.1276
Au 24.2542 30.7263 24.5619
Au 24.0804 32.0857 22.0676
Au 24.0718 33.2194 19.3675
Au 23.4952 34.1792 16.9067
Au 27.7162 26.643 31.8783
Au 27.659 27.8214 29.2744
Au 27.4575 28.8099 26.4863
Au 27.0727 30.1389 23.9751
Au 26.8981 31.4258 21.5821
Au 26.5672 32.728 18.7826
Au 26.0856 33.6184 16.0821
Au 30.5776 25.6785 31.3
Au 30.2941 26.9504 28.9241
Au 30.081 27.928 26.114
Au 29.7272 29.1883 23.2072
Au 29.5943 30.6739 20.7659
Au 29.3724 31.9176 18.051
Au 29.0486 33.1856 15.3941
Au 33.3296 24.9697 30.4439
Au 32.9594 26.1379 28.1801
Au 32.8239 27.3062 25.2338
Au 32.7069 28.6425 22.674
Au 32.3876 30.0219 20.1429
Au 32.1525 30.9906 17.62
Au 31.6359 32.3006 15.0967
Au 33.3483 22.2635 29.6019
Au 33.1913 23.2721 26.9428
Au 32.5939 24.8582 24.1718
Au 32.5551 26.0929 21.5705
Au 32.2531 27.248 18.7933
Au 31.8926 28.4662 16.2904
Au 31.7298 29.7744 13.7337
Au 33.1023 19.4166 28.4335
Au 32.8816 20.671 25.8568
Au 32.5687 22.0714 23.1363
Au 32.3059 23.3932 20.3855
Au 31.9772 24.6509 17.6536
Au 31.8061 25.7957 15.081
Au 31.3867 26.7417 12.2872
Au 32.8276 17.043 27.2914
Au 32.8714 18.1482 24.6413
Au 32.5056 19.4802 21.9325
Au 32.2538 20.679 19.2225
Au 31.9888 21.6426 16.601
Au 31.8124 23.0489 13.7906
Au 31.5776 24.2482 11.3511
Au 33.0279 14.402 26.1192
Au 32.9049 15.3964 23.5923
Au 32.448 16.7366 20.6272
Au 32.173 17.7955 17.8943
Au 31.863 19.0725 15.4587
Au 31.6754 20.4234 12.7425
Au 31.209 21.5023 10.1376
Au 32.9566 11.7448 24.9847
Au 32.7113 12.6906 22.1926
Au 32.4081 14.0303 19.3019
Au 32.0746 15.1594 16.7994
Au 31.7377 16.353 14.2236
Au 31.5006 17.6696 11.5523
Au 31.0551 18.8085 8.94675
Au 33.0132 9.14266 23.7313
Au 32.9006 10.1994 21.0077
Au 32.522 11.074 18.2078
Au 32.1305 12.5782 15.4286
Au 31.6551 13.7039 12.9244
Au 31.4828 14.9143 10.5194
Au 30.9148 16.105 7.95555
Au 30.3699 8.22669 23.4842
Au 30.0393 9.23237 20.8689
Au 29.7557 10.4152 18.3184
Au 29.3861 11.7011 15.4733
Au 29.0402 12.8553 12.7239
Au 28.713 13.8922 10.1914
Au 28.3294 15.1659 7.7074
Au 27.5753 7.03526 23.4262
Au 27.3273 8.26457 20.8069
Au 26.7477 9.53815 18.2186
Au 26.4523 10.8255 15.6087
Au 26.2305 12.0049 12.9248
Au 26.0036 13.0777 10.1356
Au 25.612 14.2616 7.64897
Au 24.8369 6.19236 23.3103
Au 24.5543 7.48563 20.8247
Au 24.1396 8.71247 18.1672
Au 23.7513 10.0379 15.504
Au 23.5609 11.2235 12.7221
Au 23.1411 12.2382 10.1655
Au 22.8234 13.3865 7.62329
Au 21.7475 5.47433 23.1299
Au 21.6553 6.69591 20.6141
Au 21.2835 7.84447 18.0158
Au 21.0498 9.2139 15.4364
Au 20.7607 10.1745 12.5645
Au 20.4648 11.3634 9.83843
Au 20.114 12.6843 7.30809
Au 18.9188 4.69799 23.0568
Au 18.5788 5.67921 20.5377
Au 18.5604 7.11005 18.0314
Au 18.1787 8.30383 15.3073
Au 17.8843 9.44323 12.3835
Au 17.6635 10.5809 9.83284
Au 17.1091 11.774 7.29335
Au 16.3727 4.1082 22.7516
Au 15.6817 5.24862 20.384
Au 15.7059 6.32269 17.8042
Au 15.3545 7.35113 15.1333
Au 15.2209 8.48197 12.6293
Au 14.8055 9.77386 9.92139
Au 14.6472 11.0035 7.55083
Au 14.5303 6.00681 24.1657
Au 14.2251 7.24432 21.8142
Au 14.1266 8.44716 18.9508
Au 14.1373 9.71142 16.1302
Au 13.8525 10.784 13.6454
Au 13.2513 12.0218 10.8677
Au 13.082 13.1247 8.19381
Au 12.9561 8.32627 25.4627
Au 12.6003 9.23166 22.8163
Au 12.5183 10.5122 20.1673
Au 12.2456 11.653 17.5392
Au 12.0607 12.6934 14.6024
Au 11.8524 14.078 12.021
Au 11.4035 15.3273 9.28117
Au 11.425 10.2403 26.5961
Au 11.013 11.5791 24.0546
Au 11.1131 12.4637 21.2819
Au 10.718 13.8991 18.4138
Au 10.5339 14.9857 15.5353
Au 10.1693 16.1127 13.1421
Au 9.72088 17.2905 10.5763
Au 9.61786 12.5096 27.6686
Au 9.38928 13.7917 24.7515
Au 9.4931 14.79 22.2307
Au 8.99158 16.102 19.3959
Au 8.70027 17.1329 16.8188
Au 8.49608 18.4588 14.2309
Au 8.37699 19.5879 11.6473
Au 8.18508 14.6814 28.4502
Au 7.82116 15.8799 25.9467
Au 7.51431 17.0902 23.4771
Au 7.31339 18.1833 20.6225
Au 7.02847 19.346 18.0917
Au 6.6221 20.4575 15.2148
Au 6.62726 21.6326 12.8223
Au 4.20409 17.6502 28.4153
Au 3.43805 18.5118 25.683
Au 2.96125 19.6835 23.1667
Au 2.88461 20.8823 20.7018
Au 2.70467 21.7499 17.9832
Au 2.75027 22.9233 15.5654
Au 5.68365 19.4543 29.4279
Au 5.16318 20.7496 26.755
Au 4.94886 21.853 24.0444
Au 4.96041 23.0036 21.4577
Au 4.53158 24.0809 18.7857
Au 4.09458 25.2315 15.9546
Au 7.18392 21.8262 30.123
Au 7.05277 22.9203 27.6044
Au 6.70379 24.1007 24.77
Au 6.6358 25.1356 22.3443
Au 6.2005 26.2921 19.5919
Au 5.80176 27.3638 16.938
Au 8.97796 23.9548 31.0161
Au 8.85017 25.048 28.3886
Au 8.49146 26.1799 25.6441
Au 8.43912 27.4325 23.0275
Au 7.95823 28.6192 20.5739
Au 7.81127 29.7173 17.9462
Au 10.8707 25.9504 32.0102
Au 10.4888 27.2561 29.4113
Au 10.3447 28.2792 26.5758
Au 10.119 29.4709 23.9203
Au 9.60667 30.8305 21.2281
Au 9.39803 32.1404 18.6376
Au 12.6487 28.1862 32.7341
Au 12.4327 29.2151 30.1013
Au 12.2768 30.3779 27.2449
Au 11.7522 31.5973 24.8265
Au 11.3779 32.9283 22.1315
Au 11.322 34.0508 19.4983
Au 14.3774 30.457 33.4144
Au 14.2784 31.5027 30.8182
Au 13.9239 32.4841 28.3003
Au 13.5547 33.8204 25.9019
Au 13.3324 34.8529 23.1814
Au 13.1273 36.0308 20.4748
Au 16.5851 32.5927 33.8178
Au 16.1121 33.7097 31.1761
Au 15.6439 34.9071 28.9001
Au 15.2963 35.9838 26.4026
Au 15.3209 36.9696 23.9902
Au 14.9628 37.959 21.4468
Au 19.1421 31.699 33.4917
Au 18.8056 32.8455 30.95
Au 18.2554 34.2218 28.3351
Au 18.0466 35.1422 25.6965
Au 18.0493 36.3796 23.1122
Au 17.544 37.6122 20.312
Au 21.75 30.9671 33.1548
Au 21.4721 31.816 30.512
Au 21.051 33.0159 27.757
Au 20.9311 34.3636 24.865
Au 20.6333 35.6063 22.0959
Au 20.4644 36.6202 19.6553
Au 24.3366 30.2996 32.07
Au 24.2179 31.4187 29.5714
Au 23.6783 32.35 26.818
Au 23.4621 33.5649 24.2222
Au 23.2183 34.7215 21.7708
Au 22.8839 35.8724 19.0964
Au 26.961 29.2241 31.5285
Au 26.772 30.3419 28.7758
Au 26.4171 31.5742 26.3159
Au 26.2183 32.7872 23.7919
Au 26.1393 34.2282 21.0619
Au 25.9085 35.3493 18.3711
Au 29.6101 28.2134 31.2862
Au 29.493 29.62 28.3626
Au 29.2939 30.5976 25.7416
Au 28.9534 32.0838 23.3764
Au 28.7267 33.5377 20.3592
Au 28.635 34.6963 17.8649
Au 32.4866 27.5528 30.5074
Au 32.3412 28.7218 27.676
Au 31.9255 29.9922 25.1238
Au 31.6001 31.2248 22.5225
Au 31.5061 32.7072 19.8108
Au 31.1499 33.814 17.0917
Au 35.0731 26.772 29.5492
Au 35.1218 27.9645 26.959
Au 34.715 29.3371 24.3404
Au 34.5807 30.6467 21.857
Au 34.5366 31.8667 19.1583
Au 33.8428 32.8515 16.867
Au 35.0966 24.1265 28.5505
Au 34.8507 25.312 26.0897
Au 34.5941 26.7337 23.3528
Au 34.3909 27.8886 20.5503
Au 34.1636 29.0718 18.0441
Au 33.8358 30.3222 15.5527
Au 35.0539 21.3832 27.5222
Au 34.7286 22.6869 24.9061
Au 34.4882 23.9529 22.0465
Au 34.158 25.2072 19.5159
Au 34.0342 26.4071 16.861
Au 33.4546 27.7072 14.2096
Au 35.0746 18.9083 26.3386
Au 34.6363 20.0316 23.6502
Au 34.3755 21.2302 20.7658
Au 34.1286 22.542 18.2443
Au 33.7625 23.6694 15.5587
Au 33.7185 24.9271 13.1617
Au 34.9361 16.3814 25.2939
Au 34.5009 17.3187 22.5158
Au 34.1819 18.5382 19.7331
Au 34.1217 19.7618 17.1397
Au 33.7667 21.1218 14.4973
Au 33.4232 22.1523 11.8091
Au 34.8096 13.6462 24.037
Au 34.6779 14.7705 21.3682
Au 34.2546 15.9564 18.5201
Au 33.8908 17.154 15.8814
Au 33.5296 18.4707 13.1615
Au 33.3844 19.575 10.5705
Au 34.918 11.2426 22.9956
Au 34.5122 12.248 19.8283
Au 34.2478 13.2317 17.2504
Au 34.0711 14.4093 14.7284
Au 33.7516 15.7641 12.3503
Au 33.2686 16.9628 9.59485
Au 34.7457 8.66855 21.5577
Au 34.6894 9.36126 18.7537
Au 34.2537 10.5747 16.0394
Au 33.9191 11.8081 13.5068
Au 33.7691 13.1272 10.7966
Au 33.0938 14.5363 8.45576
Au 32.2142 7.43493 21.7218
Au 31.8084 8.53786 18.8629
Au 31.5143 9.96884 15.8975
Au 31.1962 10.9565 13.3449
Au 31.0399 12.0981 10.7345
Au 30.5736 13.3744 8.10788
Au 29.2323 6.4876 21.3724
Au 28.9698 7.61067 18.7458
Au 28.5184 9.07534 16.1371
Au 28.3508 10.2758 13.3677
Au 27.9639 11.2666 10.6801
Au 27.7568 12.5283 8.00566
Au 26.5796 5.5954 21.1179
Au 26.2759 6.61901 18.5665
Au 25.8382 8.0859 16.0582
Au 25.6423 9.35032 13.3846
Au 25.2754 10.3979 10.5957
Au 24.9784 11.5302 7.92881
Au 23.9399 4.83088 21.0027
Au 23.5356 6.08811 18.6017
Au 23.1164 7.46991 15.8452
Au 23.0905 8.66761 13.0944
Au 22.4412 9.5779 10.3964
Au 22.1171 10.5412 7.89774
Au 20.7817 3.93374 20.998
Au 20.6347 5.20718 18.6538
Au 20.2462 6.55829 15.7468
Au 19.9339 7.7911 13.2941
Au 19.6711 8.73745 10.1662
Au 19.4719 9.97306 7.57544
Au 18.0969 2.95921 20.8237
Au 17.7544 4.33533 18.3544
Au 17.4408 5.53286 15.8852
Au 17.3351 6.60851 12.9347
Au 17.0116 7.79945 10.2136
Au 16.9088 9.22639 7.59015
Au 15.3781 2.66329 20.3525
Au 15.148 3.54498 18.0307
Au 14.7198 4.76231 15.6016
Au 14.5714 5.64576 13.0462
Au 14.2637 6.89689 10.5179
Au 14.1708 7.99039 7.88958
Au 13.7029 4.53369 21.9533
Au 13.2907 5.87587 19.3083
Au 13.0828 6.90617 16.6737
Au 12.8928 7.86235 14.1752
Au 12.7918 9.15765 11.5791
Au 12.3006 10.4758 8.90342
Au 11.9998 6.58764 23.3549
Au 11.5578 7.74302 20.4837
Au 11.4521 9.01037 17.9493
Au 11.4692 10.0736 15.3205
Au 11.0388 11.3297 12.4968
Au 10.6332 12.5425 9.79806
Au 10.3662 8.7636 24.1573
Au 10.1118 9.89979 21.6564
Au 9.88238 11.1865 18.966
Au 9.72511 12.2456 16.3474
Au 9.5364 13.3509 13.4949
Au 9.08199 14.5816 11.0353
Au 8.81327 11.1091 25.3692
Au 8.54696 12.1948 22.7386
Au 8.41257 13.3086 20.1023
Au 8.26437 14.4762 17.3855
Au 7.91532 15.4724 14.5733
Au 7.48132 16.8744 12.1872
Au 7.2059 13.1961 26.3308
Au 6.95871 14.2658 23.6749
Au 6.9092 15.5524 21.2337