146
 Atoms. Timestep: 50000
Au 20.724 17.4539 26.8201
Au 20.7496 18.5532 24.2302
Au 20.6141 19.7773 21.6717
Au 20.0808 20.784 19.2367
Au 20.0115 22.2989 16.4249
Au 19.7593 23.3272 13.8389
Au 18.406 17.9035 25.6558
Au 18.1518 19.0394 23.3544
Au 17.9521 20.3287 20.6424
Au 17.6398 21.6645 17.9007
Au 17.5141 22.8529 15.288
Au 20.241 20.2938 26.5747
Au 19.9416 21.268 24.1467
Au 19.6796 22.483 21.5214
Au 19.3936 23.8095 18.6588
Au 19.2274 24.9826 16.0982
Au 22.7313 19.4104 25.936
Au 22.6529 20.4785 23.5758
Au 22.4104 21.5999 20.6757
Au 22.1504 22.8027 18.0315
Au 21.8308 24.1441 15.5336
Au 22.7499 16.7967 24.9237
Au 22.6092 17.8073 22.4894
Au 22.3133 18.8373 19.6468
Au 22.0053 20.2348 16.9775
Au 21.8413 21.838 14.3251
Au 20.0806 15.9057 24.8596
Au 19.6619 16.9011 22.2586
Au 19.4911 18.1448 19.5424
Au 19.3153 19.5341 16.7317
Au 18.9291 20.6549 14.344
Au 15.8745 18.6742 24.6656
Au 15.4758 19.8236 22.2195
Au 15.2851 20.9043 19.6137
Au 15.1843 22.228 17.085
Au 17.6588 20.895 25.6901
Au 17.4082 21.6927 23.034
Au 17.1947 23.1308 20.2768
Au 17.0214 24.4845 17.6226
Au 19.4326 22.8007 26.3601
Au 19.0249 24.041 23.7449
Au 18.9321 25.2341 21.1361
Au 18.8863 26.4133 18.4717
Au 22.2192 22.0163 25.7219
Au 21.9379 23.1994 23.2315
Au 21.5359 24.4635 20.4318
Au 21.4896 25.6027 17.9088
Au 24.9344 21.181 25.0476
Au 24.5408 22.4382 22.3032
Au 24.1649 23.8001 19.7332
Au 24.1614 24.7363 16.9128
Au 24.8521 18.5483 24.0918
Au 24.3788 19.6896 21.4125
Au 24.2219 21.0503 18.6593
Au 24.1857 22.22 16.0651
Au 24.6589 16.0913 22.8702
Au 24.4364 17.1656 20.3083
Au 23.9897 18.4966 17.6396
Au 23.9304 19.7884 15.0547
Au 21.8515 15.2432 22.7107
Au 21.5392 16.2228 20.2463
Au 21.2084 17.5838 17.2588
Au 21.0873 18.8739 14.6995
Au 19.1117 14.1737 22.6526
Au 18.8957 15.3359 20.0633
Au 18.575 16.6384 17.2511
Au 18.4363 17.8423 14.8306
Au 17.4211 16.268 23.7373
Au 17.2484 17.4271 21.2333
Au 16.9961 18.8658 18.4484
Au 16.7596 20.2662 15.9649
Au 13.5643 19.2423 23.659
Au 12.9078 20.2864 21.073
Au 12.7632 21.4327 18.6416
Au 15.1374 21.4315 24.5967
Au 14.895 22.6447 21.8669
Au 14.6737 23.5992 19.2309
Au 16.6489 23.512 25.2704
Au 16.5583 24.556 22.5109
Au 16.2465 25.7709 19.8696
Au 18.6431 25.563 26.0063
Au 18.2813 26.7742 23.6266
Au 18.1923 27.7967 21.014
Au 21.3287 24.6501 25.5313
Au 21.0806 25.8443 22.7018
Au 20.7711 27.3885 20.1372
Au 24.041 23.9139 24.724
Au 23.8439 24.9674 22.0593
Au 23.5154 26.3263 19.4892
Au 26.6339 23.1792 23.8891
Au 26.4936 24.4579 21.5801
Au 26.1758 25.2728 18.9233
Au 26.658 20.3336 23.1509
Au 26.3158 21.7301 20.3041
Au 26.2135 22.9234 17.7495
Au 26.5002 18.0055 21.7475
Au 26.196 19.3432 19.214
Au 26.2081 20.483 16.5308
Au 26.5102 15.4418 20.5821
Au 26.2915 16.7372 18.0835
Au 25.6661 17.8829 15.6911
Au 23.8936 14.4994 20.8613
Au 23.3358 15.8425 18.1434
Au 23.0765 17.0745 15.157
Au 20.9838 13.565 20.6364
Au 20.8295 15.0371 17.934
Au 20.3277 15.9899 14.9862
Au 18.2185 12.8722 20.3723
Au 17.8283 13.7186 17.6391
Au 17.5817 15.2609 15.274
Au 16.5062 14.7696 21.5613
Au 16.4303 15.921 18.9376
Au 16.1654 17.3125 16.2528
Au 14.9697 16.8895 22.5044
Au 14.5492 18.0479 19.9111
Au 14.51 19.4965 17.3546
Au 12.5966 21.8412 23.4146
Au 12.4651 22.9358 20.8323
Au 14.1019 23.9758 23.9917
Au 14.1028 25.2049 21.4316
Au 15.8737 25.9308 24.6127
Au 15.8823 27.2974 22.3249
Au 20.5225 27.0117 25.054
Au 20.292 28.4215 22.7663
Au 23.1361 26.5084 24.4504
Au 22.8339 27.5584 21.8975
Au 25.7442 25.8278 23.9322
Au 25.5215 26.7981 21.2477
Au 28.2993 22.1705 21.7877
Au 28.1838 23.7405 19.5723
Au 28.4179 19.7591 20.9241
Au 28.0727 21.1305 18.6004
Au 28.2713 17.3994 19.9115
Au 28.1483 18.9029 17.5154
Au 25.6231 14.1095 18.7258
Au 25.102 15.3403 16.0757
Au 22.9835 13.3148 18.5082
Au 22.4658 14.2425 16.008
Au 20.1332 12.5652 18.2413
Au 20.0102 13.5565 15.8299
Au 15.6269 13.4748 19.2708
Au 15.3148 14.6808 16.8467
Au 13.9158 15.3534 20.3441
Au 13.9022 16.8484 17.7442
Au 12.6161 17.6868 21.6066
Au 12.3428 18.8328 18.8976
