1415
 Atoms. Timestep: 50000
Au 22.3007 12.4338 38.3577
Au 22.0151 13.2005 35.9003
Au 21.5327 14.4862 33.4302
Au 21.4468 15.7005 30.8282
Au 21.298 16.755 28.2979
Au 21.0007 17.9127 25.7626
Au 20.8305 19.1233 23.0735
Au 20.4147 20.288 20.4117
Au 20.2233 21.4925 17.7739
Au 19.8575 22.8959 15.2332
Au 19.5646 23.9277 12.5445
Au 19.3434 25.2767 9.95787
Au 19.0192 26.383 7.186
Au 19.0776 27.2616 4.55196
Au 18.6955 28.4808 2.28162
Au 19.7938 12.8025 37.4966
Au 19.3676 13.8878 35.0977
Au 19.0427 15.0482 32.434
Au 19.028 16.1688 29.8237
Au 18.7553 17.3998 27.2434
Au 18.4325 18.7417 24.588
Au 18.3957 19.9138 22.0188
Au 17.8266 20.8978 19.37
Au 17.63 22.1484 16.715
Au 17.231 23.3338 14.135
Au 17.0397 24.4832 11.6449
Au 16.8474 25.6752 8.75489
Au 16.4762 26.8776 6.08486
Au 16.3241 27.8039 3.67032
Au 21.4265 14.9349 38.2566
Au 21.3726 16.1481 35.7305
Au 20.9526 17.3269 33.0283
Au 20.7083 18.3683 30.6197
Au 20.4649 19.6408 28.0915
Au 20.0608 20.7591 25.4067
Au 19.8775 21.9562 22.7276
Au 19.6887 23.1506 20.1499
Au 19.2449 24.154 17.6323
Au 18.9899 25.5537 14.8215
Au 18.7441 26.8327 12.2992
Au 18.4412 28.0018 9.68162
Au 18.2711 28.9797 7.03071
Au 17.9951 30.0167 4.58103
Au 24.1136 14.0432 37.491
Au 23.9 15.2563 35.0305
Au 23.6334 16.4031 32.7618
Au 23.4353 17.7182 30.1066
Au 23.1615 18.679 27.3271
Au 22.9452 19.9059 24.8121
Au 22.5627 21.0351 22.0255
Au 22.2678 22.2472 19.4898
Au 22.0146 23.5645 16.9252
Au 21.7559 24.8582 14.2253
Au 21.5673 25.9253 11.589
Au 21.2383 26.9693 8.86619
Au 21.0479 28.5643 6.25604
Au 20.7275 29.4922 3.69451
Au 23.9186 11.2771 36.6377
Au 24.0859 12.6627 33.9375
Au 23.7122 13.7891 31.4441
Au 23.262 15.0433 28.816
Au 23.0674 16.0921 26.2394
Au 22.8778 17.3651 23.7558
Au 22.5876 18.4396 21.0804
Au 22.1264 19.5278 18.2659
Au 21.8951 20.8947 15.4762
Au 21.6287 21.9985 13.0663
Au 21.3848 23.2113 10.5576
Au 21.0863 24.3288 7.77791
Au 21.0904 25.7129 5.35331
Au 20.8631 26.9365 2.64964
Au 21.0349 10.5819 36.6088
Au 20.8543 11.7099 33.9783
Au 20.905 12.893 31.3504
Au 20.5128 13.8729 28.7003
Au 20.3233 15.1913 26.3042
Au 20.042 16.5282 23.5434
Au 19.6553 17.6489 20.8172
Au 19.3536 18.7647 18.1775
Au 19.2511 19.9728 15.683
Au 18.9997 21.3195 12.8641
Au 18.7559 22.3363 10.2544
Au 18.4582 23.5574 7.67037
Au 18.1159 24.5115 5.08697
Au 18.0648 25.6465 2.64359
Au 17.3157 13.3251 36.4208
Au 16.8055 14.6025 33.9215
Au 16.4214 15.6225 31.4155
Au 16.4276 16.8316 28.8183
Au 16.1532 18.1589 26.1069
Au 15.9532 19.3451 23.3374
Au 15.5573 20.6448 20.8749
Au 15.4194 21.5648 18.2721
Au 15.0326 22.5489 15.6918
Au 14.7293 23.8015 13.0839
Au 14.4676 25.1053 10.5112
Au 14.1579 26.2999 7.74108
Au 14.066 27.2489 5.08666
Au 18.7958 15.2656 37.3894
Au 18.6962 16.6777 34.9118
Au 18.2516 17.9067 32.0859
Au 18.0049 18.9345 29.5905
Au 17.8958 20.1538 26.98
Au 17.5439 21.419 24.3293
Au 17.2793 22.637 21.5963
Au 17.0733 23.6663 19.1791
Au 16.764 24.8947 16.3887
Au 16.2538 26.0553 13.6639
Au 16.0103 27.0895 10.9581
Au 15.912 28.5919 8.29741
Au 15.4473 29.4018 5.81319
Au 20.4427 17.5943 37.8617
Au 20.4249 18.8702 35.5629
Au 20.235 19.9815 32.9389
Au 19.7136 21.1348 30.2781
Au 19.5863 22.3764 27.5741
Au 19.4959 23.4969 24.9439
Au 18.9071 24.7886 22.4957
Au 18.7337 25.9144 19.7528
Au 18.2669 27.1533 17.258
Au 17.9605 28.2412 14.5231
Au 17.818 29.3859 11.9415
Au 17.583 30.6659 9.30186
Au 17.3178 31.4898 6.7378
Au 23.4826 16.8028 37.4507
Au 23.0704 18.1597 34.9401
Au 22.9091 19.2673 32.4445
Au 22.5059 20.3074 29.6579
Au 22.4332 21.5558 27.0651
Au 22.1782 22.6734 24.4794
Au 21.7112 23.7382 22.0212
Au 21.5323 25.0755 19.1645
Au 20.932 26.3807 16.7926
Au 20.8379 27.4078 14.0344
Au 20.7542 28.595 11.0995
Au 20.3828 29.8233 8.6075
Au 20.0436 30.9915 6.10885
Au 26.2414 16.1265 36.9207
Au 25.8541 17.2762 34.2517
Au 25.6757 18.4577 31.626
Au 25.3736 19.535 28.8945
Au 24.9765 20.8369 26.4854
Au 24.9279 21.7912 23.7211
Au 24.2331 22.8016 21.0785
Au 24.1544 24.1945 18.7311
Au 23.7599 25.4369 16.0437
Au 23.4996 26.8434 13.2758
Au 23.3159 27.9736 10.7033
Au 23.1727 29.1346 8.01176
Au 23.0076 30.2706 5.61766
Au 26.0385 13.2265 35.5898
Au 25.8741 14.6474 33.2619
Au 25.5317 15.864 30.6834
Au 25.1974 16.9326 27.9447
Au 25.04 18.1558 25.2998
Au 24.7974 19.2439 22.6148
Au 24.3857 20.306 19.9136
Au 24.0182 21.4292 17.3007
Au 23.6695 22.7509 14.7085
Au 23.4837 24.0088 12.0605
Au 23.5085 25.3589 9.44284
Au 23.2559 26.3788 6.85899
Au 23.0233 27.6838 4.38003
Au 25.7729 10.6317 34.4569
Au 25.7037 11.9668 32.005
Au 25.4497 13.277 29.4011
Au 25.2668 14.3264 26.887
Au 24.7862 15.4528 24.2648
Au 24.4477 16.6459 21.66
Au 24.139 17.7037 18.9418
Au 23.8168 18.7934 16.1552
Au 23.8457 20.2014 13.4458
Au 23.4299 21.5247 10.8392
Au 23.1937 22.2853 8.19909
Au 23.0872 23.7133 5.79836
Au 22.8916 25.1616 3.52683
Au 22.9419 10.0984 34.4652
Au 22.9135 10.9317 31.7991
Au 22.8361 12.2279 29.3793
Au 22.3797 13.3816 26.7477
Au 22.1157 14.5984 23.9928
Au 21.772 15.8345 21.3735
Au 21.3913 16.8561 18.7984
Au 21.1915 18.0375 16.158
Au 21.1972 19.2788 13.4117
Au 20.7952 20.4877 10.7773
Au 20.5362 21.6077 8.08162
Au 20.3503 22.8264 5.6231
Au 20.1692 24.1296 3.20849
Au 20.0391 9.30079 34.1803
Au 20.1077 10.1807 31.62
Au 19.825 11.2282 29.1108
Au 19.5472 12.4482 26.4066
Au 19.4721 13.7814 23.809
Au 18.893 14.8657 21.2469
Au 18.6253 16.0499 18.7016
Au 18.3986 17.2514 15.9969
Au 18.2619 18.6358 13.4383
Au 17.9894 19.5352 10.7649
Au 17.7641 20.848 8.01782
Au 17.6305 21.76 5.42583
Au 17.3414 23.0165 3.02409
Au 18.4389 10.9631 35.581
Au 18.2718 12.4465 32.9333
Au 18.2764 13.5453 30.3415
Au 17.8635 14.6318 27.8208
Au 17.5487 15.9257 24.9199
Au 17.337 17.1475 22.4659
Au 17.0546 18.2326 19.8174
Au 16.8249 19.3517 17.1409
Au 16.5045 20.6335 14.4607
Au 16.4302 21.6611 11.8742
Au 15.9244 23.0082 9.38627
Au 15.7724 24.0175 6.59871
Au 15.563 25.0483 3.98027
Au 14.3631 13.6616 35.4992
Au 14.0338 14.7183 33.0816
Au 14.0583 16.381 30.227
Au 13.8225 17.5504 27.566
Au 13.6448 18.7426 24.8284
Au 13.337 19.8084 22.3292
Au 12.8498 20.9585 19.6961
Au 12.6641 22.0688 17.1723
Au 12.3501 23.114 14.434
Au 12.1205 24.3126 11.9204
Au 11.7997 25.6964 9.22671
Au 11.5776 26.7544 6.5642
Au 16.0571 15.9532 36.3363
Au 15.9916 17.1594 33.7105
Au 15.5111 18.4355 31.1133
Au 15.4694 19.7309 28.5307
Au 15.2217 20.8823 25.8216
Au 14.8862 22.0459 23.3599
Au 14.6411 23.1806 20.642
Au 14.3812 24.2771 17.8752
Au 14.034 25.2716 15.359
Au 13.6243 26.6282 12.58
Au 13.5282 28.0789 9.72276
Au 13.1822 28.8555 7.15732
Au 17.9723 18.1788 36.9344
Au 17.6925 19.402 34.5299
Au 17.4862 20.6236 31.9609
Au 17.1748 21.7554 29.3644
Au 16.9449 23.0517 26.5366
Au 16.5472 24.143 24.0211
Au 16.4967 25.3589 21.4288
Au 16.0854 26.4516 18.9328
Au 15.7278 27.4453 16.1256
Au 15.3988 28.7415 13.3513
Au 15.2276 30.1018 10.9897
Au 14.932 31.0867 8.18217
Au 19.8065 20.2174 37.9167
Au 19.5301 21.4947 35.275
Au 19.4821 22.701 32.6724
Au 18.9928 23.7551 30.0363
Au 18.7213 25.0617 27.2264
Au 18.2772 26.3073 24.8087
Au 18.2025 27.4272 22.2301
Au 17.934 28.6238 19.5032
Au 17.5669 29.9291 16.9078
Au 17.0668 30.9905 14.2616
Au 16.8876 32.0111 11.7761
Au 16.7279 33.145 9.06515
Au 22.5992 19.4068 37.4044
Au 22.1722 20.8827 35.0075
Au 22.1424 21.7878 32.0542
Au 21.6481 23.0847 29.5684
Au 21.6874 24.1562 26.9696
Au 21.1828 25.3561 24.4727
Au 20.8763 26.6985 21.8077
Au 20.5713 27.7654 19.1042
Au 20.3008 28.9824 16.2883
Au 19.7822 30.1731 13.5877
Au 19.6909 31.3533 11.0069
Au 19.5343 32.5082 8.55307
Au 25.3932 18.7524 36.7915
Au 24.9505 20.0343 34.2426
Au 24.7293 21.1017 31.3752
Au 24.4449 22.3052 28.887
Au 24.2756 23.4278 26.0824
Au 23.9711 24.4939 23.3961
Au 23.6062 25.8596 20.9965
Au 23.3841 26.9747 18.4134
Au 22.9958 28.2059 15.7236
Au 22.6621 29.4039 12.991
Au 22.3943 30.6859 10.2914
Au 22.1468 31.8682 7.83232
Au 27.8575 17.986 35.7071
Au 27.5883 19.1699 33.2745
Au 27.4587 20.2684 30.6337
Au 27.2691 21.5239 28.0814
Au 26.911 22.6689 25.4647
Au 26.6718 23.7811 22.8186
Au 26.3897 24.8768 20.3475
Au 26.0447 26.0641 17.6583
Au 25.6913 27.406 15.1026
Au 25.3601 28.6876 12.4778
Au 25.3423 29.7347 9.56462
Au 24.8969 31.1574 7.07189
Au 28.0282 15.282 34.7484
Au 27.8319 16.5512 32.3064
Au 27.4421 17.6878 29.6803
Au 27.3435 18.7661 26.9132
Au 27.0613 20.0505 24.4383
Au 26.544 21.1694 21.6208
Au 26.2791 22.1339 18.9867
Au 25.9514 23.3438 16.4875
Au 25.4974 24.7131 13.9875
Au 25.4795 25.9433 11.3494
Au 25.3261 27.1141 8.53808
Au 25.0733 28.2867 6.0188
Au 27.8075 12.5535 33.4754
Au 27.7927 14.0308 31.1476
Au 27.4727 15.0589 28.3906
Au 27.1393 16.0585 25.7485
Au 26.9591 17.4618 23.3094
Au 26.55 18.5558 20.4867
Au 26.1723 19.6066 17.8505
Au 25.8211 20.8115 15.2998
Au 25.683 22.2869 12.6044
Au 25.4733 23.3481 9.93837
Au 25.3253 24.5105 7.41282
Au 25.0127 25.7354 4.90265
Au 27.6486 10.0387 32.3746
Au 27.3887 11.1517 29.9109
Au 27.277 12.3493 27.3279
Au 26.9951 13.4471 24.7941
Au 26.6098 14.9604 22.1094
Au 26.3606 16.0345 19.4398
Au 26.1212 17.0098 16.8398
Au 25.749 18.1508 14.1621
Au 25.4925 19.4781 11.4477
Au 25.3598 20.6242 8.79894
Au 25.089 21.8704 6.20229
Au 24.9336 22.9372 3.7541
Au 24.8641 9.16319 32.4152
Au 24.7809 10.2192 29.7658
Au 24.4612 11.6112 27.2398
Au 24.1238 12.7518 24.6854
Au 23.9747 13.8837 22.0951
Au 23.6328 14.9239 19.3738
Au 23.3645 16.1032 16.7282
Au 23.0423 17.2049 14.0229
Au 22.7424 18.4703 11.4114
Au 22.5871 19.7061 8.63337
Au 22.4093 20.8438 6.04194
Au 22.172 22.2834 3.56935
Au 22.0515 8.38994 32.2062
Au 21.8222 9.2675 29.634
Au 21.8274 10.5974 27.285
Au 21.375 11.7168 24.5554
Au 21.3439 13.0326 21.7995
Au 20.7455 14.2036 19.2617
Au 20.4842 15.3398 16.3969
Au 20.1489 16.6079 13.8087
Au 20.0245 17.7105 11.3266
Au 19.7074 18.9324 8.5969
Au 19.6932 19.9625 5.6547
Au 19.446 21.3446 3.4389
Au 19.4413 7.60176 32.0208
Au 18.9593 8.61093 29.4788
Au 18.8732 9.72658 26.86
Au 18.5786 11.1008 24.3277
Au 18.3935 12.0937 21.6872
Au 18.1051 13.1754 19.0219
Au 17.576 14.5125 16.4731
Au 17.5698 15.9457 13.7472
Au 17.1839 16.8409 11.2797
Au 16.943 17.8227 8.61295
Au 16.7261 19.2216 6.01511
Au 16.5931 20.2845 3.31639
Au 17.5454 9.74772 33.1109
Au 17.5124 10.9268 30.5637
Au 17.2922 12.1269 28.0832
Au 17.1006 13.2948 25.4174
Au 16.6005 14.3189 22.8411
Au 16.4882 15.4247 20.2732
Au 16.0187 16.5385 17.7724
Au 15.7821 17.7191 15.0587
Au 15.6091 19.0829 12.26
Au 15.4379 20.2474 9.79893
Au 15.1226 21.421 7.21517
Au 14.9144 22.2813 4.37289
Au 15.9947 11.8123 34.3353
Au 15.7589 12.7522 31.7773
Au 15.5257 14.1198 29.1554
Au 15.3386 15.4182 26.3907
Au 14.9868 16.3744 23.9202
Au 14.8091 17.79 21.499
Au 14.6002 18.794 18.8219
Au 14.2388 19.8932 16.2115
Au 13.9231 20.9703 13.6037
Au 13.7271 22.3074 10.8381
Au 13.3493 23.3353 8.14891
Au 13.276 24.6398 5.64669
Au 11.6874 14.3071 34.4981
Au 11.6556 15.3849 31.802
Au 11.4283 16.7069 28.9495
Au 11.1488 18.0485 26.3906
Au 10.8337 19.1597 23.8721
Au 10.6655 20.4586 21.1776
Au 10.0846 21.6491 18.6511
Au 10.1529 22.6168 16.0761
Au 9.82915 23.6793 13.5166
Au 9.68949 24.879 10.9043
Au 9.34443 25.878 8.16936
Au 13.6685 16.2384 35.1987
Au 13.3589 17.6395 32.7461
Au 13.1232 19.0359 29.9597
Au 13.0282 20.2022 27.3788
Au 12.6504 21.3051 24.7073
Au 12.3676 22.4993 21.9559
Au 12.0375 23.711 19.4063
Au 11.7238 24.6204 16.8475
Au 11.465 25.9849 14.2837
Au 11.1018 27.1119 11.6167
Au 10.9361 28.3384 8.86918
Au 15.4238 18.6821 35.9528
Au 15.1726 19.8979 33.6291
Au 14.989 21.1325 31.0593
Au 14.7079 22.3374 28.3091
Au 14.358 23.6856 25.7756
Au 13.9841 24.6166 22.833
Au 13.8045 25.7649 20.3369
Au 13.3677 26.8475 17.6954
Au 13.2125 27.9851 14.9976
Au 12.7368 29.339 12.2851
Au 12.6327 30.5686 9.87791
Au 17.1595 21.082 36.6985
Au 16.8567 22.1981 34.3452
Au 16.7669 23.1689 31.7998
Au 16.3226 24.4577 28.9368
Au 16.1149 25.8898 26.4404
Au 15.8036 26.935 23.7483
Au 15.5246 28.1875 21.3207
Au 15.2016 29.0848 18.3976
Au 14.7657 30.242 15.735
Au 14.4121 31.5753 13.1867
Au 14.3887 32.8619 10.7102
Au 18.7249 23.0043 37.4304
Au 18.5772 24.2738 34.9959
Au 18.4825 25.4671 32.355
Au 18.2572 26.5067 29.5203
Au 18.0101 27.887 27.0956
Au 17.7465 29.0904 24.678
Au 17.401 30.1219 21.9434
Au 16.9142 31.1348 19.3554
Au 16.7921 32.6085 16.5716
Au 16.3283 33.841 14.0036
Au 16.1973 34.6405 11.5911
Au 21.4516 22.1542 37.2821
Au 21.657 23.6084 34.3453
Au 21.1981 24.6946 31.6612
Au 20.9284 25.9454 29.0454
Au 20.6592 26.9175 26.6022
Au 20.2908 28.1498 24.0453
Au 20.1459 29.6366 21.3211
Au 19.748 30.489 18.6961
Au 19.3511 31.7476 16.0494
Au 19.0888 33.0089 13.5021
Au 18.7346 34.0227 10.9163
Au 24.4328 21.2575 36.5192
Au 24.3789 22.734 33.6437
Au 23.9486 23.8072 31.1237
Au 23.6679 25.1417 28.4333
Au 23.4343 26.2687 25.7989
Au 23.1275 27.3429 23.3003
Au 22.7261 28.585 20.8778
Au 22.5032 29.6152 18.1832
Au 21.9717 31.0608 15.3415
Au 21.8028 32.2661 12.8096
Au 21.6746 33.3562 10.2845
Au 27.2261 20.6949 35.7857
Au 27.0899 21.8521 33.0831
Au 26.6857 23.1525 30.5181
Au 26.2438 24.2465 27.9063
Au 26.1633 25.4498 25.2622
Au 25.7686 26.6177 22.6963
Au 25.4606 27.6311 20.0424
Au 25.241 28.869 17.4045
Au 24.7744 30.0462 14.8144
Au 24.2854 31.2761 12.1473
Au 24.4832 32.4338 9.53592
Au 30.0967 20.2252 34.7408
Au 29.6449 21.0085 32.2868
Au 29.2641 22.2033 29.5275
Au 29.0268 23.3748 27.097
Au 28.7497 24.7908 24.51
Au 28.5185 25.7099 21.9256
Au 28.1851 26.8549 19.3082
Au 27.9474 27.9269 16.5588
Au 27.4974 29.0926 14.1331
Au 27.2712 30.56 11.4345
Au 27.2222 31.6528 9.11668
Au 29.7627 17.3823 33.8838
Au 29.6979 18.3616 31.2636
Au 29.4381 19.5365 28.616
Au 29.2016 20.804 26.102
Au 28.7075 21.8604 23.2458
Au 28.6436 23.0513 20.5572
Au 28.2349 24.2853 18.1262
Au 27.8767 25.2692 15.5153
Au 27.6101 26.6204 12.9703
Au 27.4221 27.8277 10.2432
Au 27.0798 29.1423 7.59956
Au 29.9713 14.6424 32.7912
Au 29.7066 15.773 30.2054
Au 29.2927 16.8234 27.5936
Au 29.1179 18.0339 24.8456
Au 28.7543 19.2232 22.1769
Au 28.4506 20.3706 19.556
Au 28.2017 21.6319 16.9422
Au 27.8607 22.6713 14.3116
Au 27.5095 24.1897 11.8547
Au 27.5201 25.2187 9.22912
Au 27.1859 26.4564 6.58983
Au 29.787 11.9547 31.7752
Au 29.5246 13.0329 29.1345
Au 29.2994 14.1359 26.3647
Au 29.1202 15.4069 23.7476
Au 28.693 16.6924 21.0189
Au 28.3345 17.8127 18.3762
Au 27.9186 19.0355 15.8166
Au 27.5744 20.1766 13.1463
Au 27.5022 21.4736 10.6125
Au 27.3727 22.586 7.9163
Au 27.1004 23.6597 5.33592
Au 29.56 9.16093 30.471
Au 29.4807 10.459 27.9485
Au 29.0393 11.6719 25.1599
Au 28.6879 13.1157 22.4712
Au 28.5418 14.0481 19.8247
Au 28.0683 14.9721 17.4109
Au 27.5736 16.1809 14.8267
Au 27.455 17.443 12.1649
Au 27.3484 18.673 9.62162
Au 27.1982 19.8765 6.80264
Au 26.8417 21.0246 4.28352
Au 26.9379 8.49394 30.1156
Au 26.5944 9.56034 27.7333
Au 26.2016 10.6939 25.0669
Au 26.033 12.1747 22.6404
Au 25.8513 13.1921 19.9323
Au 25.4998 14.3837 17.2965
Au 24.8881 15.3109 14.4789
Au 24.8008 16.7573 11.9086
Au 24.6248 17.7893 9.13269
Au 24.3775 18.8139 6.53821
Au 24.2094 20.2061 3.9943
Au 24.0798 7.70228 30.0973
Au 23.9756 8.71927 27.5893
Au 23.5716 10.0147 24.9853
Au 23.3621 11.2557 22.3992
Au 22.8963 12.2119 19.6025
Au 22.5539 13.4999 17.0889
Au 22.1349 14.5175 14.5621
Au 22.0748 15.8277 11.8628
Au 21.9145 16.9546 9.06204
Au 21.6846 18.0933 6.36049
Au 21.4794 19.3834 3.6672
Au 21.2969 6.59566 30.0583
Au 21.0528 7.65212 27.605
Au 20.6935 9.02828 24.8993
Au 20.4391 10.2862 22.4068
Au 20.3266 11.4864 19.622
Au 19.8584 12.5504 16.898
Au 19.5125 13.7733 14.2107
Au 19.2814 14.925 11.6101
Au 19.0621 16.1898 8.96622
Au 18.8987 17.297 6.29116
Au 18.6551 18.3684 3.69311
Au 18.5404 5.77916 30.0453
Au 18.1493 7.01419 27.3134
Au 18.1972 8.30923 24.7244
Au 17.6514 9.48567 22.2801
Au 17.2954 10.5978 19.5107
Au 16.9911 11.7675 16.7231
Au 16.6691 13.1653 14.2613
Au 16.529 14.0412 11.6889
Au 16.2355 15.2351 9.21263
Au 15.9158 16.4837 6.34162
Au 15.87 17.6061 3.918
Au 16.8398 8.03094 30.8962
Au 16.5444 9.32497 28.4784
Au 16.379 10.4611 25.8876
Au 15.9815 11.5938 23.2818
Au 15.6416 12.6217 20.6779
Au 15.3807 13.7254 18.1145
Au 14.9613 15.0163 15.4154
Au 14.9377 16.1241 12.8825
Au 14.7059 17.4425 10.1876
Au 14.2579 18.4982 7.57409
Au 14.2464 19.7051 5.04057
Au 15.1248 10.1521 32.1886
Au 14.8643 11.2214 29.5514
Au 14.6696 12.5593 26.9527
Au 14.2766 13.5766 24.4078
Au 13.9573 14.8194 21.6706
Au 13.6976 16.0149 19.3988
Au 13.4862 17.1835 16.7418
Au 13.2717 18.2397 13.9917
Au 13.174 19.5667 11.1923
Au 12.717 20.796 8.7278
Au 12.7803 21.8477 5.9724
Au 13.281 11.9621 33.1861
Au 13.2065 13.1881 30.7207
Au 13.0404 14.6052 28.0904
Au 12.5966 15.7854 25.5618
Au 12.2082 17.024 22.8431
Au 12.0693 18.0526 20.3992
Au 11.8686 19.187 17.7688
Au 11.7197 20.4413 15.2411
Au 11.2744 21.5898 12.4192
Au 11.1636 22.8754 9.728
Au 10.9182 23.9615 7.12968
Au 9.29788 14.9709 33.1147
Au 9.14178 15.8331 30.4425
Au 8.88143 17.1244 27.7631
Au 8.69781 18.6284 25.4054
Au 8.28761 19.9587 22.859
Au 7.9379 21.0078 20.2188
Au 7.60852 22.1363 17.5856
Au 7.52045 23.1646 15.1178
Au 7.40946 24.2161 12.3163
Au 7.09025 25.3237 9.97619
Au 10.9733 16.892 34.0828
Au 10.8623 17.9426 31.361
Au 10.5883 19.5422 28.9771
Au 10.277 20.7393 26.3005
Au 10.1197 21.7518 23.6741
Au 9.78241 23.2692 21.1532
Au 9.21218 24.3026 18.4826
Au 9.12169 25.3621 15.9091
Au 8.8198 26.4881 13.1255
Au 8.5896 27.5464 10.477
Au 12.6964 19.05 34.8704
Au 12.7166 20.3415 32.3443
Au 12.2916 21.7182 29.6228
Au 12.1625 22.844 27.0107
Au 11.8472 24.0607 24.5564
Au 11.4398 25.419 21.9319
Au 11.13 26.3248 19.2705
Au 10.9009 27.5589 16.5839
Au 10.482 28.7112 14.0283
Au 10.3449 29.7407 11.2092
Au 14.4718 21.3723 35.9362
Au 14.2185 22.6975 33.2358
Au 14.0497 23.6987 30.5088
Au 13.628 25.2134 27.9076
Au 13.1807 26.3314 25.3251
Au 13.1144 27.4856 22.7447
Au 13.005 28.6623 20.0563
Au 12.5816 29.5909 17.3076
Au 12.2194 30.8378 14.7715
Au 11.8506 31.9834 12.0597
Au 16.2813 23.6313 36.7086
Au 15.8995 24.822 33.8821
Au 15.8764 25.8944 31.225
Au 15.5028 27.063 28.7807
Au 15.2602 28.3058 25.956
Au 15.1179 29.6797 23.5537
Au 14.7306 30.7737 20.7675
Au 14.3433 31.7567 18.0245
Au 13.9185 33.0647 15.5155
Au 13.6211 34.3107 12.9233
Au 18.2713 25.6544 37.2172
Au 17.892 26.926 34.758
Au 17.8089 28.242 31.8907
Au 17.2957 29.3592 29.3381
Au 17.0804 30.5334 26.8528
Au 16.9562 31.7404 24.1824
Au 16.4624 32.9219 21.5166
Au 16.2326 33.9252 18.9828
Au 15.8287 35.3669 16.3917
Au 15.56 36.595 13.8438
Au 20.9367 24.6837 36.6471
Au 20.5381 26.0826 34.0401
Au 20.419 27.4568 31.2854
Au 20.1046 28.7345 28.9249
Au 19.9335 29.8774 26.2579
Au 19.6116 31.025 23.6607
Au 19.1324 32.2725 21.151
Au 18.8939 33.1308 18.4494
Au 18.4839 34.6602 15.7998
Au 18.0747 35.5482 13.2093
Au 23.6751 23.9788 36.1276
Au 23.5749 25.3604 33.4464
Au 23.1315 26.7053 30.8206
Au 22.8732 28.0775 28.215
Au 22.5238 28.975 25.5831
Au 22.2515 30.2649 23.0887
Au 21.8985 31.3745 20.4347
Au 21.7308 32.5106 17.7492
Au 21.1097 33.8839 15.0909
Au 20.8138 34.8546 12.566
Au 26.3667 23.1383 35.5955
Au 26.3946 24.6482 32.9648
Au 25.8304 25.7208 30.2682
Au 25.5646 27.0398 27.5674
Au 25.2977 28.283 25.1606
Au 25.0885 29.2821 22.4935
Au 24.6661 30.4091 19.755
Au 24.3853 31.5842 17.1791
Au 23.8896 32.8521 14.4888
Au 23.603 33.9925 11.9665
Au 29.0035 22.8043 34.7899
Au 28.9147 23.6153 32.1417
Au 28.4151 24.9354 29.474
Au 28.2311 26.239 26.9378
Au 27.9614 27.5847 24.3317
Au 27.6592 28.4831 21.6114
Au 27.3605 29.6148 19.1735
Au 26.9054 30.8286 16.515
Au 26.6264 31.9362 13.9811
Au 26.393 33.0418 11.2057
Au 31.7054 22.16 33.7032
Au 31.3798 23.1374 31.1705
Au 31.0986 24.2345 28.6127
Au 30.8225 25.608 25.9739
Au 30.6733 26.5704 23.546
Au 30.3291 27.5844 20.9407
Au 29.9554 28.7829 18.3367
Au 29.5747 29.9138 15.6588
Au 29.4275 31.1208 13.1615
Au 29.1083 32.5915 10.7534
Au 31.8503 19.0815 32.9741
Au 31.4414 20.4104 30.3548
Au 31.1877 21.4997 27.6046
Au 30.9178 22.74 24.9717
Au 30.6585 23.8281 22.4567
Au 30.4051 24.9726 19.8176
Au 30.1532 26.0533 17.173
Au 29.8376 27.3829 14.6226
Au 29.5704 28.5207 12.0273
Au 29.2223 29.8356 9.46791
Au 31.7443 16.5984 32.0343
Au 31.4683 17.7744 29.159
Au 31.0735 18.7945 26.418
Au 31.0066 20.2085 23.8618
Au 30.7572 21.1069 21.1607
Au 30.3652 22.2439 18.6371
Au 30.1927 23.55 16.0722
Au 29.9737 24.7264 13.6767
Au 29.7014 26.0384 10.9
Au 29.2741 27.3187 8.26448
Au 31.6273 13.8842 30.6325
Au 31.5437 14.9553 28.0199
Au 31.168 16.0341 25.3833
Au 30.7258 17.3745 22.6733
Au 30.6897 18.7635 20.0693
Au 30.4464 19.4973 17.3666
Au 29.9849 20.7992 15.0203
Au 29.8295 22.1767 12.4245
Au 29.4492 23.42 9.77392
Au 29.1782 24.3934 7.09933
Au 31.5484 11.0299 29.5768
Au 31.3952 12.1742 27.0344
Au 31.0158 13.6281 24.2848
Au 30.9845 14.9071 21.5199
Au 30.8415 16.1254 18.9466
Au 30.0119 16.9776 16.2501
Au 29.6206 18.3869 13.8994
Au 29.4068 19.559 11.2668
Au 29.3951 20.7933 8.40197
Au 29.2787 21.7852 5.76914
Au 31.5654 8.63225 28.3332
Au 31.202 9.69964 25.7915
Au 30.7357 10.9456 23.1055
Au 30.6097 12.3246 20.4412
Au 30.3411 13.3761 17.6934
Au 29.6757 14.3737 15.1222
Au 29.3494 15.618 12.7107
Au 29.4102 16.7475 10.1141
Au 29.1481 18.089 7.56114
Au 28.8588 19.0194 4.85136
Au 28.6982 7.77926 28.1179
Au 28.345 8.82974 25.7008
Au 28.193 10.0478 22.9732
Au 27.8721 11.3548 20.5563
Au 27.4816 12.3789 17.7429
Au 27.0444 13.4962 15.0423
Au 26.7337 14.6171 12.4236
Au 26.7566 15.8204 9.99477
Au 26.5449 17.0895 7.25551
Au 26.2904 18.3072 4.54824
Au 25.8552 6.69337 28.2696
Au 25.5899 7.90621 25.5807
Au 25.35 9.27078 22.9065
Au 25.1291 10.5686 20.3174
Au 24.8089 11.6149 17.7785
Au 24.3044 12.4752 14.8208
Au 23.8882 13.7811 12.1752
Au 23.9176 15.0028 9.74216
Au 23.3714 16.1467 6.99914
Au 23.3853 17.3709 4.33601
Au 23.1658 5.96217 27.9385
Au 22.775 7.15119 25.446
Au 22.5446 8.39775 22.7533
Au 22.3495 9.47026 20.2594
Au 21.9631 10.7269 17.3903
Au 21.6243 11.7878 14.6214
Au 21.3119 12.9211 12.1451
Au 21.106 14.2693 9.45501
Au 20.7067 15.4548 6.81482
Au 20.683 16.7404 4.1133
Au 20.239 5.09209 27.927
Au 20.1604 6.42444 25.2182
Au 19.6938 7.64953 22.4633
Au 19.4636 8.75509 19.8621
Au 19.1447 9.92426 17.4194
Au 18.871 11.0834 14.6891
Au 18.6075 12.1258 12.1135
Au 18.4481 13.3534 9.37919
Au 18.1353 14.5233 6.85727
Au 17.8229 15.6835 4.32452
Au 17.2624 4.53064 27.7967
Au 17.3161 5.50205 25.1463
Au 16.916 6.8266 22.5675
Au 16.6101 8.04517 19.7313
Au 16.486 9.09234 17.215
Au 16.0734 10.26 14.6214
Au 15.6446 11.3393 12.1921
Au 15.7025 12.5127 9.70608
Au 15.475 13.7564 6.83515
Au 15.4355 14.7589 4.33535
Au 15.7594 6.71219 28.7911
Au 15.6332 7.66844 26.017
Au 15.4227 8.74691 23.6723
Au 14.9974 9.90306 21.0414
Au 14.7613 11.0157 18.426
Au 14.3138 12.3355 15.6793
Au 14.01 13.3631 13.1985
Au 13.9604 14.593 10.7188
Au 13.6492 15.8234 7.87871
Au 13.4833 17.1318 5.24152
Au 14.1281 8.66913 29.9312
Au 13.8198 9.78486 27.3391
Au 13.488 10.7781 24.7509
Au 13.3346 12.131 22.1626
Au 13.0379 13.1175 19.6066
Au 12.9147 14.4579 16.9249
Au 12.5101 15.6982 14.4097
Au 12.3475 16.8422 11.7152
Au 11.8978 17.9633 9.17768
Au 11.721 19.0236 6.53775
Au 12.5814 10.5186 31.1535
Au 12.1029 11.75 28.5922
Au 11.9216 12.8522 25.6753
Au 11.5981 14.2264 23.3338
Au 11.2744 15.1696 20.8122
Au 10.9832 16.5051 18.1431
Au 10.9599 17.7243 15.5547
Au 10.6577 18.8843 12.8003
Au 10.3852 20.1544 10.2444
Au 10.1623 21.079 7.62233
Au 10.8247 12.8706 32.1914
Au 10.6452 13.8114 29.5929
Au 10.3562 14.8886 26.8716
Au 9.73893 16.2048 24.4902
Au 9.70936 17.6141 21.7838
Au 9.62834 18.8349 19.1638
Au 9.28237 19.9314 16.5873
Au 9.04661 21.0437 13.9738
Au 8.83713 22.1519 11.1653
Au 8.66236 23.1309 8.73115
Au 6.71716 15.6224 31.8597
Au 6.56961 16.6582 29.1946
Au 6.20679 17.9199 26.7319
Au 5.89364 19.3065 24.2159
Au 5.52201 20.3128 21.6793
Au 5.31192 21.5454 19.0872
Au 5.06749 22.5481 16.3918
Au 5.1688 23.6071 13.8733
Au 4.76168 24.6506 11.3703
Au 8.53764 17.5029 32.9618
Au 8.30814 18.7751 30.3818
Au 8.09404 20.1536 27.8482
Au 7.4351 21.4622 25.1844
Au 7.33625 22.5706 22.6151
Au 6.98349 23.6624 19.9017
Au 6.64949 24.8089 17.2803
Au 6.58851 25.7776 14.664
Au 6.36978 26.9059 12.0477
Au 10.4403 19.7248 33.7919
Au 10.2011 20.9201 31.3208
Au 9.75218 22.4324 28.7398
Au 9.46916 23.4266 26.0865
Au 9.13536 24.5723 23.5836
Au 8.81222 25.7982 20.9296
Au 8.56446 27.0296 18.1217
Au 8.14788 27.9416 15.5872
Au 7.83316 29.057 12.8273
Au 11.9795 21.8472 34.6039
Au 11.6169 23.2739 31.956
Au 11.4031 24.5532 29.4033
Au 11.0077 25.5895 26.8057
Au 10.6154 26.9509 24.3723
Au 10.6141 27.9627 21.6639
Au 10.3226 29.0671 19.0432
Au 10.0261 30.1723 16.4
Au 9.65234 31.221 13.8627
Au 13.7957 24.0402 35.5811
Au 13.3831 25.5564 32.5941
Au 13.1495 26.7184 30.2201
Au 12.8409 27.8214 27.5675
Au 12.3545 28.9815 25.0129
Au 12.4749 30.1275 22.3369
Au 12.0265 31.5604 19.743
Au 11.749 32.4593 17.1595
Au 11.3336 33.6405 14.4053
Au 15.6281 26.2485 36.2823
Au 15.2981 27.5581 33.5321
Au 15.0343 28.8724 30.9389
Au 14.7765 29.9871 28.3168
Au 14.3771 31.0711 25.6823
Au 14.1454 32.5461 23.1546
Au 13.8628 33.6807 20.551
Au 13.6029 34.6375 18.0231
Au 13.3367 35.6969 15.1908
Au 17.5578 28.4869 36.7596
Au 17.3192 29.5511 34.2102
Au 17.2509 30.9526 31.677
Au 16.4938 32.0362 29.2345
Au 16.1293 33.1264 26.4973
Au 15.977 34.4559 24.1235
Au 15.7996 35.3928 21.5102
Au 15.2747 36.4003 18.9843
Au 14.7557 37.7336 16.4993
Au 20.1871 27.4662 36.2444
Au 19.8983 28.7789 33.6664
Au 19.7914 30.1783 31.1878
Au 19.3682 31.4418 28.5156
Au 19.0687 32.8586 25.9794
Au 18.8994 33.782 23.3483
Au 18.3988 35.0628 20.738
Au 17.9561 36.0258 18.1776
Au 17.6531 37.4291 15.3699
Au 22.7611 26.8656 35.672
Au 22.57 28.0004 33.1505
Au 22.6145 29.5282 30.6136
Au 22.0456 30.7312 28.0253
Au 21.8311 31.8733 25.4517
Au 21.5212 32.9401 22.6327
Au 21.0878 34.1007 20.0703
Au 20.7086 35.1833 17.4909
Au 20.3201 36.4871 14.8618
Au 25.4731 25.8627 35.3124
Au 25.3969 27.3817 32.5096
Au 25.0351 28.7226 29.9368
Au 24.5787 30.0247 27.2528
Au 24.5022 31.1239 24.6307
Au 24.1856 32.1104 21.85
Au 23.8132 33.2883 19.3876
Au 23.5122 34.5434 16.9154
Au 22.9604 35.5059 14.1184
Au 28.3857 25.3495 34.4513
Au 28.2093 26.3987 31.7714
Au 27.7038 27.853 29.4529
Au 27.6053 29.017 26.5683
Au 27.2093 30.271 24.2059
Au 26.7915 31.2762 21.5784
Au 26.4592 32.4348 18.994
Au 26.0259 33.6325 16.2797
Au 25.8067 34.7246 13.7748
Au 30.7582 24.6011 33.7829
Au 30.5928 25.8539 31.0998
Au 30.3375 26.9352 28.6687
Au 30.3058 28.1515 25.9758
Au 29.9423 29.3335 23.2005
Au 29.496 30.4566 20.8048
Au 29.1724 31.6877 18.3224
Au 28.8476 32.7324 15.6277
Au 28.3789 33.978 13.132
Au 33.2521 24.1729 32.6674
Au 33.2013 25.2751 30.1544
Au 33.1231 26.5924 27.6856
Au 32.8426 27.291 25.0796
Au 32.566 28.3402 22.5435
Au 32.149 29.6534 20.0834
Au 31.8067 30.6292 17.5969
Au 31.4333 31.8705 14.9557
Au 31.0145 33.3445 12.6805
Au 33.5421 21.4013 31.6461
Au 33.3488 22.4563 29.1646
Au 32.8876 23.8393 26.6411
Au 32.8571 24.6422 23.8448
Au 32.5897 25.6572 21.3475
Au 32.3097 27.0955 18.8452
Au 31.8455 28.2222 16.3449
Au 31.6056 29.4026 13.7883
Au 31.3161 30.4747 11.0993
Au 33.5371 18.6568 30.9256
Au 33.4223 19.7953 28.2225
Au 33.1276 21.0259 25.6192
Au 32.906 21.9644 23.0114
Au 32.6101 23.0862 20.3109
Au 32.3637 24.3886 17.7032
Au 32.302 25.6516 15.3497
Au 31.9969 26.7666 12.8128
Au 31.4381 27.8942 10.0472
Au 33.3366 16.0028 29.8805
Au 33.1814 17.0592 26.9906
Au 32.9661 18.2019 24.3921
Au 32.7238 19.3438 21.989
Au 33.0129 20.4026 19.3063
Au 32.5105 21.4921 16.6743
Au 32.113 22.8064 14.1576
Au 31.7958 24.1407 11.4102
Au 31.1717 25.3169 8.78326
Au 33.3109 12.9795 28.6513
Au 33.0863 14.2963 25.8896
Au 33.0964 15.5917 23.3737
Au 32.8018 16.7749 20.8057
Au 32.5868 17.9733 18.1097
Au 32.3368 18.9329 15.4284
Au 31.8175 20.1927 12.925
Au 31.4251 21.3571 10.3819
Au 31.1829 22.6665 7.7198
Au 33.5342 10.2474 27.4783
Au 33.0779 11.5967 24.9283
Au 32.8896 12.8973 22.2963
Au 32.7523 14.1472 19.5037
Au 32.2325 15.1273 16.7782
Au 31.8929 16.1782 14.2445
Au 31.6656 17.442 11.9244
Au 31.2849 18.7473 9.35028
Au 31.1127 19.9698 6.45027
Au 33.1838 7.83994 26.1907
Au 32.8265 9.22019 23.4444
Au 32.6273 10.2851 20.8391
Au 32.2906 11.505 18.2899
Au 32.0665 12.4616 15.603
Au 31.611 13.6561 13.182
Au 31.4583 14.9748 10.8489
Au 31.1577 15.9147 8.24894
Au 30.9001 17.3558 5.88209
Au 30.3917 7.03033 26.1684
Au 30.021 8.2003 23.4885
Au 30.0361 9.28427 20.7406
Au 29.6074 10.49 18.2297
Au 29.0959 11.6952 15.6231
Au 28.996 12.7463 12.9153
Au 28.7152 14.0166 10.375
Au 28.4969 15.3006 7.82712
Au 28.3285 16.3804 5.33244
Au 27.5156 6.14462 26.0207
Au 27.339 7.36595 23.2412
Au 27.2881 8.51424 20.7205
Au 26.8614 9.73052 18.2903
Au 26.4531 10.5797 15.578
Au 26.3146 11.6985 12.898
Au 25.8595 12.9584 10.3737
Au 25.6499 14.5167 7.75271
Au 25.2742 15.6645 5.12315
Au 24.8767 5.25635 25.8123
Au 24.5597 6.58555 23.312
Au 24.4093 7.57276 20.586
Au 24.1603 8.88474 17.9436
Au 23.7364 9.88775 15.3977
Au 23.5883 11.1054 12.6327
Au 23.1759 12.104 9.99059
Au 22.9482 13.5234 7.44828
Au 22.4968 14.7716 4.91392
Au 21.9785 4.52245 25.7138
Au 21.8709 5.76465 23.0451
Au 21.6419 6.73537 20.3651
Au 21.4092 7.84507 17.8509
Au 21.1212 9.09947 15.1432
Au 20.654 10.1025 12.5433
Au 20.5087 11.2683 10.0129
Au 20.2343 12.6179 7.301
Au 19.962 14.1577 4.71115
Au 19.3294 3.71508 25.857
Au 19.2181 4.96312 23.1739
Au 18.8279 6.03902 20.4988
Au 18.6025 7.16756 17.5923
Au 18.038 8.22297 14.9449
Au 18.0142 9.23342 12.3563
Au 17.7803 10.4537 9.91801
Au 17.5206 11.7542 7.36096
Au 17.3189 12.9577 4.87156
Au 16.1648 2.99833 25.5888
Au 16.3382 4.1949 22.9096
Au 16.1059 5.29114 20.3719
Au 15.9251 6.43413 17.688
Au 15.4163 7.36389 15.1209
Au 15.2429 8.63506 12.6705
Au 14.9748 9.8393 10.1395
Au 14.6079 11.0759 7.76355
Au 14.5716 12.1115 5.03632
Au 14.7821 5.02716 26.7262
Au 14.5066 6.30245 24.0234
Au 14.0405 7.22002 21.2938
Au 14.0164 8.29625 18.7514
Au 13.7557 9.28203 16.2319
Au 13.3506 10.6515 13.5165
Au 13.0143 11.9129 10.9862
Au 12.9177 13.1224 8.57222
Au 13.1329 14.4434 5.72614
Au 13.3777 7.0738 27.6381
Au 12.9279 8.28088 25.2028
Au 12.677 9.29196 22.5534
Au 12.3334 10.2332 19.8655
Au 12.0952 11.806 17.3167
Au 11.6765 12.9085 14.7973
Au 11.5327 14.0596 12.1891
Au 11.4016 15.1845 9.57598
Au 11.0919 16.4542 7.03064
Au 11.6967 9.00583 28.9075
Au 11.0832 10.3309 26.2717
Au 10.6626 11.3044 23.5531
Au 10.6823 12.5023 21.2223
Au 10.5567 13.7044 18.6328
Au 10.0477 14.9421 15.8951
Au 9.96135 16.2661 13.2255
Au 9.64904 17.4395 10.7178
Au 9.30191 18.5067 7.99278
Au 9.75457 11.2501 30.0488
Au 9.58776 12.2828 27.5659
Au 9.21591 13.4191 24.7652
Au 8.8645 14.5638 22.3075
Au 8.75447 15.8875 19.581
Au 8.43408 16.8916 17.082