19
 Atoms. Timestep: 50000
Au 18.019 21.3542 20.5773
Au 19.5127 23.5525 20.2808
Au 18.681 22.7266 22.7074
Au 18.3984 18.8088 21.2651
Au 20.6806 20.0958 20.1769
Au 21.3259 22.4055 21.6992
Au 20.111 17.3718 19.8577
Au 23.0794 20.2751 18.1599
Au 23.428 20.9973 20.5496
Au 18.6342 19.2598 18.5844
Au 21.4892 22.4245 19.1682
Au 21.4472 18.3288 17.9909
Au 20.5118 20.5691 17.1841
Au 18.7939 21.8901 18.27
Au 17.3749 20.576 22.9919
Au 19.9289 20.4119 22.9624
Au 22.8517 18.4382 20.3051
Au 22.3695 19.9753 22.5731
Au 20.8676 18.0438 22.201
