192
 Atoms. Timestep: 50000
Au 21.367 16.9135 28.2121
Au 20.9187 17.833 25.8587
Au 20.681 19.1402 22.9954
Au 20.3565 20.5311 20.3874
Au 20.3385 21.7346 17.7044
Au 19.9251 22.8287 15.0315
Au 19.7019 23.8439 12.5767
Au 18.4942 17.4363 27.3806
Au 18.4101 18.3682 24.8142
Au 17.9748 19.6824 21.9404
Au 17.7317 21.0751 19.4126
Au 17.6067 22.2195 16.7831
Au 17.4211 23.4204 14.0741
Au 20.2907 19.4695 27.9123
Au 20.0581 20.5928 25.3989
Au 19.8619 21.8018 22.931
Au 19.6623 23.2023 19.9137
Au 19.3132 24.659 17.4774
Au 19.2635 25.5012 14.8737
Au 22.8928 18.9707 27.1964
Au 22.7388 20.0321 24.6598
Au 22.5871 21.1907 22.0773
Au 22.3766 22.3933 19.4335
Au 22.0079 23.7123 16.804
Au 21.836 24.636 14.2241
Au 22.9442 16.1306 26.1724
Au 22.6687 17.3461 23.5631
Au 22.4114 18.5651 20.8358
Au 22.0922 19.7222 18.1507
Au 21.9166 21.071 15.5034
Au 21.7247 22.087 12.8492
Au 20.247 15.1127 25.9583
Au 20.0043 16.3339 23.4225
Au 19.7455 17.7724 20.8273
Au 19.4692 19.1221 18.2237
Au 18.9625 20.2176 15.5162
Au 18.8549 21.2224 12.969
Au 15.965 17.94 26.1085
Au 15.6785 18.991 23.4837
Au 15.5165 20.3195 20.9557
Au 15.1577 21.4726 18.2534
Au 15.2079 22.7277 15.7151
Au 17.6183 20.0805 26.8725
Au 17.4538 21.1564 24.3666
Au 17.3516 22.4676 21.6837
Au 17.01 23.8958 18.9625
Au 16.7162 24.9756 16.206
Au 19.4612 22.047 27.5465
Au 19.2001 23.3097 25.1528
Au 19.0729 24.4588 22.4612
Au 18.6735 26.0557 19.8454
Au 18.3702 27.2072 17.0738
Au 22.3403 21.5681 27.0538
Au 21.9594 22.6254 24.5721
Au 21.6805 23.8072 21.6694
Au 21.4084 25.1621 19.2394
Au 21.3612 26.3279 16.5646
Au 24.7901 20.8942 26.2985
Au 24.6466 22.0861 23.7689
Au 24.433 23.2127 21.1314
Au 24.3572 24.1739 18.4672
Au 24.0152 25.1418 15.8056
Au 24.7874 18.1358 25.3433
Au 24.5526 19.192 22.6898
Au 24.3663 20.6471 20.1027
Au 24.1633 21.5241 17.3258
Au 23.929 22.6708 14.4792
Au 24.7575 15.5828 24.0491
Au 24.2825 16.5982 21.3904
Au 24.2526 18.049 18.7673
Au 24.0626 19.0989 16.1882
Au 23.5579 20.1891 13.5136
Au 22.0997 14.6696 23.9933
Au 21.7009 15.671 21.2773
Au 21.5497 16.9805 18.6665
Au 21.1349 18.3112 16.0824
Au 20.8582 19.3969 13.3952
Au 19.1414 13.7945 23.8396
Au 18.9613 14.8728 21.2126
Au 18.8596 16.0815 18.5839
Au 18.5289 17.4628 16.0574
Au 18.0573 18.6394 13.4996
Au 17.7599 15.7686 25.2639
Au 17.5042 16.9374 22.4183
Au 17.1764 18.2473 19.7304
Au 16.8374 19.5017 17.1799
Au 16.4997 20.7541 14.4062
Au 13.5462 18.6232 24.994
Au 13.0846 19.6296 22.227
Au 12.7526 20.7983 19.9248
Au 12.7763 21.9218 17.2906
Au 15.1152 20.6499 26.0233
Au 15.0123 21.9819 23.3742
Au 14.8982 23.0358 20.6449
Au 14.5219 24.2921 17.7592
Au 16.7048 22.6807 26.5499
Au 16.6579 24.053 24.0698
Au 16.6312 25.3874 21.563
Au 16.2122 26.4604 18.6098
Au 18.463 24.4721 27.342
Au 18.5094 26.0335 24.6829
Au 18.2266 27.6532 22.213
Au 17.897 28.5318 19.4384
Au 21.2973 24.2131 26.9264
Au 21.2417 25.3247 24.29
Au 20.7828 26.5436 21.489
Au 20.6109 27.6732 18.8114
Au 23.9556 23.5796 26.2978
Au 23.6913 24.572 23.5619
Au 23.6159 25.7213 20.7572
Au 23.6645 26.7794 18.1443
Au 26.6511 22.629 25.3477
Au 26.5899 23.8706 22.9926
Au 26.448 24.9202 20.2116
Au 26.123 25.9469 17.7815
Au 26.6413 20.1804 24.2078
Au 26.4835 21.171 21.6607
Au 26.4533 22.3273 19.0158
Au 25.9909 23.3453 16.2429
Au 26.5854 17.5052 23.2487
Au 26.5426 18.5309 20.6324
Au 26.271 19.7089 18.1616
Au 25.9079 20.6745 15.0891
Au 26.4232 15.0129 21.9984
Au 26.3212 16.0204 19.3619
Au 25.909 16.9663 16.814
Au 25.6784 17.9727 14.1965
Au 23.8601 14.0113 22.0147
Au 23.4898 15.1031 19.2087
Au 23.196 16.4321 16.4991
Au 22.9532 17.4151 13.8643
Au 21.2827 13.0904 21.8289
Au 20.7764 14.2851 19.1162
Au 20.6173 15.5551 16.6381
Au 20.1443 16.5498 13.9501
Au 18.5314 12.3133 21.6618
Au 17.9685 13.2673 19.1143
Au 17.9379 14.4942 16.524
Au 17.4881 15.8171 14.3516
Au 16.8637 14.3503 22.8742
Au 16.5195 15.4167 20.1209
Au 16.3707 16.7074 17.5288
Au 15.8743 17.8537 14.9402
Au 15.2476 16.2879 24.1151
Au 15.0292 17.3756 21.3378
Au 14.5973 18.7311 18.8194
Au 14.4843 19.8593 15.9472
Au 12.9049 21.2333 24.7756
Au 12.6408 22.4192 22.0903
Au 12.4637 23.3347 19.4659
Au 14.2677 23.3117 25.6186
Au 14.1191 24.5996 22.7762
Au 14.1389 25.5654 20.1946
Au 16.1889 25.3541 26.2406
Au 16.0127 26.8772 23.5971
Au 15.7065 27.7822 20.8428
Au 20.2502 26.478 26.4337
Au 20.4022 27.9145 23.9508
Au 19.996 28.9847 21.1513
Au 23.0684 26.3785 25.6299
Au 23.0863 27.294 23.0664
Au 22.7033 28.2453 20.2854
Au 25.5976 25.1898 25.1994
Au 25.5749 26.4402 22.7098
Au 25.4174 27.442 20.1581
Au 28.3574 22.0837 23.3375
Au 28.4033 23.1872 20.9243
Au 27.9918 24.0951 18.2834
Au 28.4583 19.4314 22.3039
Au 28.4433 20.5548 19.8208
Au 27.8153 21.4365 16.9986
Au 28.365 16.7895 21.2921
Au 28.4242 18.0742 18.6205
Au 27.6772 18.9665 16.0656
Au 25.628 13.62 19.9673
Au 25.3349 14.4711 17.3223
Au 24.6294 15.364 14.8478
Au 23.0655 12.5089 19.5405
Au 22.649 13.6216 17.0457
Au 22.1271 14.5414 14.6017
Au 20.2055 11.8171 19.7293
Au 19.9593 12.8163 16.9542
Au 19.6333 14.0671 14.5786
Au 15.7609 12.9152 20.5085
Au 15.5048 13.9837 17.8271
Au 15.2831 15.2707 15.6243
Au 14.5075 14.8668 21.8284
Au 13.9788 15.9986 18.9614
Au 13.7182 17.27 16.5613
Au 12.8116 16.9874 22.8906
Au 12.5207 17.9379 20.2683
Au 12.2415 19.2357 17.7668
