19
 Atoms. Timestep: 50000
Au 18.1209 20.901 22.2866
Au 22.2106 18.8036 21.8417
Au 19.5028 18.747 22.8931
Au 21.7433 18.3584 18.8883
Au 21.5716 20.933 18.12
Au 20.1965 20.4406 20.5554
Au 20.5096 18.9846 16.7304
Au 20.612 21.2028 23.2071
Au 18.8432 20.362 18.0907
Au 22.2218 22.5072 20.1545
Au 20.0416 17.3966 20.9188
Au 21.5081 23.3747 22.4471
Au 17.7814 21.7767 19.9063
Au 19.9147 22.7695 18.6621
Au 19.1117 17.6941 18.6169
Au 23.2895 20.0521 20.0226
Au 22.946 21.1815 22.3949
Au 19.4328 23.018 21.2462
Au 17.9471 19.0017 20.5222
