20
 Atoms. Timestep: 50000
Au 18.7469 22.0192 20.9031
Au 16.8155 22.0502 19.3579
Au 22.2504 21.9404 18.4183
Au 18.1211 18.2334 23.166
Au 21.0136 20.5882 20.2501
Au 18.2306 20.0603 18.8123
Au 21.0815 22.3242 22.604
Au 17.1575 20.0708 21.4257
Au 19.5692 22.3854 18.4509
Au 22.0914 18.0924 20.4501
Au 19.6246 20.1687 22.8484
Au 20.7016 17.8213 22.66
Au 20.354 20.4073 17.0858
Au 19.0264 18.3009 20.8878
Au 23.8315 20.2217 20.0836
Au 23.1811 22.2778 21.137
Au 22.4324 19.9238 22.4497
Au 21.0501 23.5132 20.2866
Au 20.0864 18.2313 18.6221
Au 22.5342 19.2694 18.0005
