236
 Atoms. Timestep: 50000
Au 21.0415 17.5151 27.0559
Au 20.9442 18.6826 24.49
Au 20.5446 19.9353 21.7714
Au 20.2849 20.9505 19.0438
Au 20.0936 22.111 16.3957
Au 19.8152 23.3194 13.7323
Au 18.668 16.7097 28.2552
Au 18.5102 17.8788 25.8696
Au 18.2938 19.0117 23.3366
Au 17.9234 20.337 20.6218
Au 17.6628 21.4962 17.8259
Au 17.5125 22.7017 15.1162
Au 17.3005 24.0905 12.6488
Au 20.3266 18.6774 29.3014
Au 19.9835 20.145 26.9505
Au 19.7792 21.2516 24.1629
Au 19.6508 22.52 21.4133
Au 19.4281 23.6991 18.7671
Au 19.147 24.9194 16.0986
Au 19.0764 25.8535 13.5839
Au 22.9503 18.2323 28.7013
Au 22.9485 19.4025 26.2309
Au 22.8288 20.5878 23.4746
Au 22.518 21.6344 20.8049
Au 22.1285 22.8085 18.0747
Au 21.9608 23.9964 15.5849
Au 21.6583 25.2609 13.2036
Au 23.2795 15.9723 27.5076
Au 22.773 16.6606 24.9741
Au 22.6359 17.9894 22.2965
Au 22.2635 19.2671 19.4349
Au 21.9217 20.3265 16.8247
Au 21.776 21.3637 14.1028
Au 21.482 22.6847 11.9097
Au 20.5087 14.8619 27.3427
Au 20.0181 15.8614 24.7891
Au 19.9112 17.0502 22.1894
Au 19.5845 18.3248 19.5748
Au 19.325 19.4118 16.9542
Au 19.1665 20.5372 14.2294
Au 18.8112 21.891 11.7274
Au 16.1798 17.2828 27.4168
Au 15.8947 18.6197 24.9518
Au 15.6132 19.6215 22.3342
Au 15.0497 20.9167 19.5947
Au 15.0662 22.0309 16.8205
Au 15.121 23.2299 14.2139
Au 17.7905 19.18 28.3004
Au 17.5278 20.7664 25.6118
Au 17.098 21.7387 22.994
Au 17.1082 22.9549 20.119
Au 16.6744 24.242 17.4701
Au 16.5159 25.4209 14.912
Au 19.7542 21.6378 29.0381
Au 19.4096 22.886 26.3978
Au 19.0757 24.006 23.6373
Au 18.8141 25.3396 21.0835
Au 18.6841 26.4822 18.3793
Au 18.4002 27.449 15.8736
Au 22.2046 20.7834 28.4507
Au 21.9539 21.9432 25.7755
Au 21.7031 23.0886 23.1248
Au 21.6196 24.3665 20.425
Au 21.3258 25.5361 17.6117
Au 21.1327 26.9229 15.1805
Au 24.9758 20.365 27.8273
Au 24.7198 21.2207 25.2251
Au 24.7955 22.4839 22.5026
Au 24.3234 23.5714 19.8655
Au 24.2093 24.7615 17.3526
Au 23.5531 26.0489 14.8283
Au 25.1157 17.5618 26.8064
Au 24.8793 18.577 24.1432
Au 24.6271 19.7464 21.2989
Au 24.3201 21.0007 18.7045
Au 24.0129 22.0033 15.9899
Au 23.6155 23.3063 13.4574
Au 25.0365 15.0867 25.5367
Au 24.8378 16.1419 22.9699
Au 24.4792 17.3289 20.1482
Au 24.1424 18.3342 17.5241
Au 23.95 19.5029 14.7661
Au 23.6619 20.7296 12.2093
Au 22.3851 14.1351 25.4204
Au 21.9889 15.358 22.7118
Au 21.688 16.5713 20.1241
Au 21.4458 17.5876 17.5203
Au 21.2392 18.5854 14.5319
Au 20.9101 19.8537 12.1643
Au 19.6927 13.2038 25.1455
Au 19.1644 14.3653 22.4459
Au 18.8851 15.7415 19.9317
Au 18.6153 16.4833 17.3784
Au 18.448 17.9255 14.8582
Au 18.1784 18.9707 12.3639
Au 17.8358 15.0502 26.4
Au 17.5377 16.3187 23.8642
Au 17.1731 17.6223 21.2276
Au 16.9625 18.785 18.5041
Au 16.7928 20.0142 15.7294
Au 16.4073 20.9667 13.0348
Au 13.7678 18.1063 26.3181
Au 13.1541 19.201 23.8044
Au 12.9659 20.3062 21.1757
Au 12.5339 21.4497 18.7856
Au 12.5491 22.5659 16.2143
Au 15.4574 20.3587 27.2414
Au 14.9713 21.3573 24.6367
Au 14.6803 22.5485 21.9981
Au 14.3903 23.5666 19.1517
Au 14.162 24.6902 16.5609
Au 17.1677 22.1805 28.1117
Au 16.9876 23.4055 25.1815
Au 16.6093 24.5184 22.5619
Au 16.1501 25.6321 19.8289
Au 16.0408 26.9526 17.4624
Au 18.7424 24.4192 28.501
Au 18.5248 25.758 25.8656
Au 18.4275 26.8245 23.2271
Au 18.0119 28.0382 20.5821
Au 17.7325 28.9921 18.1473
Au 21.4416 23.6377 28.1253
Au 21.1458 24.7988 25.3406
Au 21.0908 25.9478 22.566
Au 20.7371 27.1039 19.9625
Au 20.4161 28.436 17.5063
Au 23.9319 22.8369 27.5731
Au 23.8943 23.967 24.7218
Au 23.7372 25.1367 22.1631
Au 23.4697 26.3233 19.6031
Au 23.0393 27.606 17.0134
Au 26.8512 22.0048 26.8064
Au 26.907 23.2097 24.3126
Au 26.5016 24.505 21.7171
Au 26.2318 25.6692 19.1226
Au 26.0243 26.675 16.7552
Au 26.9292 19.5505 25.9373
Au 26.6794 20.5084 23.2151
Au 26.4258 21.4764 20.4698
Au 25.98 22.8375 17.8227
Au 25.7279 24.2821 15.219
Au 26.9391 16.947 24.6061
Au 26.5285 17.8069 21.9043
Au 26.4251 19.0111 19.208
Au 26.0664 20.0365 16.6454
Au 25.7502 21.6528 13.9686
Au 26.676 14.326 23.0217
Au 26.6939 15.3133 20.5553
Au 26.4253 16.5151 17.892
Au 25.9695 17.5529 15.3199
Au 25.5174 18.8549 12.7849
Au 24.0508 13.3817 23.1629
Au 23.9191 14.7324 20.5804
Au 23.578 15.5802 17.8803
Au 23.1395 16.7861 15.3901
Au 22.9647 17.9458 12.5124
Au 21.4254 12.5973 23.0599
Au 21.1188 13.814 20.4008
Au 20.9323 14.7783 17.8053
Au 20.4452 16.0105 15.0838
Au 20.0794 17.1908 12.5495
Au 18.4957 11.9181 22.8716
Au 18.347 12.9273 20.183
Au 17.5741 13.9426 17.8034
Au 17.612 15.0188 15.0166
Au 17.2277 16.3965 12.7692
Au 16.8973 13.7088 24.2232
Au 16.7528 14.9405 21.4582
Au 16.3277 16.1142 18.9252
Au 16.1937 17.2747 16.1475
Au 15.7747 18.4858 13.7203
Au 15.2209 15.995 25.4702
Au 14.8924 16.9994 22.8132
Au 14.6121 18.1991 20.1003
Au 14.4537 19.3767 17.3769
Au 14.2131 20.5797 14.7802
Au 12.9797 20.8991 26.178
Au 12.6426 21.8674 23.5066
Au 12.2939 23.3052 21.0076
Au 11.9553 24.0791 18.5033
Au 14.5834 22.8979 26.9568
Au 14.3466 23.9825 24.3767
Au 13.9886 25.3011 21.5339
Au 13.5829 26.2735 18.7797
Au 16.2311 24.877 27.1698
Au 15.9984 26.0563 24.7925
Au 15.7765 27.0265 22.233
Au 15.4353 28.1855 19.6897
Au 20.8028 26.2148 27.4767
Au 20.5768 27.3898 24.8339
Au 20.3418 28.5547 22.1567
Au 19.8907 29.6981 19.7305
Au 23.3303 25.5857 26.9671
Au 23.1864 26.7251 24.4075
Au 23.0359 28.0222 21.6573
Au 22.5512 28.9904 19.4188
Au 25.793 24.4178 26.487
Au 25.6761 25.7995 24.1028
Au 25.4808 27.0194 21.2774
Au 25.1619 27.916 18.6827
Au 28.7001 21.3508 24.6511
Au 28.1864 22.5203 22.0808
Au 27.9712 23.4378 19.4823
Au 27.7014 24.6916 17.0783
Au 28.5776 18.835 23.5951
Au 28.5627 19.7526 21.0008
Au 28.0309 20.9417 18.4376
Au 27.6339 22.2105 15.6146
Au 28.5111 16.1511 22.3749
Au 28.2807 17.3259 19.7301
Au 28.2278 18.4956 17.0221
Au 27.599 19.5306 14.616
Au 25.8465 12.7841 21.092
Au 25.6903 13.8692 18.428
Au 25.1797 15.0217 15.8603
Au 24.7214 16.1108 13.3062
Au 23.3732 12.0645 20.8283
Au 22.9303 12.8832 18.433
Au 22.6481 14.0898 15.7225
Au 22.1393 15.2675 13.0474
Au 20.6137 11.4036 20.9147
Au 19.9486 12.4261 18.1323
Au 19.8745 13.5091 15.7068
Au 19.3278 14.6808 13.0505
Au 16.0306 12.5393 21.9928
Au 15.4238 13.6208 19.4077
Au 15.2674 14.8209 16.8464
Au 14.832 16.0415 14.3186
Au 14.5462 14.5204 23.4807
Au 14.1094 15.5161 20.7039
Au 13.6177 16.8602 17.7696
Au 13.6001 17.9855 15.2279
Au 12.7875 16.6824 24.2115
Au 12.5378 17.6914 21.6651
Au 12.2275 18.7191 19.0043
Au 12.134 20.0031 16.5568
