236
 Atoms. Timestep: 50000
Au 12.1216 20.6751 21.3883
Au 14.0297 22.9969 22.5441
Au 15.842 25.1099 23.3221
Au 17.5735 27.4353 23.9835
Au 12.8805 17.3424 20.0906
Au 14.5541 19.3991 20.7449
Au 16.291 21.6341 21.527
Au 17.9566 23.7185 22.3422
Au 19.743 25.9606 23.1332
Au 21.6271 27.9482 23.686
Au 14.9389 15.8401 19.0216
Au 16.6925 17.9726 19.7415
Au 18.4774 20.0167 20.4961
Au 20.2745 22.0247 21.2878
Au 22.0806 24.4092 22.1622
Au 23.9528 26.6565 23.111
Au 17.1171 14.1857 17.9082
Au 18.8648 16.5875 18.7969
Au 20.7365 18.4559 19.5211
Au 22.4927 20.6663 20.0953
Au 24.2386 23.1281 21.0618
Au 25.9307 25.2088 21.8514
Au 19.8232 12.8432 17.1333
Au 21.1619 15.0629 17.8511
Au 23.0467 17.1678 18.7608
Au 24.7445 19.3438 19.4799
Au 26.4436 21.3767 20.0918
Au 27.9688 23.4345 20.9826
Au 23.3352 13.4669 16.9509
Au 25.1773 15.5578 17.7855
Au 26.8559 17.6688 18.4301
Au 28.6465 20.1853 19.0852
Au 11.9324 23.3856 20.8536
Au 13.5607 25.6545 21.6673
Au 15.273 27.4938 22.3441
Au 12.2815 19.9373 18.9803
Au 14.0481 21.8731 19.7338
Au 15.5445 24.2707 20.5195
Au 17.6571 26.3129 21.3065
Au 19.2503 28.5159 22.0904
Au 13.0721 16.4305 17.3303
Au 14.428 18.6254 18.0688
Au 16.2874 20.4822 18.7474
Au 17.8362 22.7263 19.5438
Au 19.9411 24.8779 20.5104
Au 21.602 26.9342 21.1621
Au 23.4158 29.0895 21.6192
Au 14.9976 14.6805 16.3837
Au 16.6556 16.8 17.0334
Au 18.3298 19.1023 17.7257
Au 20.2366 21.0894 18.5843
Au 21.7919 23.4105 19.3946
Au 23.7597 25.7432 19.9421
Au 25.3541 27.7559 20.9076
Au 17.5118 13.3528 15.4395
Au 19.1379 15.5349 16.1822
Au 20.7459 17.6801 16.9072
Au 22.5801 19.6411 17.5023
Au 24.3085 21.8901 18.4128
Au 25.7945 24.1902 19.1631
Au 27.4313 26.2207 19.8123
Au 21.3 13.9562 15.1214
Au 23.0904 16.1154 15.9284
Au 24.6957 18.047 16.7224
Au 26.45 20.3181 17.4234
Au 28.0451 22.6216 18.0749
Au 25.0906 14.6838 15.0007
Au 26.8518 16.6907 15.8686
Au 28.7334 18.9389 16.6211
Au 11.8417 22.5014 18.2467
Au 13.4034 24.5497 18.7591
Au 15.3434 27.0068 19.7317
Au 17.1242 28.6798 20.5058
Au 12.5485 18.907 16.3564
Au 13.7972 21.2594 16.7243
Au 15.6685 23.1357 17.8529
Au 17.4857 25.4083 18.6386
Au 19.2151 27.3974 19.319
Au 20.9382 29.3805 20.1022
Au 14.5227 17.1212 15.2535
Au 16.077 19.6105 16.0336
Au 18.0121 21.7568 16.8926
Au 19.6998 23.9934 17.6353
Au 21.5422 26.0523 18.3513
Au 23.243 28.4357 19.02
Au 16.9219 15.721 14.445
Au 18.3169 18.1235 15.1563
Au 20.3023 20.0832 15.8405
Au 21.9066 22.256 16.7067
Au 23.701 24.5055 17.3511
Au 25.5825 26.8044 18.068
Au 19.22 14.4494 13.7511
Au 20.9618 16.6193 14.2666
Au 22.5377 18.7064 14.8481
Au 24.3524 20.8764 15.6216
Au 26.0079 23.1531 16.5056
Au 27.663 25.0859 17.3604
Au 23.1105 15.1084 13.264
Au 24.8716 17.0566 13.951
Au 26.4925 19.2033 14.7197
Au 27.9483 21.1779 15.4728
Au 13.6946 23.8608 16.1507
Au 15.1918 25.8758 17.1951
Au 17.0022 27.9185 17.7003
Au 14.0693 19.8043 14.2895
Au 15.6255 22.1732 15.2317
Au 17.4322 24.3214 15.8585
Au 19.3026 26.6987 16.615
Au 21.0925 28.5475 17.4164
Au 16.193 18.3413 13.2524
Au 17.9782 20.6175 14.2561
Au 19.6405 22.8354 14.8992
Au 21.4412 24.8653 15.6982
Au 23.215 27.1817 16.4753
Au 18.5346 16.9618 12.722
Au 20.3106 18.9582 13.123
Au 21.9906 21.4612 14.0921
Au 23.7807 23.3324 14.7987
Au 25.5235 25.5228 15.725
Au 22.7831 17.8617 12.2715
Au 24.4395 19.7277 13.0768
Au 25.87 22.0093 13.8868
Au 15.4719 25.1305 14.4448
Au 17.073 27.0182 14.984
Au 15.8875 20.8963 12.843
Au 17.5012 23.2792 13.2653
Au 19.2897 25.3559 14.0402
Au 21.0112 27.46 14.8161
Au 18.2581 19.5608 11.8234
Au 19.6507 21.8398 12.2463
Au 21.4321 23.9878 13.0622
Au 23.2103 25.9984 14.1562
Au 21.9908 20.41 11.465
Au 23.7254 22.2625 12.2589
Au 11.4125 22.6867 23.2962
Au 13.0258 24.8352 24.2169
Au 14.954 26.7936 25.1205
Au 12.6395 18.2362 22.642
Au 14.2762 20.3045 23.201
Au 15.9853 22.4978 24.346
Au 18.0285 24.6198 25.0649
Au 19.7178 26.6068 25.8579
Au 13.3943 14.6011 20.946
Au 15.0696 16.6971 21.8044
Au 16.6499 18.9373 22.3538
Au 18.4479 21.0463 23.3309
Au 20.2362 23.15 23.9787
Au 21.9314 25.329 24.7901
Au 23.5165 27.2157 25.6863
Au 15.5051 13.249 20.0172
Au 17.2723 15.1272 20.6541
Au 18.8975 17.1789 21.4944
Au 20.5784 19.523 22.416
Au 22.5159 21.6966 22.9103
Au 24.4148 23.8958 23.8458
Au 25.9857 25.944 24.8004
Au 17.8352 11.8341 18.7802
Au 19.4304 13.792 19.6019
Au 21.2731 15.7693 20.5247
Au 22.8504 18.1402 21.415
Au 24.7156 20.2104 21.9779
Au 26.414 22.2858 22.7502
Au 27.7194 24.3941 23.9204
Au 21.7208 12.0801 18.8926
Au 23.3243 14.2682 19.5081
Au 25.2306 16.5083 20.3643
Au 26.9317 18.6552 21.1325
Au 28.6832 20.9347 21.7289
Au 25.7414 13.0135 18.8176
Au 27.3535 15.093 19.6319
Au 29.209 17.9004 20.1637
Au 11.8478 20.3232 24.2061
Au 13.17 22.3747 25.2687
Au 15.1967 24.454 26.0246
Au 17.1151 26.524 26.4753
Au 13.2225 15.3503 23.3777
Au 14.6845 17.809 24.3665
Au 16.5657 19.8226 25.2569
Au 18.1583 21.9781 25.9568
Au 20.1022 24.0306 26.9366
Au 22.1326 25.949 27.4008
Au 15.3671 13.9808 22.5978
Au 16.9874 16.221 23.5388
Au 18.7965 18.4194 24.2916
Au 20.4968 20.629 25.2487
Au 22.3418 22.6867 25.6816
Au 24.244 24.6167 26.5564
Au 17.5905 12.436 21.6742
Au 19.3099 14.5216 22.3679
Au 20.8932 16.8487 23.0772
Au 22.81 19.1192 24.0763
Au 24.7054 21.2022 24.8411
Au 26.5007 23.2931 25.7708
Au 19.9334 11.2227 20.5678
Au 21.6805 13.1198 21.3913
Au 23.3062 15.1344 22.3489
Au 25.1269 17.5161 23.0882
Au 26.8805 19.5411 23.8542
Au 28.3077 21.7592 24.546
Au 23.8255 11.7519 20.4775
Au 25.605 13.8643 21.3374
Au 27.5144 16.0028 22.057
Au 28.928 18.3411 22.6564
Au 13.9705 19.8798 25.9983
Au 15.4573 21.9023 27.0389
Au 17.17 23.9527 27.6664
Au 15.0931 15.1039 24.9758
Au 16.8012 17.2331 26.0832
Au 18.7991 19.129 26.9914
Au 20.418 21.2493 27.8616
Au 22.3496 23.2958 28.3653
Au 17.341 13.5345 24.2926
Au 19.3311 15.4956 24.9286
Au 21.0963 17.7524 25.8699
Au 22.8422 20.0254 26.616
Au 24.7137 22.0149 27.5329
Au 19.7689 12.1859 23.3988
Au 21.4795 13.8036 24.4136
Au 23.2584 16.3797 25.0095
Au 25.0326 18.431 25.8692
Au 26.8324 20.4197 26.4648
Au 23.8036 12.7981 23.1582
Au 25.5448 14.9832 23.8683
Au 27.4392 17.078 24.5304
Au 16.1951 19.3338 27.7771
Au 17.9699 21.2919 28.6146
Au 17.615 14.6251 26.7505
Au 19.3001 16.4645 27.4928
Au 21.3266 18.6687 28.3748
Au 22.7847 20.8798 29.1165
Au 19.4075 13.0338 25.9447
Au 21.4841 15.2054 26.8289
Au 23.3474 17.0462 27.5468
Au 24.9062 19.4668 28.3781
Au 23.9004 13.992 25.807
Au 25.591 15.9142 26.4649
