237
 Atoms. Timestep: 50000
Au 20.4382 18.9822 19.3588
Au 22.3297 21.2018 19.154
Au 21.5961 19.9997 21.7281
Au 18.8888 16.8111 18.9533
Au 18.1203 19.2444 21.643
Au 21.5787 20.5908 16.5928
Au 20.8426 18.4257 24.1067
Au 17.5106 19.553 18.9265
Au 20.1979 17.4803 21.5873
Au 22.0348 18.0266 17.3232
Au 22.8846 17.6315 22.3717
Au 19.602 21.3998 18.7791
Au 16.8451 21.4244 23.0862
Au 23.5592 22.2524 21.6488
Au 20.1771 25.6289 21.7301
Au 20.1261 14.2114 18.3341
Au 15.3081 20.1495 20.6825
Au 20.8855 24.7992 14.8849
Au 21.125 20.0422 26.2674
Au 19.3616 22.036 15.9974
Au 19.5803 15.6741 23.8214
Au 23.1903 19.6531 14.3558
Au 24.3402 15.0757 22.7233
Au 15.7688 24.4792 19.5481
Au 16.2192 23.9084 24.3976
Au 22.8452 24.899 22.4296
Au 21.298 23.3589 20.6623
Au 19.4081 21.611 21.4992
Au 23.1909 20.0478 24.1156
Au 21.6976 22.2219 23.531
Au 24.3649 19.7089 17.109
Au 22.4555 22.5809 14.817
Au 24.6978 19.7938 21.8056
Au 24.8608 17.3106 24.4713
Au 23.2895 18.624 19.72
Au 17.7302 23.9314 21.8081
Au 18.8727 24.2648 19.1466
Au 19.2862 23.2764 23.7748
Au 19.3984 20.5939 23.9615
Au 14.7342 22.7494 21.5865
Au 15.9762 17.5298 20.1315
Au 19.335 19.1101 16.7383
Au 18.4085 19.8028 14.2124
Au 19.2059 14.6396 21.1418
Au 15.2774 17.5592 25.5069
Au 20.4141 16.04 16.467
Au 20.731 20.9879 13.6198
Au 21.5659 16.3506 19.3955
Au 21.6478 15.0478 21.9853
Au 17.1615 22.0779 20.1527
Au 17.1565 22.5733 17.4393
Au 15.8545 18.9141 23.0029
Au 17.9814 17.8858 24.4143
Au 21.1448 23.4744 17.7881
Au 20.2037 17.1637 26.4187
Au 27.7336 20.9554 19.5327
Au 20.2153 27.9611 25.057
Au 19.9121 12.8588 15.9358
Au 14.4874 15.1845 20.5514
Au 22.1588 27.1765 15.3525
Au 25.065 21.7559 28.5625
Au 17.4757 21.4902 12.0515
Au 19.08 14.7045 26.2356
Au 24.2108 17.2918 12.9172
Au 26.256 15.0078 24.9455
Au 14.3924 26.5867 17.7847
Au 15.2228 22.8055 26.7562
Au 25.5757 24.5255 22.079
Au 24.3326 27.1281 22.4211
Au 23.8737 23.9242 19.3237
Au 24.9754 26.698 15.5633
Au 21.7275 27.777 22.4931
Au 23.1205 24.9346 16.7864
Au 22.168 26.1014 19.8294
Au 26.6005 21.9009 22.1124
Au 24.7987 22.3032 24.1802
Au 20.9391 25.4913 24.1682
Au 23.2112 21.8757 26.4476
Au 23.0673 24.2108 25.2209
Au 25.0488 21.352 19.5086
Au 25.6365 18.2387 14.9858
Au 23.3972 25.1521 13.9343
Au 25.0476 19.8897 12.6092
Au 24.013 22.4059 17.0602
Au 28.0185 19.341 21.7145
Au 25.8841 17.3635 21.8264
Au 25.0543 19.6248 26.3123
Au 26.5767 17.3408 26.6743
Au 26.3173 19.8593 24.0811
Au 24.8379 17.0056 17.719
Au 24.1665 15.7453 20.0463
Au 26.1527 18.5667 19.4843
Au 17.5746 26.4675 21.0312
Au 14.773 27.3211 20.265
Au 20.3585 25.9505 17.3639
Au 17.3743 26.3555 18.3358
Au 19.944 27.6412 19.8611
Au 18.0411 26.1192 23.7112
Au 16.2658 25.3195 26.6529
Au 21.6485 21.9384 28.8595
Au 18.1216 22.1184 26.1542
Au 20.5953 22.8599 26.3689
Au 12.983 25.2926 20.5466
Au 13.9684 25.0024 24.8187
Au 15.2556 25.3789 22.2678
Au 17.9268 14.8545 16.6328
Au 13.8585 17.2849 16.4195
Au 18.243 17.1125 15.0077
Au 17.1691 18.3812 12.2082
Au 14.8688 19.2328 18.1359
Au 15.5526 20.3413 13.6232
Au 16.4299 17.1978 17.1967
Au 20.4043 11.3856 18.9209
Au 18.61 13.2332 23.4896
Au 17.4619 16.4594 22.066
Au 16.9165 15.4822 24.5377
Au 17.1122 14.7973 19.5051
Au 22.1919 13.857 15.0048
Au 23.285 16.6775 15.2846
Au 19.6645 19.8616 11.657
Au 22.0882 18.6524 12.1478
Au 20.9259 18.1596 14.6106
Au 22.1736 12.2232 17.2785
Au 27.2397 14.9893 22.4357
Au 21.1273 13.4818 24.2756
Au 25.7895 12.7675 23.5595
Au 22.259 13.4984 19.8185
Au 23.0635 14.764 17.4658
Au 12.7251 20.0133 19.5068
Au 13.0473 24.1822 17.9183
Au 15.0009 22.8363 12.9086
Au 15.4521 24.5458 16.9035
Au 16.5766 20.0696 16.1506
Au 13.4343 18.1615 21.6188
Au 14.0358 21.9398 24.5038
Au 17.3911 16.8191 26.9834
Au 16.5399 21.0994 28.1987
Au 16.0213 20.0534 25.4285
Au 14.7085 22.173 18.6313
Au 20.7284 26.3804 12.8221
Au 17.094 23.9803 11.89
Au 19.1793 23.348 13.4555
Au 16.9359 22.4546 14.6748
Au 22.8962 18.022 26.4473
Au 21.54 14.5895 26.8329
Au 24.2945 15.8626 26.5829
Au 18.5024 19.3605 26.6011
Au 25.2211 25.5258 24.3762
Au 25.8021 25.0803 17.5428
Au 23.1823 28.401 20.2318
Au 26.7515 23.5253 19.558
Au 25.238 26.2436 20.0514
Au 24.0587 27.4591 17.9267
Au 27.1477 23.5224 24.4371
Au 24.3185 26.0864 27.0614
Au 25.4491 23.5934 26.7918
Au 23.1102 27.1684 24.8374
Au 23.0179 23.9916 28.1459
Au 27.1972 19.5219 17.0582
Au 24.4307 22.6215 13.0656
Au 26.7211 22.4289 17.3687
Au 25.3851 23.841 15.2681
Au 25.5405 20.9439 15.0969
Au 27.8731 17.4637 23.9872
Au 26.7257 19.797 28.4422
Au 28.4829 21.2593 23.9525
Au 27.1271 21.593 26.2524
Au 28.5055 19.2452 25.8284
Au 27.0848 15.9989 19.8654
Au 28.7411 18.4648 19.1243
Au 27.5499 16.9216 17.3182
Au 28.86 16.9368 21.6217
Au 18.9629 28.5753 22.5096
Au 18.6635 28.5063 17.7173
Au 17.2056 28.9427 20.0553
Au 21.5964 28.3004 17.8377
Au 15.7981 28.6382 17.9576
Au 17.9805 27.3381 26.7208
Au 17.8838 23.7775 28.2501
Au 21.6199 25.9471 26.9369
Au 20.3553 24.315 28.6959
Au 19.0416 25.0606 26.1501
Au 13.4481 26.7947 22.8973
Au 17.5585 28.6822 24.6222
Au 16.1127 28.3021 22.406
Au 15.6792 26.9442 24.7672
Au 14.8617 15.1108 17.9818
Au 17.4015 13.4843 14.5617
Au 13.7848 19.7875 15.6623
Au 15.999 13.0728 16.8173
Au 15.4443 15.3921 15.396
Au 15.5503 17.9003 14.2684
Au 20.58 12.3614 21.6494
Au 16.3586 13.9264 21.9503
Au 18.0975 12.3924 18.0409
Au 15.6327 12.5604 19.4389
Au 17.9939 12.2101 20.5893
Au 24.2025 14.4434 13.765
Au 19.5542 17.11 12.3251
Au 19.8019 14.7321 14.1062
Au 17.0868 15.7362 13.2445
Au 21.8382 15.9294 12.9283
Au 24.3799 12.2144 18.8033
Au 23.6693 13.7179 24.9714
Au 22.6063 11.0171 20.4672
Au 23.0952 12.5324 22.637
Au 25.285 13.2151 20.8235
Au 24.6201 13.1722 16.0427
Au 25.7812 15.5218 15.6806
Au 25.7708 14.4317 18.1998
Au 12.487 21.2389 17.3921
Au 18.1661 25.8226 13.6288
Au 13.3181 17.1871 19.1291
Au 14.3927 22.3926 15.6872
Au 15.7194 25.0493 14.2353
Au 13.5379 19.37 24.4815
Au 17.7805 18.8554 29.0752
Au 14.8857 16.2453 23.0334
Au 15.5186 18.5724 27.9982
Au 14.0459 20.4125 26.9795
Au 13.1171 20.7802 22.2492
Au 12.4674 22.6753 20.0688
Au 12.6944 24.0448 22.7978
Au 19.5635 24.8326 10.9216
Au 21.6701 23.8171 12.49
Au 19.8649 22.4168 10.9262
Au 22.6318 21.3323 11.663
Au 19.4579 27.4897 15.2653
Au 18.2168 24.654 16.1388
Au 16.6342 26.9157 15.6981
Au 22.3053 16.5244 28.5587
Au 23.1318 19.7246 28.5307
Au 22.2534 16.0196 24.5955
Au 24.7588 17.8578 28.6475
Au 20.5835 18.7238 28.6458
Au 19.3987 16.1208 28.5484
Au 19.3651 21.1113 28.4476
