249
 Atoms. Timestep: 50000
Au 11.5838 15.7854 22.1775
Au 12.6983 15.959 19.7082
Au 12.6482 20.033 15.3748
Au 16.0852 12.8655 22.7314
Au 14.7749 14.1811 19.1463
Au 14.9061 16.1465 14.4373
Au 21.001 11.4155 20.4522
Au 17.6845 12.4461 17.2242
Au 16.8409 14.1808 14.3546
Au 12.2586 20.2531 24.8958
Au 11.7876 20.961 22.1535
Au 11.6169 23.6755 19.1104
Au 15.0173 16.1717 26.1187
Au 15.7834 17.6812 24.1828
Au 15.0266 19.4951 20.3508
Au 14.2702 21.0963 17.0168
Au 14.3256 25.1812 14.5219
Au 19.5085 14.3086 26.8646
Au 18.6417 15.8053 23.0611
Au 17.9169 17.5779 19.1511
Au 17.5362 19.184 15.1521
Au 17.3769 21.0431 12.2712
Au 22.2721 12.2606 25.3984
Au 21.4621 13.6809 21.3067
Au 20.5175 15.2925 18.0152
Au 20.4642 16.9827 14.0449
Au 21.8281 15.3314 12.623
Au 25.0267 13.9055 18.2515
Au 23.3657 13.0793 16.158
Au 21.348 13.0804 13.9553
Au 14.4775 22.9238 26.443
Au 14.5383 24.9556 22.6874
Au 14.8342 26.1715 18.3589
Au 18.1947 19.5565 28.7901
Au 18.0024 20.7953 25.1963
Au 17.5957 22.6268 21.4416
Au 17.7115 24.2101 17.914
Au 16.8092 25.989 13.3162
Au 22.2079 17.4179 27.3426
Au 21.3971 19.0325 24.1981
Au 21.0512 20.5176 20.4368
Au 19.884 22.4806 16.7705
Au 18.4182 23.6661 12.3308
Au 24.5542 13.9244 25.7872
Au 24.474 16.5367 22.5346
Au 23.1733 18.7263 18.9711
Au 23.2745 19.7669 15.3326
Au 23.1385 21.5998 12.4267
Au 26.8585 14.9035 20.4426
Au 27.8406 17.8957 16.6227
Au 26.2658 17.7593 14.6409
Au 15.8454 24.3192 28.0437
Au 16.5332 27.6184 23.7507
Au 15.1431 28.7997 19.1801
Au 19.5247 21.3012 30.2593
Au 20.2996 23.9707 26.2034
Au 19.805 26.0457 22.7313
Au 20.0825 27.5975 19.4326
Au 18.1083 28.0041 14.8967
Au 23.5694 19.4196 28.9108
Au 23.6056 22.3411 25.0456
Au 23.5522 23.9384 21.6358
Au 21.8375 26.6672 17.5106
Au 22.4865 26.4926 13.9101
Au 25.4661 17.7744 29.243
Au 26.3694 18.4902 24.2007
Au 27.2209 21.318 20.7613
Au 25.5753 23.631 17.0334
Au 23.6523 24.0607 13.6367
Au 28.8485 18.1694 24.2025
Au 28.9504 19.4812 18.909
Au 27.1438 20.4097 13.7095
Au 21.27 25.6817 27.7733
Au 20.7181 28.5356 22.0581
Au 20.5034 30.1031 19.8159
Au 25.3921 23.7279 26.4433
Au 26.395 24.6999 21.9164
Au 24.3132 27.4309 18.0924
Au 27.2105 22.1329 27.2595
Au 28.5355 23.1554 22.2248
Au 27.9756 24.5661 17.0405
Au 11.7187 18.1592 23.352
Au 12.4098 18.4265 20.7867
Au 11.914 22.2052 17.1514
Au 15.638 14.919 23.9783
Au 15.1526 16.8993 19.3738
Au 14.7337 18.5313 15.4155
Au 18.8309 12.9083 22.0867
Au 17.3316 14.9414 18.761
Au 17.7255 16.7616 13.9261
Au 23.4936 11.9243 21.5924
Au 20.6886 12.7007 16.8226
Au 19.1016 12.4592 14.8325
Au 15.0276 20.4713 25.488
Au 14.6749 22.0869 21.4891
Au 14.1862 23.3812 18.9016
Au 19.4182 16.8182 28.0462
Au 18.4307 18.3789 24.088
Au 18.0631 19.9597 20.524
Au 17.0864 21.6785 16.5322
Au 16.1083 23.3217 13.8265
Au 22.1642 14.7339 26.5622
Au 21.5343 16.4637 22.9153
Au 20.5942 18.1205 19.0406
Au 20.2979 19.6596 15.0528
Au 20.4689 21.0359 12.3221
Au 24.2481 14.2258 20.9065
Au 23.1715 15.7415 17.8063
Au 23.4337 16.9268 14.0455
Au 17.4378 23.2405 26.0822
Au 17.1019 25.2537 22.8179
Au 17.3391 26.8778 18.7322
Au 20.8676 19.0181 28.941
Au 20.8101 21.6946 24.963
Au 20.6108 23.2237 21.4837
Au 20.8182 24.4286 18.304
Au 19.5967 26.1564 13.302
Au 24.828 16.0046 27.3514
Au 24.1013 19.6312 23.7452
Au 24.159 20.7234 20.482
Au 22.8139 23.2208 16.7444
Au 20.9891 23.8304 12.8433
Au 27.4114 16.3661 22.5236
Au 26.101 19.3784 18.8665
Au 26.3196 20.0753 16.129
Au 18.5057 25.2039 27.9128
Au 19.0397 28.3172 24.0223
Au 17.7576 29.5755 19.3132
Au 22.6319 23.3925 27.5159
Au 22.6116 26.7472 23.0567
Au 22.0433 29.2444 17.8784
Au 25.8205 20.9756 25.5699
Au 25.4445 23.153 19.7899
Au 26.2352 26.4699 16.6104
Au 28.5622 20.0661 25.9644
Au 29.7527 21.4527 20.6496
Au 27.5003 22.5563 15.2245
Au 13.8954 14.3268 21.5874
Au 13.6773 16.2696 17.1152
Au 16.9417 12.57 20.1867
Au 15.6811 14.207 16.6515
Au 13.4594 18.1139 25.5468
Au 13.973 19.5578 22.9797
Au 12.8653 21.0056 19.4732
Au 12.861 24.8132 16.7688
Au 17.4874 15.9159 25.7815
Au 17.0858 17.8646 21.6761
Au 16.1304 19.1652 17.6911
Au 15.2789 20.957 14.3622
Au 20.3575 13.9849 24.2786
Au 19.6002 15.558 20.6428
Au 19.2105 17.4351 16.5633
Au 18.9541 18.9759 12.6749
Au 24.4136 11.9334 24.0221
Au 22.3916 13.1532 18.8808
Au 21.754 15.155 15.4511
Au 24.0074 14.0811 13.7978
Au 16.4765 21.4741 27.603
Au 16.0572 22.7252 23.9099
Au 15.8707 24.5748 20.4521
Au 16.3571 26.1304 16.0869
Au 19.8014 19.062 26.5252
Au 19.5977 20.6386 22.7746
Au 19.096 22.1623 19.2835
Au 18.2011 24.4113 15.0665
Au 23.3678 16.7882 24.9846
Au 22.6978 18.5187 21.5935
Au 21.7508 20.539 17.4525
Au 21.6765 22.0091 14.5561
Au 25.6684 14.0722 23.1054
Au 24.9888 16.7916 19.8428
Au 24.6799 17.8359 16.7814
Au 24.78 19.6209 13.265
Au 17.729 23.0118 29.4129
Au 18.1586 26.0085 25.1457
Au 15.606 27.0979 21.0075
Au 16.5728 28.68 16.8843
Au 21.8921 21.4463 29.4677
Au 21.9157 24.2358 23.7146
Au 21.6443 25.7473 20.7405
Au 20.8061 28.1531 15.1694
Au 24.4927 18.7513 26.5691
Au 25.4408 22.0537 22.8124
Au 23.6307 24.9978 18.8277
Au 24.0102 25.6932 15.8735
Au 27.051 17.6776 26.6713
Au 28.7452 18.8678 21.472
Au 27.5356 21.7462 18.1681
Au 25.9304 22.4521 12.6653
Au 23.1751 25.5354 25.8542
Au 22.7893 28.3292 20.1797
Au 27.1245 23.0549 24.5965
Au 26.3676 25.5102 19.1759
Au 13.1743 15.8244 24.1409
Au 14.3976 16.9765 21.9895
Au 13.1465 18.6262 18.2089
Au 13.4246 22.5586 14.8375
Au 17.7712 13.5231 24.7459
Au 16.569 15.1854 21.4369
Au 16.5292 16.551 16.6733
Au 15.8435 18.4854 13.01
Au 21.3122 11.3748 23.1693
Au 19.3987 13.0965 19.3269
Au 18.8207 14.7997 15.9104
Au 19.2275 14.5972 13.1834
Au 13.4212 22.3601 23.9741
Au 12.4835 23.5972 21.573
Au 17.0137 18.7557 26.5188
Au 16.6083 20.3812 22.872
Au 16.271 21.6827 19.0407
Au 15.3375 23.685 16.6538
Au 20.1394 16.5116 25.4129
Au 19.9847 18.105 21.6861
Au 19.0134 19.915 17.7537
Au 18.7611 21.9381 14.349
Au 22.8716 14.0798 23.4269
Au 22.3014 16.1447 20.3156
Au 21.8227 17.7251 16.5522
Au 22.0139 19.0377 12.8101
Au 26.6869 15.9287 17.8891
Au 24.9535 15.371 15.8815
Au 15.5043 25.1911 25.1481
Au 13.2866 25.5533 20.2116
Au 19.5689 21.5732 27.5291
Au 18.9942 23.2732 23.6665
Au 18.7841 25.1202 20.4405
Au 19.2313 26.4216 16.8993
Au 22.1983 20.4213 26.8034
Au 22.4372 21.4484 22.6259
Au 22.4712 22.5277 19.2133
Au 21.0904 24.8105 15.3177
Au 26.2699 15.969 24.9217
Au 26.0963 18.8109 21.6578
Au 24.4939 21.2025 17.8769
Au 24.5725 22.0607 14.9321
Au 28.0479 17.1704 19.7386
Au 28.8127 20.2686 15.8837
Au 20.2354 23.6753 29.227
Au 20.7352 26.6394 25.2571
Au 18.0553 27.9257 21.3214
Au 19.2637 29.0446 17.2059
Au 24.619 21.6704 28.0944
Au 24.7668 24.9556 23.8902
Au 24.3808 26.5219 21.1027
Au 23.3436 28.2994 15.6549
Au 26.6182 19.7179 28.2816
Au 27.9073 20.7848 23.539
Au 28.2993 23.8589 19.7755
Au 26.1958 24.6563 14.5026
