260
 Atoms. Timestep: 50000
Au 12.4956 25.2101 22.1509
Au 20.3254 28.8664 22.1154
Au 17.6716 26.6555 25.7089
Au 15.4 27.4732 19.1465
Au 19.7617 14.2982 24.5556
Au 22.192 26.1733 15.1343
Au 15.9705 14.1721 23.1576
Au 13.6089 26.0912 17.2079
Au 17.6981 24.744 27.6135
Au 20.5551 23.9292 28.3666
Au 24.5093 27.3095 18.9945
Au 20.3904 24.8965 16.8027
Au 12.0055 17.9873 22.2183
Au 20.0282 26.2835 21.9147
Au 13.1225 25.2191 24.821
Au 12.5218 21.1807 19.0489
Au 21.5068 21.4975 24.1159
Au 28.5526 22.5857 15.6034
Au 24.936 25.3787 13.6789
Au 25.2211 24.6572 19.0721
Au 17.1072 15.6023 15.563
Au 20.6992 11.4702 24.6663
Au 25.1944 13.1443 21.7137
Au 23.6202 11.6825 23.9072
Au 27.9925 16.7911 21.201
Au 25.2679 16.0288 19.7518
Au 23.51 18.3232 19.2124
Au 23.9766 25.6432 21.3988
Au 20.6361 11.1203 20.1398
Au 25.3796 20.7008 12.7235
Au 22.197 12.7687 18.5796
Au 21.6614 10.2011 22.5013
Au 28.0005 20.4067 14.348
Au 26.5394 26.6341 20.8412
Au 18.2663 14.7309 13.2414
Au 28.153 19.9499 19.5932
Au 26.5785 15.1067 17.5256
Au 28.2506 22.8815 26.0579
Au 24.0579 18.0977 14.309
Au 28.5344 23.9264 23.4874
Au 23.7978 22.5272 22.8265
Au 24.7047 24.8268 26.9256
Au 17.4488 25.629 22.9401
Au 14.8222 24.1144 23.0112
Au 11.7371 20.7436 21.8474
Au 16.295 40.4056 31.284
Au 24.0988 20.5119 20.6712
Au 20.1105 27.5435 16.2751
Au 13.9083 22.5713 21.0308
Au 16.1084 18.3861 16.1168
Au 13.4931 25.4562 19.825
Au 17.5605 27.266 20.7399
Au 22.4251 25.6072 28.4242
Au 22.256 27.2364 17.8636
Au 21.772 13.5104 15.7972
Au 16.7534 18.3635 19.7095
Au 16.7463 16.9749 13.4482
Au 15.3676 23.8072 13.374
Au 25.4571 20.6796 15.3991
Au 16.2359 23.2752 15.9806
Au 23.6768 23.533 15.0468
Au 26.021 23.6783 21.7466
Au 20.7972 14.671 13.4748
Au 17.0409 11.8656 17.2361
Au 12.8531 16.5241 17.559
Au 28.8876 22.5705 18.5702
Au 23.3534 17.189 22.0265
Au 25.7763 15.7514 22.583
Au 26.2541 18.3631 23.5428
Au 26.5014 18.3667 13.2728
Au 18.528 17.4248 17.4564
Au 17.5539 14.1869 18.2832
Au 24.1476 21.8923 17.7576
Au 22.261 24.7169 12.3834
Au 24.7598 17.1467 17.1832
Au 25.722 19.48 18.1136
Au 27.3984 17.3874 18.7026
Au 16.1845 24.7876 20.253
Au 21.3822 18.5991 14.6187
Au 17.4148 41.5966 32.1187
Au 17.6628 27.9708 15.2708
Au 11.5384 19.3263 17.1757
Au 19.7384 19.0512 19.3772
Au 17.408 22.9071 18.3246
Au 19.1094 22.9982 23.3467
Au 16.7192 22.5578 21.9509
Au 26.8764 26.3145 17.9715
Au 14.0311 19.5735 20.9951
Au 18.9277 22.5676 16.2732
Au 21.712 22.2102 16.4164
Au 14.5053 16.1684 15.5945
Au 23.825 19.6992 23.1589
Au 15.1883 25.1926 26.574
Au 14.6037 20.2057 25.9721
Au 19.071 11.2199 22.5473
Au 14.0905 18.7575 18.3304
Au 23.5608 17.1491 27.4678
Au 18.1305 25.4843 15.7287
Au 22.8492 14.4826 20.8206
Au 23.4244 19.295 11.8705
Au 22.1769 16.9221 12.5876
Au 26.4174 23.2866 17.0687
Au 22.7849 20.9927 14.1062
Au 28.0825 24.393 20.0707
Au 24.2062 24.9152 24.0237
Au 26.2561 22.8445 14.2585
Au 24.1869 22.8969 12.5925
Au 24.4586 15.0414 26.3667
Au 23.2829 19.5944 16.4453
Au 15.363 18.9538 13.6936
Au 13.6346 14.2549 19.0974
Au 19.8584 26.2927 13.737
Au 18.1459 28.015 23.4377
Au 14.8417 26.7381 21.7183
Au 21.2494 16.4814 19.8846
Au 13.3681 18.9836 15.6222
Au 18.6916 25.6714 18.7372
Au 15.1452 20.8673 16.9979
Au 13.6153 24.1051 15.5769
Au 17.8522 19.4601 12.4373
Au 15.2985 26.1052 14.9587
Au 17.2638 20.9452 15.0716
Au 14.4941 21.3416 14.368
Au 20.0156 26.2207 27.231
Au 19.3685 17.1977 12.6939
Au 18.0511 23.3803 13.7709
Au 18.8758 23.9343 20.7962
Au 24.8013 16.6699 12.2385
Au 20.6833 19.412 11.859
Au 16.3225 21.4369 12.3812
Au 19.7174 16.2106 15.236
Au 20.5432 22.9793 18.8799
Au 24.5828 20.4175 28.1864
Au 25.6361 15.896 14.838
Au 14.517 21.027 23.172
Au 18.4512 18.6618 14.9062
Au 20.8993 23.7473 14.3395
Au 18.0683 28.123 18.1015
Au 17.4577 25.7713 12.9289
Au 17.8592 20.1938 17.887
Au 19.7758 24.1587 11.8019
Au 21.4624 18.4713 23.8606
Au 18.9395 21.6267 11.414
Au 16.1142 25.5648 17.5201
Au 17.1433 23.8439 11.3042
Au 26.5977 25.8576 23.2555
Au 15.6486 28.1715 16.6447
Au 19.8577 21.1083 13.8879
Au 21.9715 20.659 18.805
Au 24.8821 25.8786 16.3961
Au 11.7083 18.6904 19.6527
Au 23.1881 22.9329 28.3537
Au 14.4859 23.2735 18.2431
Au 15.4969 12.2769 19.1407
Au 16.7304 19.6474 22.0068
Au 15.7022 21.1569 19.5752
Au 15.3197 26.6602 24.2062
Au 20.134 27.8231 19.5628
Au 11.9346 23.8927 18.0754
Au 11.3618 23.2863 20.7349
Au 15.5579 13.8206 16.6432
Au 16.8524 21.3106 24.4709
Au 19.2908 20.282 22.9613
Au 22.6602 26.4221 25.856
Au 22.2248 27.2617 23.3496
Au 21.295 13.0277 22.6259
Au 14.0497 13.1487 21.5262
Au 18.8331 13.4554 15.5739
Au 20.2931 15.055 17.6928
Au 26.1698 20.5077 25.4583
Au 22.9713 24.427 17.5722
Au 27.332 25.2896 15.276
Au 20.1982 19.9664 16.6488
Au 21.4486 17.6736 17.5427
Au 16.7213 16.6154 22.6351
Au 22.283 19.2112 28.6657
Au 28.5315 18.9535 25.1875
Au 20.8009 17.0359 29.0413
Au 26.9406 25.1443 25.9528
Au 15.6439 16.2061 18.076
Au 26.705 15.8364 25.054
Au 22.4473 16.0153 15.3706
Au 27.9746 20.3975 16.9465
Au 25.7752 18.5633 20.9447
Au 19.7016 12.2592 17.7784
Au 27.0138 18.0941 15.9384
Au 26.0742 23.0528 24.3912
Au 18.4498 21.1882 20.431
Au 18.3151 16.1063 20.0095
Au 19.0873 17.8498 21.7063
Au 18.3744 22.2334 28.7622
Au 21.7386 21.9953 11.8436
Au 20.2103 13.8716 20.1504
Au 12.2097 22.7638 23.4629
Au 12.0939 16.1543 20.2636
Au 21.1009 21.9822 21.4661
Au 19.0917 17.2368 24.6751
Au 16.0547 14.4878 20.5014
Au 12.5989 21.5888 16.3663
Au 14.3678 18.2048 23.3305
Au 21.7435 23.816 25.8931
Au 21.4396 25.4675 19.7054
Au 25.143 27.1722 25.2482
Au 17.787 12.387 24.6028
Au 23.5956 14.6404 13.4675
Au 24.2008 17.1259 24.7952
Au 14.3875 22.8446 25.2984
Au 21.7781 15.9537 25.3306
Au 23.1808 23.0691 20.0273
Au 14.4812 16.8994 20.5025
Au 28.0734 14.5065 22.8846
Au 23.3406 19.4694 25.9866
Au 26.1698 18.2442 26.4745
Au 28.5454 22.0982 21.2153
Au 26.2223 21.8881 19.5898
Au 25.9696 13.514 24.4232
Au 26.245 20.9237 22.4501
Au 21.0763 18.0764 26.6901
Au 23.7952 22.071 25.5971
Au 19.5065 15.409 27.0329
Au 18.508 14.0011 22.2035
Au 21.7742 24.3844 22.4813
Au 16.8963 24.0479 25.0154
Au 18.2579 17.6636 27.1581
Au 18.2194 12.0434 19.9051
Au 19.348 19.9643 25.7995
Au 16.1833 22.5056 27.0735
Au 19.0371 22.6544 26.3512
Au 25.859 22.4019 27.2523
Au 17.0102 20.0524 27.1854
Au 22.9796 15.2834 18.268
Au 21.6634 19.2562 21.2887
Au 19.9112 25.4367 24.6071
Au 24.9355 27.7503 22.6591
Au 23.3716 14.6302 23.5775
Au 28.6475 16.915 23.5969
Au 15.4288 17.6115 26.8328
Au 27.1445 14.4486 20.2556
Au 28.3409 21.3849 24.0122
Au 16.8328 18.5533 24.8534
Au 15.0186 15.955 24.8797
Au 24.3284 14.0968 16.3135
Au 21.0192 21.5232 29.5613
Au 28.9153 24.8875 17.205
Au 20.7789 15.9184 22.6167
Au 13.267 17.8931 25.7171
Au 20.1432 27.8664 24.9702
Au 22.633 27.8333 20.8357
Au 13.4271 15.5828 22.4347
Au 19.3829 12.8064 26.6653
Au 16.4844 11.6778 21.8569
Au 17.288 14.9759 25.3533
Au 12.3781 19.8561 24.3419
Au 22.2998 13.2754 25.5394
Au 21.9812 14.7977 27.7102
Au 28.474 19.2821 22.1392
Au 23.1469 11.6357 20.8221
Au 24.7788 13.2123 18.9496
Au 21.2863 21.2526 26.9176
Au 19.4958 19.6292 28.6081
