309
 Atoms. Timestep: 50000
Au 10.6804 23.9058 23.1973
Au 10.553 21.4547 22.1394
Au 12.9794 23.11 22.3981
Au 14.8555 26.6609 23.8306
Au 11.1172 18.808 20.629
Au 13.0387 20.5854 21.1995
Au 15.45 22.1763 21.8588
Au 17.1223 25.6489 23.2018
Au 19.1846 29.1028 24.1511
Au 11.5916 16.2278 19.2331
Au 13.5945 17.8369 19.9522
Au 15.7741 19.7184 20.5611
Au 17.9452 21.284 21.117
Au 19.7999 24.8507 22.2377
Au 21.8609 26.511 22.9966
Au 23.9447 28.1884 23.59
Au 12.1131 13.7376 18.2961
Au 14.1411 15.3587 18.7549
Au 16.2425 17.0284 19.273
Au 18.4287 18.7108 19.943
Au 20.4637 20.2559 20.4589
Au 22.418 21.8809 20.9994
Au 24.6145 23.7109 21.5345
Au 26.5883 25.4297 21.9876
Au 28.7573 27.0027 22.5127
Au 16.4304 12.9337 17.3689
Au 18.7077 14.4215 17.7986
Au 20.9522 16.1893 18.5046
Au 22.7788 19.3087 19.7828
Au 25.0347 21.151 20.2619
Au 27.2342 22.644 20.9105
Au 29.2992 24.4908 21.4397
Au 21.4627 11.9654 16.4624
Au 23.4785 15.1225 17.5902
Au 25.3153 18.6859 19.0244
Au 27.5625 20.1424 19.7602
Au 29.6462 21.6814 20.4625
Au 25.9395 14.1942 16.8715
Au 27.7547 17.6043 18.2709
Au 30.0009 19.358 19.0686
Au 30.1221 16.875 17.7972
Au 11.1194 23.6011 20.3862
Au 12.5941 25.7363 22.2162
Au 11.2485 21.2344 19.3098
Au 13.686 22.9385 19.6428
Au 14.9176 25.0525 21.3679
Au 16.7371 28.4979 22.7039
Au 11.8786 18.5937 17.8861
Au 13.8509 20.4161 18.4616
Au 16.19 22.1144 19.0448
Au 17.327 24.0073 20.7226
Au 19.3386 27.5292 22.0692
Au 21.7566 29.0745 22.527
Au 12.4164 16.1298 16.5247
Au 14.4525 17.7639 17.0925
Au 16.6154 19.3853 17.8268
Au 18.7548 20.9303 18.3759
Au 19.783 22.9907 20.0076
Au 22.0383 24.666 20.5874
Au 24.1785 26.5032 21.1335
Au 26.1564 28.0869 21.5277
Au 14.0245 14.0593 16.2195
Au 16.2952 15.7226 16.6998
Au 18.3833 17.258 17.4575
Au 20.5967 18.7944 18.1591
Au 21.5466 21.6967 18.2141
Au 23.8295 23.2547 18.7704
Au 25.8666 25.0897 19.2869
Au 28.0423 26.4912 19.9891
Au 18.7735 12.7346 15.5362
Au 21.1119 14.5526 16.1308
Au 23.0281 17.941 17.3897
Au 24.1004 20.7033 17.5426
Au 26.3405 22.4394 18.0648
Au 28.4359 23.9508 18.7248
Au 23.6404 13.4482 15.3582
Au 25.6153 16.9454 16.6267
Au 26.6658 19.8184 16.8558
Au 28.6985 21.2385 17.4464
Au 27.75 16.0214 15.9716
Au 28.9879 18.8757 16.1914
Au 12.1286 23.9168 17.7303
Au 13.2754 25.8937 19.3253
Au 14.5521 27.7098 21.1165
Au 12.4065 21.2551 16.6499
Au 14.6642 22.9343 16.9803
Au 15.8151 24.8818 18.6374
Au 16.8807 26.852 20.4228
Au 18.8939 30.2295 21.7125
Au 12.8338 18.4821 14.8063
Au 14.8566 20.1796 15.6906
Au 17.2834 21.7891 16.3073
Au 18.3304 23.7369 17.7398
Au 19.3723 25.8331 19.6936
Au 21.5492 27.4169 20.176
Au 23.6295 29.1296 20.5774
Au 14.5751 16.3097 14.6715
Au 16.7711 18.1513 15.326
Au 19.0639 19.7069 15.9119
Au 19.9804 22.3958 16.0606
Au 21.0564 24.3147 17.7932
Au 23.2913 26.0267 18.3077
Au 25.3998 27.6731 18.8794
Au 16.6071 13.7856 14.693
Au 18.5457 15.6009 15.0717
Au 20.8583 17.421 15.8809
Au 21.7307 20.0437 15.8061
Au 22.7448 22.6806 16.0661
Au 25.1466 24.525 16.5009
Au 27.2736 26.0549 17.1733
Au 21.1417 13.0473 13.829
Au 23.2717 16.2564 15.0444
Au 24.2508 19.1656 15.029
Au 25.4703 21.8409 15.3515
Au 27.5396 23.6344 15.659
Au 25.6235 15.4151 14.2339
Au 26.743 18.2333 14.3513
Au 27.7985 20.9439 14.5165
Au 13.0787 23.3771 14.8977
Au 14.0767 25.699 16.6118
Au 15.4982 27.7855 18.1729
Au 16.4143 29.5856 20.0755
Au 13.4024 20.8632 13.6325
Au 15.5809 22.4534 14.0907
Au 16.6132 24.3949 15.6445
Au 17.8835 26.5431 17.4814
Au 19.0347 28.4728 19.5274
Au 20.9283 30.125 19.8303
Au 15.132 18.639 13.2773
Au 17.189 20.3454 13.7647
Au 18.5204 22.897 13.6979
Au 19.3697 25.0595 15.537
Au 20.6268 27.0183 17.2852
Au 22.929 28.65 17.9798
Au 16.8626 16.3022 13.2355
Au 19.0794 18 13.5809
Au 20.1333 20.7252 13.6261
Au 21.2103 23.4578 13.7969
Au 22.3802 25.472 15.5633
Au 24.6997 27.1551 16.1833
Au 18.7343 14.0622 12.949
Au 20.877 15.7562 13.6066
Au 21.9344 18.4498 13.4429
Au 22.9381 21.1402 13.5036
Au 24.1236 23.7751 13.9738
Au 26.0809 25.5762 14.3114
Au 23.2654 14.6866 12.7962
Au 24.6465 17.5756 12.7579
Au 25.6469 20.3554 12.7325
Au 26.6464 22.9877 13.0287
Au 14.0315 23.3632 12.2513
Au 14.7765 25.2617 13.9023
Au 16.4712 27.0379 15.4581
Au 17.5888 29.3382 17.3015
Au 18.4051 30.9858 19.1534
Au 15.6278 21.0419 11.7463
Au 16.724 23.7159 11.8774
Au 17.8121 25.7404 13.5269
Au 19.2089 27.893 15.2171
Au 20.2839 29.5986 17.2486
Au 17.612 18.8489 11.5661
Au 18.5083 21.5598 11.3212
Au 19.5287 24.1197 11.6457
Au 20.8532 26.2478 13.3168
Au 22.0745 28.2142 15.2905
Au 19.4996 16.3603 11.3694
Au 20.2665 19.2038 11.1906
Au 21.3343 21.8583 11.4356
Au 22.4423 24.5809 11.7465
Au 23.4495 26.626 13.4085
Au 21.1901 14.3205 11.312
Au 22.1575 17.0462 11.231
Au 23.6176 19.4671 11.4502
Au 24.2731 22.3968 11.7152
Au 25.1086 24.9955 11.9819
Au 11.5714 22.1127 24.7678
Au 12.9383 24.7735 24.7607
Au 11.8611 19.5121 23.4886
Au 14.1568 21.019 24.0062
Au 15.1007 23.7872 24.1471
Au 16.9418 27.2166 25.5243
Au 12.2675 16.5051 22.2603
Au 14.1964 18.4401 22.6488
Au 16.755 20.1965 23.3434
Au 17.7436 22.9793 23.39
Au 19.4978 26.4934 24.5955
Au 21.7701 28.0901 25.3984
Au 12.9366 14.1773 21.0188
Au 15.1112 15.8904 21.4125
Au 17.0463 17.6028 21.9302
Au 19.2007 19.1744 22.7507
Au 20.1812 21.8676 22.6474
Au 22.2664 23.7261 23.4137
Au 24.4229 25.417 24.0322
Au 26.534 27.0088 24.2401
Au 14.5248 12.8083 19.4735
Au 16.6764 14.0882 19.8976
Au 18.7174 15.9282 20.1837
Au 20.798 17.6016 20.929
Au 21.9973 19.5236 22.6755
Au 23.9873 21.5041 23.1293
Au 26.313 22.9471 23.6358
Au 28.3114 24.7145 24.0892
Au 19.1615 11.6705 17.9745
Au 21.4952 13.4407 18.6284
Au 23.3283 16.8287 20.0787
Au 24.5148 18.8911 21.9207
Au 26.8192 20.4174 22.5737
Au 29.0188 22.0274 23.1332
Au 23.7909 12.3726 17.8466
Au 25.5834 15.8366 19.2287
Au 27.0125 17.8882 21.3109
Au 29.1996 19.3824 21.9259
Au 28.2072 14.9715 18.5599
Au 29.4657 17.1248 20.4293
Au 13.1688 20.0544 26.4638
Au 13.812 22.5949 26.3735
Au 15.06 25.297 26.517
Au 13.338 17.1093 24.9906
Au 15.2942 18.8779 25.3089
Au 16.2887 21.6885 25.8551
Au 17.4033 24.3963 25.8546
Au 19.2567 27.4998 26.9971
Au 14.193 14.5886 23.4844
Au 16.0367 16.3896 24.2075
Au 17.9724 18.1051 24.9331
Au 18.9243 20.8728 24.9636
Au 19.9263 23.6129 24.8042
Au 22.2359 25.4005 25.5212
Au 24.3597 27.1105 26.1217
Au 15.4645 12.6869 22.0408
Au 17.3149 14.6367 22.5268
Au 19.5779 16.4946 23.0311
Au 20.719 18.5488 24.8967
Au 21.8666 21.302 24.8225
Au 24.1206 22.9859 25.6787
Au 26.2344 24.8668 26.0522
Au 16.8693 11.5752 19.8575
Au 19.322 13.2109 20.3161
Au 21.3277 14.966 20.951
Au 22.5268 16.9574 22.9742
Au 23.5578 19.0044 24.6335
Au 25.794 20.6375 25.1241
Au 28.0599 22.297 25.701
Au 21.7982 10.7956 19.1989
Au 23.6141 13.8798 20.2043
Au 25.1756 15.7881 22.0251
Au 26.1374 17.8331 23.8918
Au 28.4314 19.4966 24.6557
Au 26.1099 13.2748 19.585
Au 27.6256 15.0211 21.2549
Au 28.8491 17.1153 23.2737
Au 14.4336 18.0014 27.8068
Au 15.0902 20.4786 28.1751
Au 16.2792 23.0805 28.0274
Au 17.2272 25.789 28.0709
Au 14.9163 15.1765 26.3404
Au 16.7206 17.0378 27.0212
Au 17.619 19.6821 27.1537
Au 18.8435 22.2283 27.2007
Au 19.8895 24.9553 27.1603
Au 22.1502 26.6917 27.9997
Au 16.428 13.4473 24.8003
Au 18.3545 15.33 25.3056
Au 19.7568 17.4771 27.0014
Au 20.6688 20.1231 27.1148
Au 21.7123 22.9147 27.071
Au 23.9561 24.5087 27.7588
Au 18.0614 12.0571 22.5393
Au 20.0572 13.8623 23.3239
Au 21.3959 15.617 25.278
Au 22.6734 17.5723 26.8713
Au 23.5219 20.4381 26.8632
Au 25.872 22.0223 27.4587
Au 19.4251 10.4862 20.6513
Au 21.7066 12.2762 21.4051
Au 23.0379 14.2585 23.0601
Au 24.2372 16.1081 24.98
Au 25.3267 18.0503 26.6261
Au 27.2219 19.6725 27.1756
Au 24.1593 11.2746 20.6982
Au 25.4417 13.1788 22.3264
Au 26.8812 15.3102 23.9595
Au 27.8523 17.1947 25.9028
Au 15.9015 15.8878 29.1278
Au 16.7617 18.3604 29.4262
Au 17.5842 21.2028 29.4135
Au 18.7693 23.8468 29.2636
Au 19.8976 26.4723 29.3246
Au 17.1847 14.2716 27.3405
Au 18.5515 16.2927 29.1756
Au 19.5171 19.0524 29.4348
Au 20.7594 21.6322 29.5565
Au 21.6477 24.3034 29.3084
Au 18.9963 12.7445 25.4824
Au 20.1437 14.8093 27.3184
Au 21.2934 16.5453 29.038
Au 22.3136 19.2282 29.0599
Au 23.5348 22.0767 28.9956
Au 20.624 11.3053 23.5169
Au 21.9218 12.889 25.5126
Au 23.2219 14.9194 27.1906
Au 24.2285 16.8901 29.0514
Au 24.8584 19.6412 29.0769
Au 21.8918 9.80078 21.5337
Au 23.445 11.5207 23.3372
Au 24.6252 13.3691 25.1363
Au 25.9903 15.4704 26.8405
Au 26.7954 17.3729 28.5128
