32
 Atoms. Timestep: 50000
Au 18.1855 18.0064 21.7782
Au 20.5642 18.0105 23.7968
Au 17.1164 23.1109 20.1124
Au 21.2964 23.7292 20.7037
Au 18.7726 19.9652 23.3312
Au 22.7227 21.936 22.1189
Au 21.1598 20.2326 24.5074
Au 22.3423 18.3069 19.7171
Au 21.634 21.0285 19.4574
Au 18.4972 16.7479 19.3336
Au 21.1094 19.7818 21.815
Au 20.1498 22.3675 23.1789
Au 22.8067 21.584 16.8846
Au 18.9477 24.2654 21.5356
Au 23.7649 22.4869 19.4539
Au 23.0651 17.7899 22.2724
Au 16.8947 20.3069 21.18
Au 19.4543 19.1611 19.4934
Au 18.6306 18.6749 17.0593
Au 19.7833 21.3396 17.4194
Au 23.4104 19.8452 23.5558
Au 17.5014 22.3911 22.8368
Au 17.464 20.9802 18.632
Au 21.3506 19.3834 17.0648
Au 21.6302 23.5105 18.1983
Au 20.6353 17.0399 18.1415
Au 23.9146 19.8129 18.1903
Au 19.267 21.4841 20.8474
Au 24.0975 20.0105 20.7035
Au 20.5283 17.1222 21.3418
Au 19.1655 23.7003 18.8674
Au 16.7776 18.5276 19.1113
