32
 Atoms. Timestep: 50000
Au 18.3804 24.3845 19.914
Au 23.5798 18.7182 22.7679
Au 21.2903 18.7398 16.5037
Au 17.4777 22.0889 20.9676
Au 18.9242 19.6447 20.8104
Au 21.0922 24.4495 19.7351
Au 17.8884 17.4463 19.4943
Au 19.4704 23.8333 17.734
Au 23.0478 20.4789 17.4919
Au 19.2919 24.1248 22.0547
Au 23.7429 21.2786 22.6433
Au 23.8227 19.6694 20.2568
Au 21.7791 20.0125 24.2707
Au 23.0679 17.9341 18.2565
Au 17.944 21.7112 18.2395
Au 21.3953 20.0307 21.7328
Au 22.9778 22.177 20.0283
Au 17.171 20.4234 22.8328
Au 21.5679 22.8502 22.1734
Au 19.2641 18.9323 23.6404
Au 16.5624 19.6857 19.8455
Au 18.8095 19.1912 17.9001
Au 19.8257 17.1937 21.407
Au 20.4919 17.1851 18.5066
Au 17.1231 17.899 21.8959
Au 19.3377 21.5679 23.0823
Au 22.141 17.2738 20.7216
Au 20.3671 21.3092 17.2536
Au 22.0966 23.1463 17.7856
Au 20.0686 22.1195 20.0189
Au 21.2556 19.6468 19.1611
Au 21.3851 17.4935 23.5137
