32
 Atoms. Timestep: 50000
Au 18.7792 18.6308 18.0805
Au 20.4964 17.8137 23.1953
Au 19.2133 21.5154 20.8478
Au 21.312 23.3824 20.0635
Au 17.9972 22.4893 22.9089
Au 19.167 24.3925 21.3726
Au 23.7616 22.8952 21.4108
Au 20.9491 23.016 22.89
Au 23.0809 21.8887 23.5956
Au 20.629 20.868 18.6585
Au 17.5916 20.8967 18.7234
Au 17.2538 18.7569 20.3486
Au 19.5895 20.8866 16.5459
Au 24.3569 20.2852 21.1377
Au 16.4417 21.0908 21.2975
Au 22.7989 19.4083 18.8951
Au 21.4083 22.9662 17.2268
Au 18.7688 16.4065 19.4816
Au 17.1482 23.1439 20.3676
Au 20.467 20.5613 23.5006
Au 20.6143 16.0784 21.3509
Au 22.5928 20.8267 16.7344
Au 21.1818 18.7606 16.583
Au 21.025 17.235 18.7418
Au 19.9693 18.7493 20.783
Au 18.2165 17.0257 22.0963
Au 18.1991 19.6462 22.8612
Au 21.8182 20.9351 21.2198
Au 23.4641 21.9344 19.0603
Au 22.8486 19.2639 23.1585
Au 22.4396 17.8778 21.047
Au 19.0605 23.0125 18.4558
