32
 Atoms. Timestep: 50000
Au 19.6743 22.1441 18.5147
Au 22.4216 23.1935 22.0898
Au 18.3048 24.3675 22.1757
Au 18.6537 21.9093 20.8157
Au 17.194 21.5848 18.6013
Au 18.3308 17.713 21.4424
Au 24.182 20.8022 18.346
Au 23.9701 21.4481 20.8341
Au 21.1922 21.041 21.4982
Au 23.5558 19.4611 22.4528
Au 17.3314 22.106 23.066
Au 20.3787 16.7102 20.076
Au 16.0069 22.4175 20.8354
Au 16.8458 19.9803 21.5064
Au 21.8447 21.0386 23.9766
Au 21.5413 20.5279 17.4914
Au 18.8141 19.8405 17.3604
Au 24.8847 18.8497 20.2887
Au 22.804 16.4665 18.9381
Au 19.4389 19.4677 19.9296
Au 22.1918 22.5494 19.2639
Au 23.0735 17.0631 21.3326
Au 16.676 19.2518 19.1725
Au 20.2191 24.0123 20.641
Au 19.2096 20.3263 23.1705
Au 22.189 19.2142 19.76
Au 21.0333 18.4369 22.2526
Au 20.0868 22.98 23.3339
Au 17.9577 24.1336 19.4583
Au 18.3117 17.3784 18.6773
Au 23.5243 18.3977 17.7006
Au 20.7973 17.8269 17.6375
