33
 Atoms. Timestep: 50000
Au 22.6789 17.8415 20.0913
Au 17.4767 20.3928 23.0784
Au 19.1014 22.4175 16.905
Au 21.301 18.6978 17.5754
Au 19.83 23.7473 21.5304
Au 23.0937 22.4918 17.9695
Au 22.0926 23.1804 20.3518
Au 19.0448 21.0909 21.1439
Au 21.3619 22.5892 23.0771
Au 20.7101 23.9931 18.4209
Au 23.8212 21.8455 22.933
Au 17.9898 20.6482 18.5567
Au 20.1786 18.5696 20.1637
Au 18.7951 22.5084 23.9734
Au 20.624 21.2527 18.9312
Au 18.2151 16.5588 19.9119
Au 18.514 18.1858 17.9673
Au 23.2052 20.1915 18.754
Au 20.0867 19.9485 23.5475
Au 20.6233 16.1411 21.1629
Au 24.2156 21.6192 20.3993
Au 21.528 21.2501 16.3768
Au 18.3231 23.12 19.2981
Au 20.5838 16.3583 18.6517
Au 19.4162 20.0079 16.2166
Au 17.3007 23.1754 21.9815
Au 24.0898 19.1531 22.1167
Au 21.8113 17.9647 22.6137
Au 17.2686 18.7376 20.5186
Au 22.5468 19.8962 24.1816
Au 18.7548 17.7626 22.505
Au 16.3983 21.2269 20.6639
Au 22.0536 20.4706 21.4659
