33
 Atoms. Timestep: 50000
Au 21.7922 17.2118 22.616
Au 18.1573 19.4454 17.2918
Au 22.6188 17.9489 20.2987
Au 20.2331 19.294 18.9918
Au 17.2342 21.7872 19.1027
Au 19.8588 17.4476 16.5887
Au 19.5689 23.7887 20.0596
Au 21.0295 16.518 18.6346
Au 17.8659 19.2924 22.5794
Au 21.4474 23.9641 18.2081
Au 22.2885 21.516 17.4821
Au 19.9874 20.5859 23.9801
Au 19.9714 23.3308 22.6076
Au 19.5538 21.6918 17.913
Au 21.4491 21.684 20.0646
Au 22.3513 18.62 17.4013
Au 21.1601 19.5129 21.8301
Au 23.7777 22.0952 21.4626
Au 23.6865 23.1071 19.1491
Au 17.3681 23.3546 21.2325
Au 18.4386 17.0738 18.6472
Au 16.2284 21.0276 21.3854
Au 17.2454 19.1888 19.8576
Au 22.0761 18.9844 24.3037
Au 19.6214 17.7798 23.6291
Au 23.6037 20.273 19.5333
Au 19.0426 21.2466 21.1663
Au 17.687 22.1628 23.4932
Au 22.0462 21.7114 23.282
Au 21.9425 24.202 20.9467
Au 19.4754 17.5714 20.9383
Au 23.6552 19.4752 22.272
Au 20.5725 20.1418 16.0858
