3348
 Atoms. Timestep: 50000
Au -3.00869 27.9138 26.0963
Au -1.33269 29.8469 26.9456
Au 0.369863 31.9764 27.8131
Au 1.92745 34.1562 28.3981
Au 3.73638 36.1871 29.283
Au 5.62798 38.3719 29.8396
Au -2.6297 24.2234 24.2976
Au -0.837898 26.5434 25.2267
Au 0.808737 28.5398 26.2232
Au 2.5668 30.5317 27.0024
Au 4.13873 32.7598 27.6407
Au 5.92022 35.0118 28.4197
Au 7.81059 37.0573 29.0219
Au 9.5158 39.103 30.1536
Au -2.16152 20.6874 22.8179
Au -0.396455 22.7153 23.5163
Au 1.33079 24.8302 24.4488
Au 3.07846 27.0977 25.1933
Au 4.7489 29.1269 25.886
Au 6.46179 31.4809 26.6657
Au 8.16917 33.6042 27.5181
Au 10.1593 35.619 28.3335
Au 11.8941 37.7158 29.386
Au 13.5373 39.8575 29.9076
Au -1.64211 16.9159 21.1474
Au 0.0729259 18.9692 21.934
Au 1.86462 21.1558 22.6454
Au 3.60633 23.6534 23.4779
Au 5.32037 25.6785 24.2405
Au 7.11434 27.7597 24.9351
Au 8.79651 29.7647 25.6394
Au 10.4741 31.9878 26.6266
Au 12.3853 34.1251 27.4701
Au 14.0557 36.4371 28.0751
Au 16.0207 38.5046 29.0255
Au 17.7291 40.5199 29.9146
Au -1.10889 13.3977 19.6557
Au 0.529396 15.3797 20.2915
Au 2.2307 17.5082 21.1192
Au 4.16106 19.6748 21.9193
Au 5.8885 21.9241 22.5815
Au 7.62529 24.1338 23.4204
Au 9.36516 26.2435 23.9562
Au 11.0897 28.4494 24.7968
Au 12.7294 30.5317 25.6238
Au 14.3831 32.4323 26.3792
Au 16.4328 34.6954 27.2698
Au 18.0145 36.8291 28.0483
Au 19.6667 39.0039 28.7362
Au 21.5949 40.9414 29.4012
Au -0.454185 9.64579 17.5744
Au 1.01029 11.8292 18.7086
Au 2.95961 14.012 19.3118
Au 4.65522 16.0509 20.0432
Au 6.23531 18.2039 20.8584
Au 8.12298 20.4231 21.6976
Au 9.83635 22.5626 22.4166
Au 11.6284 24.5627 23.1137
Au 13.3657 26.6676 23.9767
Au 14.9388 28.9758 24.9101
Au 16.7773 31.1432 25.524
Au 18.6663 33.1949 26.203
Au 20.3227 35.3587 26.9631
Au 22.1632 37.5789 27.7667
Au 23.9244 39.7152 28.6197
Au 25.7667 41.707 29.2314
Au 0.642567 5.90397 16.0403
Au 1.82342 8.05736 16.8872
Au 3.50426 10.1909 17.4969
Au 5.12279 12.3326 18.3505
Au 6.67229 14.4397 19.0786
Au 8.4832 16.7164 19.9935
Au 10.1987 18.9186 20.6802
Au 11.7918 20.9643 21.4819
Au 13.6787 22.8314 22.0632
Au 15.6301 25.1341 23.1646
Au 17.1349 27.3339 23.8134
Au 18.8018 29.4906 24.5864
Au 20.7728 31.5953 25.3652
Au 22.6782 33.912 26.225
Au 24.5225 35.9361 26.8431
Au 26.065 38.0108 27.6311
Au 27.8715 40.0716 28.4882
Au 29.588 41.9649 29.183
Au 2.89823 4.39485 15.0891
Au 4.15841 6.45324 15.9073
Au 5.63315 8.7595 16.4346
Au 7.32524 10.7699 17.2756
Au 9.27991 12.8247 18.266
Au 10.8849 15.2156 18.9997
Au 12.6448 17.3432 19.6989
Au 14.2677 19.6866 20.5161
Au 16.0976 21.6473 21.4422
Au 17.8541 23.8477 22.1628
Au 19.7596 25.9269 22.9331
Au 21.3603 28.2137 23.7939
Au 23.1929 30.2538 24.5609
Au 24.8837 32.3427 25.2259
Au 26.6472 34.4387 25.9871
Au 28.405 36.6219 26.8667
Au 30.1818 38.6966 27.5989
Au 31.8943 40.6696 27.9935
Au 5.00031 2.6572 14.2532
Au 6.14937 4.85928 14.9373
Au 7.83864 6.97356 15.7012
Au 9.36475 9.34744 16.5108
Au 11.3386 11.4123 17.2894
Au 13.2611 13.7749 18.1483
Au 15.0468 15.817 18.8764
Au 16.6146 18.003 19.8117
Au 18.3576 20.1894 20.3582
Au 19.942 22.2486 21.357
Au 21.8328 24.4965 22.2002
Au 23.6058 26.6558 23.0354
Au 25.3432 28.8178 23.5105
Au 27.1462 30.8484 24.4371
Au 29.0781 33.0679 25.2373
Au 30.7836 34.9716 26.053
Au 32.3726 37.0333 26.7116
Au 33.8915 39.1117 27.3493
Au 6.98551 1.47112 13.1242
Au 8.49812 3.57306 14.063
Au 10.1712 5.5716 14.8827
Au 11.901 7.76397 15.6528
Au 13.6009 9.91194 16.4866
Au 15.4172 12.1652 17.2106
Au 17.1763 14.3415 17.9146
Au 18.7673 16.5372 18.7099
Au 20.5619 18.6337 19.6138
Au 22.4271 20.7876 20.2801
Au 24.0666 23.0381 21.2924
Au 25.9827 25.2066 21.9024
Au 27.6344 27.358 22.6336
Au 29.3934 29.4151 23.433
Au 31.2743 31.5593 24.3706
Au 33.0501 33.6401 25.0526
Au 34.7144 35.6267 26.1236
Au 36.3066 37.8496 26.6186
Au 9.23132 -0.151937 12.5049
Au 10.6854 2.02394 13.3325
Au 12.3593 4.05933 13.8659
Au 14.3066 6.23586 14.6697
Au 15.8757 8.38912 15.4284
Au 17.7271 10.6055 16.2662
Au 19.4965 12.7502 17.0615
Au 21.0959 14.8795 17.9684
Au 22.9405 17.0479 18.6637
Au 24.814 19.3149 19.5099
Au 26.2876 21.4372 20.3874
Au 28.1604 23.5064 21.0239
Au 29.9949 25.7463 21.9168
Au 31.6475 27.7665 22.7611
Au 33.4081 30.0277 23.3319
Au 35.3498 31.9092 24.3882
Au 36.8641 34.2012 25.0486
Au 38.4471 36.3504 25.688
Au 11.5085 -1.47489 11.9298
Au 13.036 0.600394 12.3414
Au 14.7771 2.4896 12.9701
Au 16.4718 4.75111 13.7365
Au 18.3655 6.99831 14.7302
Au 20.0641 9.00052 15.4952
Au 21.6291 11.0691 16.1177
Au 23.3374 13.4409 16.9139
Au 25.1532 15.4801 17.6821
Au 26.9859 17.7445 18.4068
Au 28.6483 19.8565 19.337
Au 30.3279 21.9026 20.1624
Au 32.2677 24.0646 20.9003
Au 33.935 26.2411 21.5885
Au 35.5633 28.4105 22.7124
Au 37.4081 30.3563 23.3742
Au 38.9536 32.6699 24.0223
Au 40.4306 34.6511 24.754
Au 15.122 -1.00369 11.4655
Au 17.1143 0.99122 12.1961
Au 18.8185 3.14623 12.7882
Au 20.4594 5.4711 13.8131
Au 22.2382 7.65555 14.4349
Au 23.9505 9.781 15.1823
Au 25.7373 11.914 16.0691
Au 27.4339 14.0005 16.8642
Au 29.2758 16.2489 17.4752
Au 31.1171 18.3877 18.485
Au 32.6344 20.6382 19.1577
Au 34.4787 22.4801 19.9573
Au 36.2169 24.6179 20.7212
Au 37.9501 26.9554 21.5345
Au 39.7178 28.9931 22.4339
Au 41.2972 31.1953 23.1839
Au 19.4001 -0.463592 11.2789
Au 21.0443 1.50196 11.9704
Au 22.794 3.92509 12.8958
Au 24.4566 5.95175 13.7431
Au 26.2084 8.22121 14.2051
Au 27.9892 10.2185 15.2315
Au 29.7135 12.5567 15.733
Au 31.5733 14.7572 16.684
Au 33.2952 16.8448 17.4881
Au 34.94 19.0068 18.2205
Au 36.7902 21.1107 19.0009
Au 38.4832 23.2389 19.8302
Au 40.4387 25.6044 20.6902
Au 42.0215 27.7422 21.3794
Au 23.3394 0.208812 11.0673
Au 25.0113 2.31275 11.9772
Au 26.6984 4.53493 12.7379
Au 28.5392 6.79993 13.5119
Au 30.3082 8.73726 14.1861
Au 31.9697 10.8833 14.927
Au 33.8317 13.1572 15.7341
Au 35.5466 15.162 16.5868
Au 37.1751 17.3668 17.5771
Au 39.1055 19.6877 18.2424
Au 40.9015 21.8522 18.7886
Au 42.5712 23.994 19.5238
Au 27.2061 0.723331 11.3156
Au 28.9012 2.95967 11.7468
Au 30.873 5.4628 12.5308
Au 32.6499 7.5137 13.1949
Au 34.3907 9.59033 14.0972
Au 36.1423 11.5701 14.9885
Au 37.7899 13.7961 15.4508
Au 39.4334 16.0144 16.3699
Au 41.399 18.2781 17.1358
Au 42.9219 20.2988 18.0763
Au 31.3155 1.56654 10.9122
Au 32.9586 3.80745 11.713
Au 34.6784 5.86157 12.1936
Au 36.5373 7.91712 13.1298
Au 38.3419 10.0097 13.8305
Au 39.9965 12.1806 14.6707
Au 41.5485 14.4017 15.5236
Au 43.4106 16.7632 16.3493
Au 35.009 2.27781 10.9644
Au 36.852 4.41564 11.6027
Au 38.7101 6.49248 12.5197
Au 40.2674 8.51859 13.0256
Au 41.8008 10.5217 13.8728
Au 43.2475 12.5434 14.4155
Au -2.95258 26.9797 23.5295
Au -1.19006 29.057 24.2873
Au 0.292011 31.1199 25.2244
Au 2.12419 33.0641 25.8146
Au 3.63426 35.4905 26.6384
Au 5.45312 37.602 27.2512
Au 7.44548 39.5593 27.9636
Au -2.5577 23.1366 21.727
Au -0.917394 25.5083 22.5659
Au 0.947924 27.5855 23.4113
Au 2.52167 29.7612 24.2587
Au 4.257 31.6987 24.7333
Au 5.97961 34.095 25.678
Au 7.78413 36.3841 26.3132
Au 9.80463 38.3405 27.4493
Au 11.1923 40.4278 28.0659
Au -2.08519 19.6988 20.1862
Au -0.357037 21.7049 20.9566
Au 1.39577 23.7734 21.8215
Au 3.1681 26.2335 22.5238
Au 4.7076 28.4187 23.2518
Au 6.7159 30.3741 24.0106
Au 8.29735 32.5525 24.6599
Au 10.0657 34.7497 25.5751
Au 11.961 36.786 26.3969
Au 13.575 38.9352 27.1597
Au 15.0381 40.898 27.9732
Au -1.66687 15.9364 18.3029
Au -0.0984322 17.8705 19.2593
Au 1.77371 20.2687 20.0583
Au 3.63972 22.2489 20.7233
Au 5.22728 24.5826 21.4846
Au 6.98444 26.6421 22.2758
Au 8.8425 28.7978 22.954
Au 10.5787 30.8781 23.7942
Au 12.325 33.3776 24.6362
Au 14.1901 35.168 25.5881
Au 15.8742 37.4253 26.2744
Au 17.3897 39.6085 27.0432
Au 19.1788 41.576 27.5889
Au -0.882496 12.1541 16.7919
Au 0.651933 14.373 17.5161
Au 2.40934 16.5645 18.3717
Au 4.06311 18.7586 19.2307
Au 5.84508 20.964 19.883
Au 7.60992 23.0266 20.7247
Au 9.34564 25.1923 21.2653
Au 11.2346 27.2118 22.0757
Au 12.8304 29.433 22.985
Au 14.4414 31.5312 23.8245
Au 16.4023 33.7668 24.571
Au 18.1505 35.846 25.3383
Au 19.8643 38.0788 26.004
Au 21.6019 40.3676 26.8177
Au 23.3987 42.2006 27.691
Au -0.121402 8.4467 15.1962
Au 1.41341 10.669 15.8937
Au 3.03548 12.8147 16.4888
Au 4.75898 14.8635 17.3187
Au 6.56668 17.2241 18.0842
Au 8.12412 19.4163 18.9957
Au 9.8357 21.5147 19.6612
Au 11.7437 23.6715 20.5215
Au 13.4342 25.8387 21.3263
Au 15.0454 27.924 22.0627
Au 16.9186 30.0641 22.779
Au 18.6351 32.1922 23.5353
Au 20.4673 34.4554 24.3321
Au 22.1156 36.6062 25.155
Au 23.9578 38.672 25.7894
Au 25.6265 40.8168 26.6342
Au 27.4779 42.6409 27.1771
Au 2.01389 6.95933 14.196
Au 3.61751 9.11934 14.7121
Au 5.14107 11.4385 15.396
Au 6.81713 13.5164 16.3381
Au 8.64575 15.4889 17.2854
Au 10.2784 17.8337 18.0658
Au 12.2153 20.0597 18.8366
Au 14.1096 22.2183 19.4107
Au 15.6112 24.2775 20.3687
Au 17.3699 26.5815 21.2081
Au 19.1762 28.4813 22.0025
Au 20.8712 30.8158 22.6365
Au 22.6545 33.0338 23.5041
Au 24.5513 35.0931 24.2248
Au 26.2873 37.1459 25.0167
Au 27.9334 39.4749 25.7953
Au 29.7907 41.3632 26.636
Au 4.24653 5.27744 12.7527
Au 5.74775 7.5228 13.7398
Au 7.32456 9.86717 14.5503
Au 9.05204 11.9455 15.4949
Au 10.919 14.1065 16.329
Au 12.4856 16.3407 17.1013
Au 14.4275 18.4624 17.711
Au 16.1315 20.4803 18.5531
Au 18.0614 22.6699 19.344
Au 19.5303 24.9492 20.3045
Au 21.4149 27.1179 20.9255
Au 23.0212 29.2491 21.875
Au 24.8204 31.3008 22.6188
Au 26.8153 33.5403 23.3111
Au 28.5895 35.6095 24.1004
Au 30.2128 37.8213 25.0028
Au 32.0397 39.6997 25.5505
Au 6.47241 3.89752 12.1996
Au 7.81018 6.12078 13.0456
Au 9.55523 8.11842 13.9357
Au 11.2838 10.5019 14.6692
Au 13.2027 12.5293 15.5094
Au 14.8836 14.9233 16.1863
Au 16.6417 16.9383 16.9085
Au 18.2699 19.1272 17.6983
Au 20.2589 21.1919 18.4583
Au 21.9081 23.3522 19.4022
Au 23.6886 25.6449 20.1062
Au 25.2764 27.7318 20.8818
Au 27.1856 29.9124 21.6924
Au 28.9154 31.9833 22.4694
Au 30.8549 34.1029 23.1397
Au 32.3584 36.2201 24.0402
Au 34.3592 38.0814 24.7443
Au 8.74787 2.30833 11.3611
Au 10.1516 4.57878 12.1091
Au 11.8253 6.71091 13.0605
Au 13.7106 8.89519 13.7583
Au 15.3522 11.1435 14.5146
Au 17.3549 13.1695 15.2171
Au 18.9496 15.401 16.0535
Au 20.5494 17.5245 16.9581
Au 22.411 19.537 17.7469
Au 24.0353 21.9429 18.4613
Au 25.8388 24.0741 19.3357
Au 27.7808 26.3835 20.1321
Au 29.6736 28.3237 20.8665
Au 31.2574 30.6793 21.7088
Au 33.1033 32.602 22.4056
Au 34.6425 34.828 23.3237
Au 36.4891 37.0376 23.9144
Au 10.892 0.742621 10.4365
Au 12.4514 3.12579 11.2024
Au 14.164 5.36221 12.0233
Au 16.1443 7.39686 12.7304
Au 17.8483 9.61697 13.5343
Au 19.5013 11.7568 14.4318
Au 21.1865 13.9903 15.0796
Au 22.9166 15.9086 15.947
Au 24.6566 17.9744 16.6742
Au 26.3688 20.3199 17.6002
Au 28.1098 22.5184 18.2621
Au 29.9773 24.7282 19.3239
Au 31.7267 26.7676 20.0037
Au 33.5246 28.9029 20.7266
Au 35.2634 31.0134 21.5067
Au 36.7344 33.314 22.3394
Au 38.5694 35.4178 23.0882
Au 13.065 -0.67773 9.83408
Au 14.7804 1.50536 10.3333
Au 16.5962 3.65014 11.0636
Au 18.3326 5.73709 12.0249
Au 19.9342 8.02216 12.6313
Au 21.8221 10.0945 13.4451
Au 23.6049 12.2888 14.105
Au 25.2632 14.4992 15.0171
Au 26.8883 16.6901 15.8799
Au 28.7027 19.0196 16.6308
Au 30.4535 21.0019 17.4353
Au 32.1691 23.1946 18.2811
Au 34.039 25.2817 19.0819
Au 35.8922 27.3216 19.8271
Au 37.4935 29.5368 20.5636
Au 39.0481 31.6446 21.4236
Au 40.5023 33.6267 22.1261
Au 17.0998 0.0197312 9.71902
Au 18.8605 2.19557 10.2481
Au 20.7066 4.24312 11.0235
Au 22.4025 6.51624 11.8428
Au 24.142 8.8585 12.5027
Au 25.8529 10.8491 13.259
Au 27.5605 12.8261 14.1909
Au 29.222 15.101 14.8669
Au 31.1077 17.527 15.5406
Au 32.7804 19.5898 16.2626
Au 34.3398 21.6581 17.1363
Au 36.3017 23.5567 18.1698
Au 38.0467 25.8644 18.9233
Au 39.7195 28.1574 19.6002
Au 41.2703 30.1751 20.564
Au 21.0803 0.868133 9.43337
Au 23.0444 2.78665 10.1245
Au 24.6333 5.08201 10.9251
Au 26.3584 7.1164 11.7839
Au 28.1344 9.4995 12.319
Au 29.8154 11.4451 13.1726
Au 31.5687 13.6455 13.8995
Au 33.2556 15.8389 14.6437
Au 35.0909 17.8723 15.6205
Au 36.8033 20.1392 16.2445
Au 38.6987 22.2487 17.0337
Au 40.2886 24.5216 17.9279
Au 41.9719 26.6541 18.7299
Au 25.1525 1.35266 9.20206
Au 26.8172 3.25677 10.0667
Au 28.6327 5.74697 10.8304
Au 30.3419 7.95366 11.3246
Au 32.0327 10.1604 12.155
Au 33.8522 12.037 13.1198
Au 35.4219 14.2249 13.7481
Au 37.1862 16.5577 14.8128
Au 39.0533 18.6786 15.5676
Au 40.8853 20.8745 16.1992
Au 42.5628 23.0426 17.0032
Au 29.0895 2.20063 9.05164
Au 30.7431 4.21034 9.96122
Au 32.5544 6.37417 10.374
Au 34.3 8.74029 11.1599
Au 36.1972 10.6279 12.0641
Au 37.922 12.5669 12.7593
Au 39.5134 14.9751 13.6268
Au 41.2368 16.9453 14.5153
Au 43.0729 19.4128 15.2808
Au 32.9141 2.83366 9.12437
Au 34.8283 4.78128 9.71072
Au 36.4816 7.23456 10.3785
Au 38.3157 9.03108 11.1447
Au 40.018 11.1373 11.7679
Au 41.5994 13.3838 12.5644
Au 43.3587 15.5657 13.7424
Au -2.8587 26.0425 20.644
Au -1.29871 28.3428 21.5797
Au 0.524401 30.3199 22.3935
Au 2.25081 32.3971 23.1595
Au 3.85184 34.4397 23.9613
Au 5.62962 36.6778 24.5428
Au 7.23569 38.9022 25.3059
Au 9.2217 40.509 26.1394
Au -2.43007 22.1057 19.2246
Au -0.78833 24.3707 19.9528
Au 0.742108 26.7397 20.4964
Au 2.61918 28.9069 21.4972
Au 4.28377 31.0279 22.0636
Au 6.22231 33.1119 22.8156
Au 7.94189 35.2049 23.771
Au 9.56115 37.6309 24.575
Au 11.5943 39.4745 25.3558
Au 13.1374 41.7751 26.0505
Au -2.18075 18.6292 17.1633
Au -0.505314 20.7126 18.1104
Au 1.36613 22.9278 19.0579
Au 2.90977 25.1249 19.7718
Au 4.86114 27.2501 20.3787
Au 6.57215 29.3165 21.1638
Au 8.36171 31.4912 21.9515
Au 10.3567 33.7278 22.8621
Au 11.8439 35.9918 23.681
Au 13.6087 37.9411 24.3719
Au 15.4027 39.8711 25.4081
Au 17.0465 42.2806 25.9982
Au -1.38608 14.747 15.8451
Au 0.208806 17.1027 16.5853
Au 1.84453 19.2478 17.3846
Au 3.58739 21.3653 18.0371
Au 5.34483 23.5503 18.9335
Au 7.1068 25.5843 19.6715
Au 8.92172 27.7296 20.2584
Au 10.7823 29.9385 21.1163
Au 12.3577 32.2162 21.9412
Au 14.0767 34.2527 22.7703
Au 15.8772 36.4516 23.6038
Au 17.6603 38.5886 24.2158
Au 19.1378 40.7804 25.1414
Au 20.8183 42.8085 25.7159
Au -0.81277 11.1343 14.3796
Au 0.749757 13.2502 14.9135
Au 2.56425 15.4817 15.6826
Au 4.22639 17.6981 16.5242
Au 5.89401 19.9789 17.352
Au 7.65323 22.0719 17.9309
Au 9.39415 24.1978 18.6315
Au 11.4183 26.2052 19.3501
Au 12.9788 28.5708 20.3096
Au 14.8359 30.6576 21.0549
Au 16.3407 32.7828 21.9524
Au 18.2647 35.0445 22.6738
Au 19.8806 37.0881 23.3293
Au 21.7255 39.1045 24.0879
Au 23.4473 41.3961 24.9481
Au 25.2657 43.2453 25.5321
Au 1.19509 9.56289 13.0907
Au 2.86216 11.7627 13.6736
Au 4.83419 14.2072 14.5952
Au 6.48322 16.2506 15.4806
Au 8.20985 18.5378 16.2301
Au 9.923 20.6367 17.0967
Au 11.6342 22.6975 17.936
Au 13.6847 24.9092 18.5564
Au 15.2065 27.097 19.4217
Au 16.8844 29.1471 20.1572
Au 18.6406 31.2276 20.9974
Au 20.3969 33.4807 21.7194
Au 22.36 35.6747 22.3623
Au 23.8837 37.8471 23.1074
Au 25.7469 39.8928 23.9884
Au 27.6594 41.9404 24.6419
Au 3.57002 8.00646 11.9986
Au 5.33397 10.1984 12.6783
Au 6.98611 12.5359 13.7155
Au 8.72148 14.5423 14.4846
Au 10.3508 16.7559 15.2804
Au 12.072 18.9547 16.0619
Au 13.8121 21.098 16.8519
Au 15.752 23.2789 17.5083
Au 17.457 25.5007 18.5539
Au 19.1051 27.6387 19.1572
Au 20.883 29.715 19.9701
Au 22.6563 31.9689 20.8544
Au 24.4807 34.1257 21.6363
Au 26.3679 36.2148 22.3543
Au 28.0398 38.3919 23.0649
Au 29.7231 40.3667 23.8899
Au 5.8217 6.55258 11.058
Au 7.47901 8.7204 11.8432
Au 9.38725 10.7696 12.7755
Au 10.948 12.9409 13.6769
Au 12.7146 15.1452 14.4215
Au 14.3631 17.4195 15.1335
Au 16.3381 19.7305 15.9136
Au 18.0419 21.8427 16.6788
Au 19.7158 24.0465 17.5949
Au 21.4252 26.0385 18.3867
Au 23.1535 28.2688 19.1051
Au 24.7807 30.3118 19.9595
Au 26.7057 32.632 20.5986
Au 28.5228 34.672 21.3733
Au 30.3767 36.6584 22.0858
Au 32.0178 38.7565 23.0306
Au 8.0838 4.8383 10.1404
Au 9.59213 7.10914 10.864
Au 11.5691 9.44078 11.8727
Au 13.2753 11.4781 12.796
Au 15.0961 13.6917 13.6369
Au 16.701 15.9295 14.1816
Au 18.4983 18.004 15.0164
Au 20.2698 20.1906 15.8388
Au 21.9758 22.3704 16.6616
Au 23.6587 24.6087 17.3959
Au 25.5287 26.5879 18.2375
Au 27.0136 28.934 18.9932
Au 29.0081 30.8711 19.7417
Au 30.9925 33.1547 20.443
Au 32.8204 35.3118 21.2423
Au 34.2939 37.5851 21.924
Au 10.462 3.3898 9.29758
Au 11.8763 5.63068 10.1822
Au 13.6588 7.67113 11.0285
Au 15.4396 9.96534 11.8148
Au 17.2035 12.0473 12.4941
Au 18.9706 14.4507 13.1973
Au 20.7235 16.6255 14.2193
Au 22.6151 18.7172 14.9341
Au 24.0324 20.7813 15.9068
Au 25.8923 23.0454 16.6485
Au 27.8223 25.1037 17.5488
Au 29.4501 27.409 18.1945
Au 31.2576 29.5642 19.0245
Au 33.1925 31.5751 19.8034
Au 34.9376 33.8509 20.3787
Au 36.3763 35.8907 21.2828
Au 12.7113 1.92153 8.66215
Au 14.2381 4.33899 9.3621
Au 16.058 6.4532 10.0408
Au 17.8799 8.47049 10.7895
Au 19.5697 10.6551 11.6106
Au 21.1902 12.867 12.4051
Au 22.9039 14.9818 13.233
Au 24.7867 16.9127 14.0132
Au 26.5003 19.3413 14.8412
Au 28.0515 21.464 15.6251
Au 30.0414 23.8261 16.4266
Au 31.8177 25.7104 17.3393
Au 33.3226 27.9824 17.9903
Au 35.357 30.0931 18.627
Au 37.0921 32.1959 19.4333
Au 38.2661 34.4132 20.284
Au 14.933 0.449446 7.87878
Au 16.5877 2.67206 8.42542
Au 18.3566 4.83271 9.21403
Au 20.0968 7.01399 9.9323
Au 21.8416 9.13321 10.8274
Au 23.4378 11.3969 11.4144
Au 25.1719 13.4416 12.1239
Au 27.1705 15.4734 13.115
Au 28.6846 17.7611 14.0586
Au 30.595 20.0953 14.6833
Au 32.2237 22.2447 15.293
Au 34.1093 24.3923 16.3499
Au 35.6702 26.4696 17.2154
Au 37.41 28.6779 17.5606
Au 39.2818 30.6164 18.5299
Au 40.4451 32.9866 19.5016
Au 18.9523 1.37237 7.58805
Au 20.6576 3.33801 8.30167
Au 22.2726 5.46166 9.09058
Au 24.1162 7.63288 9.85658
Au 25.8601 9.82735 10.7057
Au 27.5306 12.1107 11.3119
Au 29.4106 14.1557 12.1824
Au 31.0878 16.3714 12.9893
Au 32.895 18.5268 13.6492
Au 34.5736 20.6434 14.4756
Au 36.3291 22.8342 15.5396
Au 37.8965 24.9949 16.1915
Au 39.7954 27.1845 16.9925
Au 41.5672 29.224 17.7563
Au 22.8043 1.7101 7.55496
Au 24.5811 4.0215 8.12569
Au 26.2892 6.08051 9.15891
Au 28.0131 8.43416 9.64251
Au 29.8797 10.5524 10.5041
Au 31.577 12.7807 11.1725
Au 33.2492 14.9867 11.905
Au 35.2103 16.8511 12.8418
Au 36.9018 19.1045 13.6211
Au 38.6467 21.4106 14.5586
Au 40.3847 23.697 15.235
Au 42.067 25.756 16.056
Au 26.8869 2.39607 7.51758
Au 28.4193 4.80163 8.15332
Au 30.3431 6.77879 8.65939
Au 31.9552 9.0157 9.49364
Au 33.8028 11.2214 10.3704
Au 35.5983 13.3958 10.8632
Au 37.3044 15.2901 11.9805
Au 39.1227 17.6142 12.4948
Au 40.8512 19.7169 13.6146
Au 42.6051 22.1864 14.2165
Au 30.8176 3.55374 7.42592
Au 32.6026 5.41986 7.7124
Au 34.4013 7.40651 8.62126
Au 36.305 9.67443 9.40655
Au 37.8574 11.8679 10.1187
Au 39.494 14.0569 10.8879
Au 41.3117 16.0212 11.8831
Au 42.8887 18.1994 12.8418
Au -2.7805 24.956 18.0799
Au -1.34549 27.0824 18.7792
Au 0.346849 29.4855 19.6498
Au 2.17597 31.5703 20.389
Au 3.94734 33.5762 21.2355
Au 5.68594 35.7849 22.0251
Au 7.53815 37.884 22.8298
Au 9.12428 40.1836 23.5273
Au 11.1457 41.9172 24.3939
Au -2.4483 21.3494 16.3982
Au -0.711581 23.4765 17.329
Au 0.91215 25.7145 18.0102
Au 2.58896 27.8139 18.7699
Au 4.24386 30.1403 19.3911
Au 6.1716 31.9879 20.2522
Au 7.86705 34.2946 21.0105
Au 9.70694 36.3732 22.0251
Au 11.403 38.6866 22.6684
Au 13.2183 40.5902 23.4555
Au 14.8819 42.7977 24.1
Au -1.70728 17.5947 14.6415
Au -0.263518 19.8127 15.3964
Au 1.44517 21.9476 16.3182
Au 2.98173 24.112 17.0893
Au 4.8329 26.1689 17.7845
Au 6.61804 28.3428 18.4827
Au 8.43212 30.4122 19.3742
Au 10.1813 32.737 20.2265
Au 11.8467 34.9588 21.007
Au 13.6123 37.084 21.7068
Au 15.48 39.0407 22.4248
Au 16.9783 41.2226 23.4504
Au 18.9175 43.2851 23.9157
Au -1.14837 14.024 13.1785
Au 0.364558 16.0103 14.0355
Au 2.11639 18.2107 14.8078
Au 3.74384 20.2464 15.4463
Au 5.38811 22.496 16.1309
Au 7.14095 24.5516 16.8386
Au 8.94333 26.845 17.644
Au 10.6797 28.9536 18.45
Au 12.4627 31.1433 19.294
Au 14.3209 33.3782 20.0701
Au 15.9224 35.5946 20.8604
Au 17.7373 37.6239 21.5121
Au 19.3869 39.8504 22.3901
Au 21.2457 41.768 23.2254
Au 23.1157 43.7823 23.6991
Au 0.697623 12.407 12.1269
Au 2.40785 14.4701 12.8624
Au 4.34752 16.8076 13.4777
Au 6.0035 18.8098 14.4756
Au 7.69915 20.9668 15.1449
Au 9.39145 23.1704 16.0157
Au 11.3595 25.2006 16.7459
Au 12.9354 27.448 17.464
Au 14.751 29.6188 18.3748
Au 16.4826 31.9514 19.218
Au 18.1746 33.9485 19.8899
Au 19.9949 36.0944 20.7427
Au 21.548 38.2927 21.4945
Au 23.5967 40.4832 22.1952
Au 25.3634 42.6117 22.8818
Au 3.12962 10.7431 11.1928
Au 4.8021 12.8547 11.9734
Au 6.69664 15.2846 12.6136
Au 8.13642 17.3701 13.5976
Au 10.0773 19.469 14.3012
Au 11.7398 21.7207 15.254
Au 13.5338 23.9301 15.7945
Au 15.3084 26.1229 16.7024
Au 16.9419 28.2235 17.3368
Au 18.6642 30.2331 18.1523
Au 20.5162 32.3362 18.8977
Au 22.1751 34.6479 19.7602
Au 24.0117 36.9463 20.6326
Au 25.9121 38.8514 21.1817
Au 27.736 40.9735 22.0282
Au 5.32068 9.23176 10.03
Au 6.90144 11.4193 10.915
Au 8.66155 13.6441 11.89
Au 10.4742 15.7366 12.5979
Au 12.2291 17.7324 13.4111
Au 14.064 20.0605 14.1671
Au 15.7113 22.2758 14.8863
Au 17.429 24.5787 15.675
Au 19.1484 26.7031 16.5186
Au 20.9847 28.733 17.3295
Au 22.7873 30.9361 18.02
Au 24.4211 32.9919 18.9011
Au 26.2026 35.2611 19.6671
Au 28.1343 37.49 20.4612
Au 29.9781 39.4307 21.1132
Au 7.45713 7.6644 9.2072
Au 9.06702 9.85166 9.99295
Au 11.0611 12.0587 10.9764
Au 12.7446 14.1368 11.6954
Au 14.5062 16.2404 12.6383
Au 16.1537 18.4333 13.2742
Au 18.1091 20.78 14.0638
Au 19.7962 22.7828 14.8803
Au 21.3266 25.0298 15.7287
Au 23.1992 27.2159 16.4739
Au 25.0242 29.3445 17.2146
Au 26.757 31.5652 18.018
Au 28.5989 33.6299 18.7784
Au 30.4004 35.8631 19.5221
Au 32.2143 37.9331 20.3118
Au 9.92982 6.09827 8.24787
Au 11.2958 8.35414 9.09048
Au 13.241 10.5144 10.0319
Au 14.9375 12.6688 11.0234
Au 16.9001 14.724 11.6158
Au 18.542 17.0856 12.3795
Au 20.2389 19.1201 13.0953
Au 22.0173 21.3429 13.7566
Au 23.6788 23.4772 14.7174
Au 25.345 25.5722 15.6375
Au 27.3212 27.7826 16.2522
Au 29.0742 29.9283 17.0731
Au 30.8641 32.0357 17.8272
Au 32.5958 34.2267 18.5675
Au 34.3509 36.4958 19.3531
Au 12.1839 4.66756 7.45955
Au 13.7355 6.93409 8.30065
Au 15.588 9.06751 9.19801
Au 17.2227 11.1727 9.88763
Au 19.0948 13.1812 10.6448
Au 20.7284 15.5425 11.331
Au 22.5205 17.5952 12.2305
Au 24.3237 20.0292 13.0783
Au 25.9128 22.1548 13.9407
Au 27.8444 24.0653 14.6677
Au 29.8045 26.4002 15.4437
Au 31.3275 28.4039 16.2901
Au 33.1992 30.6405 16.9471
Au 34.8281 32.7616 17.6152
Au 36.5935 34.8175 18.3712
Au 14.5086 3.18673 6.75592
Au 16.035 5.32738 7.4438
Au 17.7438 7.49623 8.09745
Au 19.533 9.78536 9.02941
Au 21.4127 11.8439 9.72446
Au 23.0543 14.0024 10.5546
Au 24.7235 16.1338 11.2653
Au 26.6011 18.3104 12.1742
Au 28.1998 20.5463 13.132
Au 29.9976 22.6288 13.8296
Au 32.0534 24.8291 14.2591
Au 33.6042 27.0041 15.286
Au 35.1682 29.0984 15.9574
Au 37.2568 31.3222 16.7064
Au 38.7086 33.463 17.5056
Au 16.7281 2.06228 5.95261
Au 18.4372 3.98539 6.5649
Au 20.1476 6.0672 7.32866
Au 21.9476 8.24767 8.06281
Au 23.6333 10.4151 8.73464
Au 25.2869 12.5504 9.53461
Au 27.1239 14.74 10.4377
Au 28.8907 16.7319 11.2156
Au 30.5135 19.1547 12.1338
Au 32.4283 21.1445 12.622
Au 34.2406 23.3332 13.5597
Au 35.7424 25.5569 14.3239
Au 37.553 27.4886 15.0945
Au 39.3491 29.6869 15.8244
Au 40.6811 31.8147 16.7832
Au 20.6732 2.26535 5.73874
Au 22.3977 4.45789 6.35976
Au 24.1182 6.78785 7.16266
Au 25.8746 8.91401 7.94468
Au 27.6684 11.2022 8.65909
Au 29.3421 13.4041 9.50692
Au 31.1168 15.5565 10.2684
Au 32.9227 17.7879 11.1945
Au 34.9223 19.8263 11.823
Au 36.3778 21.8108 12.7305
Au 37.8426 24.0322 13.4659
Au 39.6778 26.0656 14.2171
Au 41.4783 28.1439 14.9539
Au 24.7048 3.08527 5.48729
Au 26.4064 5.14346 6.38227
Au 28.0086 7.21114 6.97223
Au 29.9238 9.52295 7.85129
Au 31.7314 11.616 8.55989
Au 33.3826 13.902 9.26189
Au 35.3712 16.0786 9.96801
Au 37.044 18.1727 10.8107
Au 38.7657 20.3699 11.7719
Au 40.4327 22.556 12.6248
Au 42.1067 24.8546 13.4108
Au 28.3758 3.81527 5.54781
Au 30.262 5.72049 6.00374
Au 32.1848 8.03022 6.86389
Au 34.041 10.0538 7.72073
Au 35.582 12.1948 8.50238
Au 37.3435 14.4367 9.0075
Au 38.9445 16.5279 10.0367
Au 40.9631 18.9582 10.9958
Au 42.6236 20.9647 11.9495
Au -2.65869 23.8716 15.3646
Au -1.28422 26.0571 16.0341
Au 0.445397 28.2471 16.9406
Au 2.04234 30.5948 17.6887
Au 3.96838 32.7989 18.6295
Au 5.82284 34.5567 19.3091
Au 7.64444 36.9238 20.2487
Au 9.28999 38.9697 20.9907
Au 10.9659 41.2742 21.5587
Au 12.6187 43.2017 22.2583
Au -2.39186 20.3787 13.6416
Au -0.660371 22.4158 14.2936
Au 0.817239 24.5647 15.2196
Au 2.68597 26.7524 16.0489
Au 4.32582 28.9114 16.8974
Au 6.18649 31.1171 17.6714
Au 8.08228 33.3187 18.2147
Au 9.61225 35.2889 19.1115
Au 11.2964 37.4015 19.9152
Au 13.132 39.5133 20.6622
Au 14.7393 41.7427 21.5448
Au 16.6667 43.7074 22.2217
Au -1.65546 16.6241 12.0985
Au -0.108902 18.7203 12.7985
Au 1.61493 20.8496 13.5478
Au 3.22825 22.934 14.3586
Au 4.93996 25.2624 15.1033
Au 6.74015 27.3292 15.8523
Au 8.5305 29.4866 16.7529
Au 10.2025 31.5603 17.5424
Au 11.9707 33.8698 18.3671
Au 13.7735 36.0677 18.9446
Au 15.4257 38.0322 19.7564
Au 17.0892 40.1658 20.545
Au 18.8416 42.2715 21.386
Au 20.9051 43.9104 21.9181
Au 0.449295 15.2197 11.206
Au 2.15496 17.2047 11.9454
Au 3.76281 19.2788 12.5445
Au 5.48013 21.4131 13.3246
Au 7.04227 23.5888 14.1484
Au 8.98333 25.7077 15.0531
Au 10.8257 27.807 15.7779
Au 12.4034 30.1312 16.5895
Au 14.2545 32.4012 17.1612
Au 15.8067 34.432 18.0427
Au 17.5918 36.5932 18.6634
Au 19.4493 38.7025 19.7227
Au 21.4998 40.9395 20.4747
Au 23.3031 42.9046 21.024
Au 2.74568 13.4878 10.3733
Au 4.27656 15.6219 10.9735
Au 6.18087 17.8737 11.6846
Au 7.95688 19.8159 12.458
Au 9.62337 22.2098 13.304
Au 11.3168 24.367 14.0658
Au 13.0533 26.5048 14.8064
Au 14.6741 28.6508 15.64
Au 16.4547 30.9061 16.4399
Au 18.2773 32.8154 17.2442
Au 20.1459 34.8937 18.0893
Au 21.9203 37.2465 18.8002
Au 23.7106 39.4179 19.5407
Au 25.6753 41.6317 20.3353
Au 4.84918 12.1131 9.2909
Au 6.58664 14.1597 9.87816
Au 8.26849 16.2166 10.7613
Au 10.0966 18.4412 11.5341
Au 11.9027 20.4988 12.4687
Au 13.4146 22.8089 13.3546
Au 15.4395 24.9676 13.8865
Au 16.9873 27.254 14.6672
Au 18.7389 29.3822 15.4763
Au 20.59 31.1836 16.3369
Au 22.2445 33.4769 16.9645
Au 24.1121 35.6874 18.0092
Au 26.0551 37.8717 18.5665
Au 27.767 40.0795 19.4288
Au 7.02703 10.4388 8.31619
Au 8.8484 12.5734 9.13438
Au 10.5043 14.7048 10.0073
Au 12.3925 16.791 10.5707
Au 14.0185 18.8055 11.5198
Au 15.7555 21.2247 12.378
Au 17.564 23.27 13.1395
Au 19.1575 25.5798 13.8345
Au 21.0429 27.7473 14.5276
Au 22.9652 29.7629 15.3202
Au 24.739 32.0443 16.0803
Au 26.3651 34.1895 16.9115
Au 28.2099 36.3843 17.7872
Au 30.0513 38.3973 18.5698
Au 9.21775 8.88075 7.4354
Au 11.0064 10.9776 8.3117
Au 12.9494 13.2751 8.97833
Au 14.6765 15.4059 9.5755
Au 16.3844 17.4247 10.4833
Au 17.8148 19.67 11.3752
Au 19.7319 21.6638 11.9137
Au 21.3742 24.0318 13.0568
Au 23.1151 26.0298 13.7021
Au 24.9417 28.3415 14.3641
Au 26.7761 30.3176 15.2837
Au 28.662 32.4198 16.0791
Au 30.4975 34.5882 16.7393
Au 32.1495 36.8523 17.5683
Au 11.6782 7.46806 6.5452
Au 13.2404 9.42204 7.16917
Au 15.0061 11.7412 8.1639
Au 16.7089 13.8118 8.83286
Au 18.5078 15.9444 9.68793
Au 20.1152 18.2774 10.5
Au 22.1668 20.2705 11.1168
Au 23.7428 22.5262 12.0735
Au 25.5562 24.7437 12.9405
Au 27.4428 26.6813 13.8434
Au 29.088 28.9296 14.4558
Au 31.0728 31.0587 15.0157
Au 32.6241 33.3979 15.8499
Au 34.532 35.3303 16.7604
Au 14.1033 5.81744 5.44766
Au 15.4171 8.05141 6.39179
Au 17.3165 10.1476 7.25126
Au 19.0569 12.3695 7.97039
Au 20.9261 14.4701 8.793
Au 22.516 16.7141 9.57963
Au 24.3625 18.9596 10.3107
Au 25.9578 21.0929 11.167
Au 27.8896 23.2104 11.8758
Au 29.6549 25.1888 12.6782
Au 31.3479 27.5246 13.5141
Au 33.1667 29.5099 14.0505
Au 34.9335 31.8183 14.9904
Au 36.6547 34.0286 15.4962
Au 16.2789 4.42049 4.67032
Au 17.859 6.3859 5.33044
Au 19.6946 8.61522 6.31064
Au 21.2514 10.917 7.07041
Au 23.1369 12.9955 7.7624
Au 24.8764 15.1835 8.6235
Au 26.6688 17.2748 9.48662
Au 28.4644 19.5728 10.1963
Au 30.0366 21.6634 11.1128
Au 31.9534 23.6984 11.6839
Au 33.6887 25.9842 12.4293
Au 35.5851 28.1693 13.3244
Au 37.163 30.2251 13.9704
Au 38.9805 32.3558 14.8243
Au 18.5952 2.95396 3.98761
Au 20.2617 5.15812 4.75146
Au 22.0575 7.37716 5.3996
Au 23.8056 9.37353 6.12536
Au 25.4955 11.5797 6.83273
Au 27.1518 13.5272 7.70679
Au 28.9762 15.9815 8.36601
Au 30.696 18.1746 9.45117
Au 32.4654 20.2663 10.0387
Au 34.1004 22.4906 10.6848
Au 35.9269 24.5232 11.4445
Au 37.4661 26.6597 12.2388
Au 39.2996 28.676 12.9002
Au 40.8915 30.6578 13.9675
Au 22.5712 3.55923 3.80502
Au 24.0874 5.61126 4.56559
Au 26.0774 7.65474 5.1146
Au 27.6364 9.90495 6.01152
Au 29.5228 11.9862 6.74774
Au 31.2523 14.3746 7.51491
Au 33.0097 16.614 8.48691
Au 34.8331 18.7138 9.16745
Au 36.6976 20.8037 9.90473
Au 38.2974 22.9865 10.7481
Au 40.0141 25.1208 11.5186
Au 41.3845 27.2824 12.2431
Au 26.3206 4.28859 3.66062
Au 28.1251 6.16394 4.03145
Au 29.8739 8.47235 5.22389
Au 31.6705 10.5754 5.75335
Au 33.4873 12.5978 6.72429
Au 35.1645 14.8875 7.43553
Au 37.2097 17.2693 8.09531
Au 38.8847 19.3078 9.13507
Au 40.4307 21.6072 9.89506
Au 42.135 23.6698 11.0044
Au -2.68005 22.8143 12.644
Au -1.12755 25.2637 13.2067
Au 0.611271 27.0864 14.1111
Au 2.20924 29.3343 15.0135
Au 4.15904 31.5978 15.8832
Au 5.90749 33.7809 16.6038
Au 7.53952 36.0943 17.4637
Au 9.24985 38.1196 18.1354
Au 10.8056 39.9827 18.8792
Au 12.826 42.2026 19.6066
Au 14.5951 44.1373 20.3477
Au -2.04411 19.2757 11.0082
Au -0.475512 21.4875 11.7327
Au 1.22581 23.6775 12.5966
Au 2.69839 25.6418 13.171
Au 4.26316 27.8454 14.2325
Au 6.29091 30.1269 15.0785
Au 8.05325 32.2952 15.6817
Au 9.66122 34.4161 16.5592
Au 11.4725 36.456 17.3024
Au 13.3507 38.7958 17.7816
Au 14.9938 41.007 18.7207
Au 16.9349 42.8262 19.5221
Au 18.6826 44.6181 20.1095
Au 0.0443657 17.6143 9.99683
Au 1.82136 19.8062 10.8117
Au 3.41377 21.9924 11.5519
Au 5.02674 24.1228 12.423
Au 6.97567 26.3529 13.0827
Au 8.54856 28.3408 14.1381
Au 10.1842 30.6649 14.8712
Au 12.0535 32.7529 15.6046
Au 13.6942 35.0417 16.2778
Au 15.5564 37.1599 17.0419
Au 17.359 39.3459 17.8986
Au 19.2505 41.6084 18.4986
Au 21.076 43.4815 19.2684
Au 2.20883 16.1997 9.20261
Au 3.99979 18.2004 9.81457
Au 5.78818 20.3924 10.6689
Au 7.41144 22.6382 11.5771
Au 9.08926 24.815 12.425
Au 10.8275 27.0355 13.0171
Au 12.3999 29.173 13.9277
Au 14.168 31.3503 14.438
Au 16.0604 33.5094 15.4229
Au 17.9029 35.4874 16.2236
Au 19.6187 37.6326 17.0447
Au 21.2478 39.8395 17.7297