33
 Atoms. Timestep: 50000
Au 19.2503 19.0132 19.3005
Au 20.906 19.2373 24.2237
Au 19.9397 24.1965 20.0067
Au 22.2912 21.4431 23.5792
Au 22.5445 24.509 19.9987
Au 19.6127 16.5918 17.9311
Au 23.4682 23.54 22.0465
Au 23.6581 19.299 20.1868
Au 16.6608 18.7051 20.3063
Au 21.8474 17.7282 18.7907
Au 20.1998 18.6581 16.6687
Au 23.279 18.8874 23.088
Au 18.6364 18.5121 21.9986
Au 17.4788 18.4766 17.5989
Au 17.6762 16.5201 19.7035
Au 21.5754 20.3542 18.3399
Au 23.7305 22.1491 19.3581
Au 21.8642 21.8762 20.8892
Au 20.8751 23.9191 22.5609
Au 18.3717 23.3815 17.805
Au 19.6859 21.0544 22.7516
Au 17.2212 20.968 21.5025
Au 22.9803 16.9523 21.2181
Au 21.1992 19.1595 21.2261
Au 19.2102 21.0499 17.2493
Au 17.0006 20.9797 18.7092
Au 17.337 23.3253 19.9489
Au 20.2045 16.6423 20.5901
Au 21.0763 17.0462 23.0862
Au 19.4129 21.495 20.0391
Au 18.3036 23.2894 22.2762
Au 21.1894 23.0496 18.1225
Au 24.3479 21.0258 21.9342
