34
 Atoms. Timestep: 50000
Au 21.6266 16.4539 22.3347
Au 23.1217 22.104 18.6027
Au 17.9039 21.0099 17.7108
Au 19.4104 17.6522 22.4762
Au 17.2491 21.7734 22.7589
Au 21.4188 23.6074 22.702
Au 19.9239 19.5361 16.5411
Au 16.8776 19.0752 22.4181
Au 20.2327 16.3593 20.2105
Au 20.7216 21.0911 18.7025
Au 21.1655 18.7843 20.4958
Au 18.7775 20.2984 20.7825
Au 19.2298 23.1139 24.0979
Au 23.847 17.8926 21.8729
Au 21.1696 23.6363 19.9267
Au 21.6655 18.9466 23.201
Au 20.761 17.4938 17.8389
Au 23.5237 19.9591 20.405
Au 21.4698 23.8793 17.2722
Au 21.9694 21.6725 16.197
Au 23.4223 22.7012 21.1689
Au 18.9621 23.2966 18.7335
Au 19.1392 23.1417 21.6087
Au 17.022 22.0686 19.8307
Au 17.6035 17.3685 20.846
Au 16.3237 19.6267 19.8361
Au 23.487 20.6549 22.9576
Au 22.6087 19.2578 17.907
Au 22.8848 16.8865 19.7074
Au 21.3021 21.264 21.5319
Au 18.5512 18.5125 18.6292
Au 21.3446 21.6388 24.4008
Au 19.5259 22.3171 16.2912
Au 19.1879 20.3558 23.4334
