344
 Atoms. Timestep: 50000
Au 7.38616 18.2795 20.6636
Au 8.53077 20.3583 21.4621
Au 10.2558 22.3024 22.4733
Au 11.7381 24.5552 22.9251
Au 13.3484 26.5107 23.8611
Au 15.1456 28.4138 24.6386
Au 16.9824 30.5529 25.1522
Au 18.787 32.2941 25.764
Au 9.21096 16.4507 20.0713
Au 10.6121 18.8353 20.9282
Au 12.3938 20.8715 21.6773
Au 13.9929 23.0874 22.3371
Au 15.4984 25.2634 23.0621
Au 17.4622 27.5228 23.7385
Au 19.2651 29.468 24.4373
Au 21.0762 31.3245 25.1402
Au 11.1128 15.1197 19.0668
Au 12.3398 17.2725 19.8108
Au 14.3749 19.2135 20.6705
Au 16.1084 21.5586 21.369
Au 17.68 23.7476 22.178
Au 19.5452 26.0099 22.8303
Au 21.6746 27.8853 23.6749
Au 23.1197 29.9139 24.2985
Au 13.2567 13.6845 18.09
Au 14.7187 15.6835 18.9231
Au 16.6758 17.8064 19.7627
Au 18.3324 20.0137 20.4619
Au 19.9178 22.3767 21.3261
Au 21.7953 24.5616 21.9403
Au 23.8066 26.5387 22.6366
Au 25.2626 28.5861 23.3919
Au 15.5215 12.2755 17.2506
Au 17.0825 14.3233 17.9301
Au 18.8259 16.3173 18.7362
Au 20.6013 18.4739 19.5979
Au 22.4074 20.974 20.4218
Au 24.2164 23.0678 20.9673
Au 26.1092 25.1422 21.8175
Au 27.5419 27.2226 22.6165
Au 17.6338 10.8496 16.2988
Au 19.3986 12.6753 17.2612
Au 20.9974 14.9255 17.7057
Au 23.0071 17.0196 18.7597
Au 24.526 19.2638 19.4461
Au 26.4228 21.4113 20.0507
Au 28.2849 23.58 20.9265
Au 29.5593 25.8003 21.8441
Au 19.7193 9.36454 15.6071
Au 21.6907 11.2994 16.1953
Au 23.3756 13.5776 17.0973
Au 25.2055 15.5782 17.7487
Au 26.9345 17.6678 18.6827
Au 28.6723 19.8117 19.1583
Au 30.3633 21.8828 19.9675
Au 31.622 24.1747 20.795
Au 22.2382 8.35944 15.1084
Au 23.9618 10.3933 15.1821
Au 25.6421 12.2009 16.4397
Au 27.3375 14.0714 17.1355
Au 28.9339 16.1278 17.7405
Au 30.7004 17.9163 18.5137
Au 32.3551 20.1998 19.1198
Au 33.1812 22.6467 19.6343
Au 8.79867 19.3911 18.9802
Au 10.0193 21.6889 19.8083
Au 11.8613 23.7589 20.4473
Au 13.2643 25.8848 21.324
Au 15.1539 27.7966 22.0024
Au 16.8051 29.8574 22.5996
Au 18.9059 31.8361 23.3177
Au 10.502 17.8125 18.0347
Au 12.3534 19.9884 18.9735
Au 14.0416 22.1323 19.5747
Au 15.5504 24.2519 20.2849
Au 17.3256 26.3798 21.2071
Au 19.2578 28.5741 21.8118
Au 21.0676 30.6692 22.4383
Au 12.7333 16.2254 17.0308
Au 14.4189 18.3046 17.6808
Au 16.1681 20.5622 18.4916
Au 17.7876 22.736 19.5149
Au 19.3877 24.8357 20.158
Au 21.4768 26.9442 20.8542
Au 23.158 28.9996 21.5035
Au 14.8599 14.922 16.168
Au 16.7939 16.9343 16.8801
Au 18.3355 19.0653 17.8184
Au 20.0762 21.3385 18.5342
Au 21.8024 23.5553 19.405
Au 23.8686 25.5572 19.9519
Au 25.4562 27.8242 20.7213
Au 17.2364 13.4398 15.4188
Au 18.9425 15.4273 16.0854
Au 20.6779 17.6489 16.9854
Au 22.4139 19.7847 17.796
Au 24.1816 22.0527 18.3575
Au 26.0511 24.1357 18.9867
Au 27.6661 26.2797 19.8968
Au 19.3882 11.869 14.5375
Au 21.1956 13.9439 15.0554
Au 22.861 16.1355 15.8881
Au 24.7226 18.177 16.8442
Au 26.4558 20.2995 17.5923
Au 28.4284 22.6551 18.1442
Au 29.9953 25.0414 19.1017
Au 21.4927 10.4504 13.7629
Au 23.5252 12.6341 14.4972
Au 25.3019 14.6817 15.173
Au 27.074 16.6233 15.8562
Au 28.6429 18.676 16.6926
Au 30.592 20.7629 17.4173
Au 31.6234 23.2575 17.8763
Au 10.5223 20.5785 17.2583
Au 11.9107 22.7282 17.906
Au 13.5598 24.8779 18.5629
Au 15.103 26.9381 19.3727
Au 17.0618 28.9657 20.0573
Au 18.8069 30.8962 20.6188
Au 12.3228 18.9593 15.9094
Au 14.0357 21.0481 16.935
Au 15.6139 23.4159 17.54
Au 17.2488 25.4956 18.2244
Au 19.2567 27.5617 18.9802
Au 20.9002 29.4953 19.8203
Au 14.4529 17.5059 15.1431
Au 16.0575 19.5245 15.8013
Au 17.718 21.7703 16.6338
Au 19.6324 24.0152 17.5358
Au 21.5228 26.1458 18.2066
Au 23.1939 28.1728 18.826
Au 16.8107 15.8964 14.3101
Au 18.537 18.1 15.1325
Au 20.3073 20.3965 15.7648
Au 21.8516 22.3498 16.583
Au 23.6809 24.6096 17.2692
Au 25.4431 26.9228 18.0956
Au 18.9708 14.4979 13.5684
Au 20.7933 16.6678 13.9998
Au 22.4841 19.0215 15.1579
Au 24.3217 20.8428 15.9041
Au 26.2617 22.9582 16.4636
Au 27.6928 25.4715 17.208
Au 21.524 13.1525 12.6624
Au 23.2647 15.0888 13.4261
Au 24.6782 17.2198 14.1945
Au 26.5828 19.272 14.8336
Au 28.5445 21.2169 15.6548
Au 29.605 24.0914 16.3161
Au 12.1456 21.5582 15.2779
Au 13.4278 23.8226 15.7877
Au 15.1248 26.1282 16.7425
Au 16.9017 28.0996 17.4564
Au 18.6688 30.1249 18.1706
Au 13.9589 20.032 14.0377
Au 15.5303 22.3489 14.8845
Au 17.3844 24.5173 15.6121
Au 19.3212 26.5715 16.3603
Au 20.9071 28.7418 17.1626
Au 16.3936 18.329 13.2143
Au 17.8767 20.6381 14.0362
Au 19.5007 22.8528 14.9923
Au 21.5987 24.8539 15.5076
Au 23.1894 27.2129 16.3617
Au 18.6451 17.196 12.3106
Au 20.4453 19.2498 13.0813
Au 22.1226 21.4683 13.966
Au 24.0988 23.3618 14.8146
Au 25.5489 25.6859 15.4755
Au 20.9711 15.894 11.5698
Au 22.6945 17.8339 12.2158
Au 24.3512 19.8506 13.3123
Au 26.3094 21.7303 13.9623
Au 27.6847 24.0353 14.6257
Au 13.5961 22.3744 13.1751
Au 15.3055 24.9974 13.9697
Au 16.8577 27.1444 14.665
Au 18.773 29.2777 15.6795
Au 15.6979 21.2589 12.1729
Au 17.5468 23.1855 12.995
Au 19.2922 25.4906 13.8168
Au 21.0536 27.732 14.6971
Au 18.1302 19.8169 11.148
Au 19.9118 21.8704 12.3453
Au 21.7086 23.9426 13.0582
Au 23.4758 26.2989 13.7501
Au 20.5109 18.3656 10.5079
Au 22.4791 20.35 11.3978
Au 24.0247 22.4927 12.3863
Au 25.6182 24.7058 12.9947
Au 15.4454 23.8928 11.47
Au 17.1628 26.0036 12.381
Au 18.8664 28.1844 13.2201
Au 17.6201 22.3069 10.5107
Au 19.4352 24.3348 11.2444
Au 21.3728 26.6701 12.1429
Au 20.1689 20.9702 9.77832
Au 21.9924 22.8527 10.4624
Au 23.6211 24.9709 11.2825
Au 17.2023 24.9664 9.91687
Au 18.9857 27.0497 10.7528
Au 19.7953 23.5155 8.81063
Au 21.3301 25.5746 9.7498
Au 19.1166 25.7683 8.4127
Au 8.76107 17.7488 22.812
Au 10.1711 19.8831 23.645
Au 12.3951 22.0302 24.1483
Au 13.9826 24.0526 25.0851
Au 15.5924 25.9816 25.8579
Au 17.3307 28.0293 26.4474
Au 19.1564 29.9525 26.9766
Au 10.9844 16.1779 21.9569
Au 12.6225 18.3082 22.8289
Au 14.4137 20.2858 23.4834
Au 16.138 22.5685 24.08
Au 17.8832 24.848 24.7809
Au 19.6131 26.9676 25.5874
Au 21.4925 28.8527 26.4633
Au 13.1582 14.5157 20.9144
Au 14.7206 16.5858 21.634
Au 16.6061 18.8537 22.3566
Au 18.4017 21.0635 23.1692
Au 20.0588 23.3498 23.9548
Au 21.9528 25.3022 24.8069
Au 23.7452 27.5649 25.2984
Au 15.266 13.114 19.7511
Au 16.8839 14.931 20.7878
Au 18.6818 17.1877 21.4148
Au 20.5419 19.64 22.2388
Au 22.3121 21.795 22.9991
Au 24.167 23.888 23.6724
Au 25.9791 26.0462 24.4756
Au 17.5314 11.6783 18.8729
Au 19.3067 13.5592 20.0212
Au 21.105 15.7652 20.4977
Au 22.7546 17.9982 21.3084
Au 24.6531 20.2984 21.9711
Au 26.4423 22.3558 22.8665
Au 27.9534 24.2968 23.7307
Au 19.8784 10.0539 18.1038
Au 21.7091 12.0986 19.023
Au 23.2716 14.319 19.7088
Au 25.2348 16.3522 20.5828
Au 27.0033 18.5723 21.1448
Au 28.6236 20.9244 21.914
Au 30.1126 23.124 22.8538
Au 22.32 9.05493 17.4573
Au 23.9449 10.8218 18.0966
Au 25.6353 12.9049 18.9559
Au 27.4072 14.9559 19.6831
Au 29.1221 17.0721 20.4971
Au 30.7471 19.1487 21.0614
Au 31.9904 21.4568 21.8865
Au 10.9578 17.1498 24.4804
Au 12.54 19.326 25.4261
Au 14.1995 21.3641 26.0713
Au 15.9945 23.5042 26.7678
Au 17.6254 25.477 27.5498
Au 19.5109 27.4564 28.1186
Au 13.0465 15.5589 23.6391
Au 14.6194 17.6804 24.441
Au 16.5424 19.9504 25.3607
Au 18.2551 22.1664 25.8237
Au 20.0527 24.3115 26.8266
Au 22.0534 26.2129 27.2776
Au 15.1557 14.1132 22.7426
Au 16.9937 16.3301 23.4603
Au 18.7579 18.302 24.068
Au 20.6864 20.5755 24.9966
Au 22.4505 22.9261 25.6922
Au 24.2038 25.0266 26.3431
Au 17.4549 12.5886 21.7824
Au 19.227 14.6179 22.4861
Au 21.0371 16.8743 23.2131
Au 22.9284 19.1883 23.9203
Au 24.4854 21.2324 24.9193
Au 26.1506 23.4379 25.6173
Au 19.7033 11.1098 21.0009
Au 21.6204 13.19 21.5517
Au 23.4832 15.3142 22.3445
Au 25.1123 17.5739 23.0977
Au 26.6546 19.8393 23.8764
Au 28.4104 21.8752 24.8249
Au 21.8898 9.7024 20.2079
Au 23.8434 11.632 20.8936
Au 25.6522 13.7709 21.7129
Au 27.3986 16.02 22.2246
Au 29.0261 18.2807 23.0706
Au 30.4086 20.4458 23.8192
Au 12.9108 16.7098 26.1861
Au 14.6553 18.7232 27.0862
Au 16.5691 20.7096 27.8925
Au 18.1654 22.9036 28.6866
Au 19.9632 25.2703 29.2902
Au 14.9831 14.9787 25.3075
Au 16.8264 17.1315 26.057
Au 18.7772 19.3555 26.8317
Au 20.5146 21.4996 27.6017
Au 22.2224 23.8213 28.4789
Au 17.1784 13.562 24.4143
Au 19.1107 15.6226 25.1519
Au 21.1355 17.8832 25.8365
Au 22.7971 20.0809 26.6973
Au 24.4383 22.3896 27.6159
Au 19.7132 12.0275 23.4041
Au 21.5858 14.3095 24.2638
Au 23.3239 16.5175 25.1082
Au 25.0852 18.6648 25.716
Au 26.6527 20.8106 26.5843
Au 22.0979 10.7189 22.7017
Au 23.6444 12.742 23.4387
Au 25.4277 14.8715 24.2676
Au 27.2506 17.0437 24.8624
Au 28.5466 19.0983 25.6933
Au 15.0557 16.0701 27.933
Au 17.0099 18.2286 28.5834
Au 18.6166 20.3968 29.5629
Au 20.3476 22.5588 29.911
Au 17.2934 14.3629 27.0887
Au 19.2017 16.5216 27.6882
Au 21.0162 18.8786 28.528
Au 22.7556 21.2272 29.3847
Au 19.4981 13.2147 25.7773
Au 21.4773 15.1329 26.8525
Au 23.3087 17.3825 27.5759
Au 24.9855 19.6333 28.3594
Au 21.8971 11.8236 25.2182
Au 23.6848 13.7921 26.0773
Au 25.6029 15.9947 26.7115
Au 27.0843 18.0579 27.5169
Au 17.3 15.7123 29.3374
Au 19.0482 17.8708 30.2902
Au 20.9621 19.9861 30.899
Au 19.4211 13.9421 28.657
Au 21.4146 16.3345 29.4535
Au 23.1826 18.6438 30.224
Au 21.6397 12.7106 27.7938
Au 23.6439 14.6935 28.5894
Au 25.1892 17.0229 29.3819
Au 19.4253 15.1819 30.8253
Au 21.3646 17.4828 31.7116
Au 21.6409 13.5935 30.1839
Au 23.4761 16.0093 31.1189
Au 21.5229 14.6798 32.2458
