34
 Atoms. Timestep: 50000
Au 18.8105 19.9229 19.7717
Au 21.9709 18.6998 18.411
Au 21.7871 20.2262 16.3724
Au 23.2622 19.7731 22.8845
Au 22.6331 16.6535 20.1376
Au 22.4878 22.6299 17.1715
Au 23.2764 21.7699 21.1079
Au 18.1615 21.9543 21.3383
Au 22.3374 22.147 23.8104
Au 20.2193 23.8506 17.7943
Au 21.8162 24.0385 22.1622
Au 17.1425 18.1677 18.7854
Au 23.6427 20.8819 18.5097
Au 16.1033 21.0149 19.5203
Au 19.5273 18.9157 17.1973
Au 20.9929 19.5975 23.935
Au 18.6502 19.6613 22.8255
Au 19.8782 17.1245 19.343
Au 19.6264 22.2136 24.2407
Au 20.9932 21.2423 18.8888
Au 20.5553 15.7734 21.4326
Au 18.3011 17.375 21.269
Au 19.4286 24.1391 22.8731
Au 19.5741 21.4168 16.6737
Au 18.2152 22.6385 18.7543
Au 16.6056 19.3726 21.1942
Au 17.2942 20.4983 17.4323
Au 20.657 21.5998 21.8127
Au 19.9908 23.9805 20.399
Au 19.8677 17.3225 23.5176
Au 22.4841 23.7868 19.6531
Au 23.7861 18.9866 20.4062
Au 20.8946 18.7643 21.1796
Au 22.4566 17.2906 22.6249
