34
 Atoms. Timestep: 50000
Au 18.8885 16.6202 18.5579
Au 23.076 17.9748 22.2873
Au 21.4236 19.7811 21.6064
Au 19.1392 19.0616 20.25
Au 20.8448 18.1615 17.8987
Au 17.1573 22.8652 20.0273
Au 21.14 20.7642 18.8608
Au 18.5465 16.3802 21.1504
Au 19.5099 23.1318 23.734
Au 23.063 18.6231 19.4815
Au 19.6601 21.7863 21.1457
Au 19.2538 20.2985 23.5129
Au 17.987 18.8126 17.8354
Au 19.6501 24.0084 19.5028
Au 24.6221 19.7684 21.039
Au 21.6947 19.3928 24.3399
Au 23.792 20.388 23.3029
Au 22.563 21.7996 16.5084
Au 20.0652 23.0655 17.2053
Au 16.7439 20.3185 20.254
Au 18.4761 24.2373 21.5993
Au 16.9154 17.5363 19.8649
Au 21.5247 21.8554 23.6821
Au 17.3113 21.6585 22.5763
Au 22.8083 19.3401 16.9348
Au 20.2192 20.4732 16.4069
Au 21.2694 24.0149 21.6563
Au 22.1325 23.3411 18.9185
Au 17.3955 18.7931 22.3773
Au 21.0522 16.9407 20.2371
Au 22.8793 21.9564 20.992
Au 18.5473 21.3139 18.3736
Au 20.0379 17.82 22.7554
Au 24.0403 21.1469 18.5549
