34
 Atoms. Timestep: 50000
Au 18.7573 16.5285 19.4544
Au 23.3784 17.6502 21.5744
Au 21.5697 19.9419 21.8036
Au 18.9839 19.2741 20.4102
Au 20.3122 18.0315 18.1309
Au 17.2849 22.8377 20.2137
Au 19.8835 20.1946 16.4594
Au 18.8638 17.2394 22.2216
Au 20.5108 22.2026 23.2564
Au 22.9753 18.8535 19.336
Au 19.8033 22.0549 20.7805
Au 19.3295 19.6259 23.3156
Au 17.6428 18.7975 17.9709
Au 19.3599 24.2161 19.3535
Au 24.4399 20.0581 21.0503
Au 21.6031 20.2609 24.6354
Au 23.8262 19.4661 23.51
Au 23.811 21.0864 18.1453
Au 19.6177 22.809 16.9923
Au 16.5904 20.4334 20.2876
Au 18.7396 24.002 22.2162
Au 16.5169 17.842 20.0238
Au 23.0428 21.8541 23.0363
Au 17.7939 21.5026 22.5587
Au 22.2888 19.3217 16.6348
Au 22.112 21.9006 16.3203
Au 21.3313 24.0901 21.3475
Au 21.7169 23.3021 18.426
Au 16.7673 18.9522 22.3167
Au 20.9076 17.3849 20.7301
Au 22.8153 21.8959 20.4762
Au 18.3212 21.2257 18.2436
Au 21.4592 17.9069 23.3724
Au 21.0737 20.687 18.8253
