34
 Atoms. Timestep: 50000
Au 16.0309 20.7698 21.0029
Au 17.5297 19.6708 18.9937
Au 19.2496 21.4265 17.5748
Au 23.5591 21.3221 22.9549
Au 19.2736 21.375 24.1463
Au 18.7134 20.4633 21.323
Au 22.9464 21.1584 18.2688
Au 23.148 22.6224 20.4947
Au 18.8116 24.0207 21.3692
Au 17.7853 22.3035 19.5038
Au 22.3044 23.9747 18.5367
Au 23.8508 18.9808 22.9812
Au 22.9127 18.4722 18.4103
Au 22.7487 17.4167 21.0748
Au 21.1024 16.4632 19.147
Au 21.5202 17.5627 23.2487
Au 21.6567 19.9105 21.3923
Au 17.377 18.2533 21.4035
Au 21.1948 24.5721 20.9388
Au 21.3614 22.6516 16.6782
Au 18.6038 17.2236 18.6832
Au 24.0615 19.8142 20.5554
Au 19.2066 18.8362 23.6028
Au 20.7349 22.0794 19.7192
Au 17.2351 22.407 22.5476
Au 20.3928 19.3084 19.0318
Au 21.262 19.8316 16.4559
Au 18.7091 19.0242 16.7128
Au 20.8196 17.3534 16.8473
Au 19.9729 17.6503 21.1432
Au 21.0724 22.454 22.5904
Au 19.5479 24.0116 18.6983
Au 21.8316 20.1866 24.1563
Au 16.9033 19.8596 23.2423
