35
 Atoms. Timestep: 50000
Au 16.6216 19.2079 21.4246
Au 17.6162 21.5426 20.2593
Au 21.017 22.0684 20.4242
Au 24.3819 19.9922 22.1044
Au 24.107 21.0702 19.6378
Au 21.4355 24.435 21.2579
Au 20.1997 18.2008 23.9014
Au 24.9284 18.5788 19.7929
Au 19.5369 22.4183 17.4308
Au 17.0891 22.1453 17.7677
Au 23.1658 19.1202 17.8797
Au 21.1725 24.2733 18.6346
Au 17.0499 21.3563 23.122
Au 18.1322 17.1786 22.3982
Au 17.6376 18.9963 24.1502
Au 21.7053 20.4791 22.8461
Au 23.4829 22.3431 22.2509
Au 22.0604 19.485 20.2407
Au 23.2432 23.4067 19.7631
Au 22.5714 17.9336 22.549
Au 18.5918 17.9935 17.1656
Au 21.4437 23.1321 23.5788
Au 20.6892 19.5863 16.5799
Au 20.4694 17.3421 21.0269
Au 20.9327 17.7771 18.488
Au 19.3953 20.9685 24.0554
Au 19.2141 19.7616 21.7782
Au 18.1842 20.2484 16.375
Au 19.0607 22.7342 22.3217
Au 18.3117 18.0005 19.7426
Au 16.7494 19.6749 18.4727
Au 18.8863 23.5381 19.7356
Au 22.0934 21.7146 17.8347
Au 19.6356 20.1966 18.7292
Au 23.013 16.9248 20.1049
