35
 Atoms. Timestep: 50000
Au 22.325 20.3542 18.6074
Au 16.9315 19.9043 22.5555
Au 16.7004 19.8674 20.0398
Au 20.5219 22.8155 19.0835
Au 22.7529 22.8519 23.6571
Au 18.989 24.0507 21.0081
Au 20.9115 20.9099 23.685
Au 19.2064 21.0396 21.4052
Au 19.9078 23.2841 23.0659
Au 18.5359 19.2771 15.9279
Au 23.5258 20.3765 23.1157
Au 22.0154 18.44 23.4234
Au 24.658 20.8344 20.0991
Au 21.8235 22.3105 16.7793
Au 20.1445 17.7385 17.4129
Au 24.1627 22.7252 21.4374
Au 22.0603 21.4361 21.2219
Au 16.9199 20.5016 17.428
Au 22.1061 16.433 21.485
Au 18.3116 21.489 24.0401
Au 18.07 18.0009 21.1128
Au 23.3857 22.9092 18.8303
Au 17.8515 18.0163 18.4432
Au 19.0012 21.8056 16.6597
Au 17.809 22.3997 19.187
Au 21.9994 24.1789 20.8077
Au 19.8488 16.629 22.5968
Au 19.1508 19.0009 23.4158
Au 17.094 22.4062 21.8892
Au 19.4808 20.086 18.5892
Au 23.5274 18.5312 21.0136
Au 20.8985 20.0484 16.2193
Au 20.0466 16.6676 19.6834
Au 22.2972 17.5721 18.9844
Au 20.8542 18.9337 20.9144
