35
 Atoms. Timestep: 50000
Au 20.6357 22.6384 22.27
Au 18.5465 17.3125 22.3123
Au 22.8247 18.6022 21.2462
Au 19.4808 19.8274 25.665
Au 23.0945 20.5243 19.275
Au 22.2379 22.9225 19.8642
Au 20.9526 16.8282 21.191
Au 17.8909 20.335 19.012
Au 19.4607 18.3426 19.8482
Au 17.0682 19.1939 24.2375
Au 22.62 16.9955 23.1723
Au 18.1044 22.174 21.2006
Au 21.5104 21.2756 24.4253
Au 20.3884 16.0319 23.8631
Au 22.0877 22.4331 15.0942
Au 19.8434 23.6469 19.7042
Au 20.4469 20.5958 20.4318
Au 22.8295 21.2006 21.9712
Au 20.4053 19.1195 22.8445
Au 20.4511 21.7004 17.858
Au 18.5016 17.4559 24.9543
Au 19.7973 23.135 15.0299
Au 23.1584 22.4023 17.475
Au 20.4498 20.5598 14.9597
Au 19.6945 19.2682 17.3224
Au 17.7324 19.5977 21.6746
Au 23.2304 19.4605 23.8029
Au 18.4083 21.4357 16.5406
Au 22.4657 20.1343 16.7046
Au 17.4738 22.7702 18.523
Au 18.6528 21.2842 23.5631
Au 21.5312 24.2233 17.1691
Au 21.1886 17.952 25.114
Au 21.7349 18.247 18.5495
Au 18.9256 24.1983 16.9557
