35
 Atoms. Timestep: 50000
Au 16.7902 21.4893 20.6913
Au 20.103 17.1649 20.2874
Au 22.5996 18.6779 16.9661
Au 20.9343 21.4831 22.5094
Au 19.5039 19.7459 24.1441
Au 20.377 17.4467 16.139
Au 21.0666 21.8552 25.2775
Au 18.358 21.5285 18.5614
Au 17.8916 21.1921 23.0772
Au 19.0477 19.7852 20.8836
Au 23.2604 19.9378 22.1798
Au 20.972 18.422 22.436
Au 23.4414 22.6053 21.3344
Au 20.898 19.9766 15.558
Au 24.0339 20.9942 19.3334
Au 19.7443 22.0169 16.5489
Au 23.3802 21.8813 24.0746
Au 17.3334 19.0682 19.0488
Au 22.2103 19.5571 24.5417
Au 16.475 19.1469 21.7801
Au 18.4237 19.407 16.4974
Au 18.8842 22.6314 21.0705
Au 22.8932 23.534 19.008
Au 21.2322 21.3544 19.8905
Au 17.3185 17.0373 20.5247
Au 22.0098 23.8406 23.4752
Au 18.6438 17.0445 18.1996
Au 21.0361 23.9164 21.1451
Au 18.5152 17.7714 22.7942
Au 21.6046 16.8512 18.171
Au 22.4511 19.0404 19.9684
Au 20.2915 23.4424 18.558
Au 22.2615 21.3264 17.3737
Au 19.5021 23.3432 23.526
Au 20.3367 19.3093 18.2501
