36
 Atoms. Timestep: 50000
Au 20.4771 21.2094 24.607
Au 18.5843 19.5158 23.6731
Au 18.2538 20.8018 21.1586
Au 18.3705 20.2917 17.5462
Au 22.7273 20.4791 23.8056
Au 20.7586 20.1174 22.0077
Au 20.549 22.8837 22.5191
Au 19.6731 18.9702 19.6358
Au 23.6246 20.7393 17.3867
Au 16.0956 20.1711 22.6168
Au 23.023 22.2345 21.8538
Au 18.21 22.2826 23.4412
Au 24.0446 17.4532 20.0499
Au 22.2951 19.6935 19.7113
Au 23.7678 22.0362 19.426
Au 20.7608 18.5621 24.2289
Au 17.4644 18.1585 21.4149
Au 25.1182 19.5237 19.1622
Au 16.2433 22.4808 21.2893
Au 17.9076 22.5683 19.0705
Au 22.8411 18.0616 17.7742
Au 24.5615 20.0721 21.5961
Au 19.6187 24.5804 18.8782
Au 22.6664 18.2485 22.1101
Au 18.7588 16.4075 19.439
Au 16.2591 20.1477 19.6298
Au 19.9307 17.4228 21.9051
Au 21.9244 23.022 17.6397
Au 20.9908 20.489 17.1464
Au 19.3691 22.8302 16.9919
Au 20.1209 18.0055 17.2641
Au 17.2426 18.307 18.3991
Au 21.6037 24.0199 20.2445
Au 18.5958 23.9026 21.2102
Au 20.4298 21.826 19.5867
Au 21.3578 16.704 19.8003
