37
 Atoms. Timestep: 50000
Au 21.428 17.9197 22.4526
Au 19.3835 21.2075 24.7122
Au 18.5313 23.2242 23.2783
Au 23.81 20.7466 18.2151
Au 20.0807 20.9137 21.9394
Au 15.6757 20.821 20.3272
Au 20.2477 18.7359 20.0224
Au 21.1209 21.3313 19.0944
Au 17.1345 23.0222 21.1236
Au 22.8493 23.3429 18.6929
Au 24.9948 19.5336 20.4928
Au 21.7205 20.1278 24.0183
Au 18.8504 19.0294 17.5618
Au 21.3706 16.1534 20.3512
Au 19.0596 18.8333 23.2107
Au 20.4645 16.9192 18.1315
Au 17.3338 20.8097 22.778
Au 16.2513 18.8855 18.5894
Au 19.6008 23.2099 20.7056
Au 21.8948 22.3361 16.6288
Au 23.6626 17.2803 21.1883
Au 22.5576 20.0882 20.9161
Au 19.105 16.7001 21.4188
Au 18.3208 20.91 19.6641
Au 17.9655 23.5252 18.6157
Au 23.9369 19.0646 22.9682
Au 16.4397 21.2722 17.9221
Au 21.4928 19.5205 17.3089
Au 21.2445 22.7537 23.6562
Au 18.0245 17.0188 18.977
Au 24.4435 22.3054 20.6633
Au 17.4656 18.845 20.9839
Au 20.4541 23.8583 18.1226
Au 22.04 23.024 21.1709
Au 23.6203 21.6574 22.8822
Au 19.178 21.6878 17.1559
Au 22.8612 18.0009 18.6747
