38
 Atoms. Timestep: 50000
Au 16.4485 22.585 20.5258
Au 19.005 16.3564 19.7236
Au 21.3905 17.2355 18.9259
Au 25.0712 20.0902 18.7473
Au 22.5842 19.657 19.6659
Au 21.1339 21.0419 21.6391
Au 22.3183 18.6617 22.2596
Au 22.7926 22.9868 22.9928
Au 19.0375 20.8118 16.5334
Au 17.7974 24.0009 22.1727
Au 21.3663 19.3643 17.1681
Au 21.6778 23.2313 20.3016
Au 20.1415 23.2957 17.6041
Au 23.7677 20.7131 23.2372
Au 20.7393 16.5998 22.1138
Au 18.8319 21.6104 23.9285
Au 24.0269 21.7038 20.9262
Au 23.3003 17.1884 20.5831
Au 19.0954 23.5097 20.2294
Au 17.2519 20.6129 18.7717
Au 24.8942 19.091 21.2141
Au 21.3906 21.7299 16.002
Au 19.8245 18.688 20.7422
Au 16.3265 21.8214 23.0019
Au 19.8909 19.156 23.4303
Au 18.3624 20.9526 21.2421
Au 20.1222 23.3849 22.7914
Au 16.9695 18.1602 20.1533
Au 15.5885 20.0018 21.0763
Au 23.6806 17.9821 17.8907
Au 18.1408 17.1217 22.1979
Au 20.1638 21.0966 18.927
Au 17.1295 19.3679 23.1146
Au 23.8039 20.3446 16.6083
Au 21.5028 21.3401 24.2762
Au 22.8596 22.001 18.178
Au 18.9447 18.5648 18.0745
Au 17.6369 22.9486 18.0392
