389
 Atoms. Timestep: 50000
Au 21.5342 15.9886 30.7702
Au 21.2921 17.0876 28.244
Au 20.99 18.1276 25.7223
Au 20.7655 19.2817 23.0501
Au 20.4872 20.3797 20.3213
Au 20.0318 21.5171 17.6452
Au 19.9122 22.8535 15.1555
Au 19.6151 23.8538 12.3858
Au 19.368 24.9748 9.94153
Au 19.0462 16.4481 29.6385
Au 18.5419 17.4847 27.1438
Au 18.4868 18.5885 24.419
Au 18.1022 19.718 21.9713
Au 17.7402 21.0305 19.2868
Au 17.4877 22.0562 16.7464
Au 17.5519 23.3062 14.0437
Au 17.0042 24.4858 11.5024
Au 20.6938 18.6476 30.6759
Au 20.2009 19.6776 28.1803
Au 20.0122 20.6252 25.4507
Au 19.7042 21.8993 22.6579
Au 19.5703 23.0097 19.9982
Au 19.2201 24.401 17.4318
Au 19.1078 25.5484 14.6822
Au 18.8517 26.5693 12.2361
Au 23.3157 17.683 29.9619
Au 23.2771 18.7505 27.5399
Au 22.9288 19.9659 24.843
Au 22.5326 21.121 22.044
Au 22.2239 22.2615 19.4107
Au 21.9895 23.3337 16.6848
Au 21.7974 24.7419 14.0838
Au 21.6644 25.9067 11.4738
Au 23.2908 15.2383 28.7195
Au 23.1701 16.4465 26.1756
Au 22.862 17.4132 23.4824
Au 22.6386 18.5534 20.9638
Au 22.3485 19.696 18.1269
Au 21.8223 20.725 15.6093
Au 21.62 22.1216 13.0422
Au 21.3748 23.1723 10.5968
Au 20.6868 14.4074 28.7517
Au 20.1806 15.3224 26.0617
Au 19.9058 16.5378 23.4325
Au 19.6485 17.6113 20.7124
Au 19.4278 18.9069 18.1332
Au 19.0509 20.0653 15.4773
Au 18.91 21.235 12.886
Au 18.6619 22.4692 10.376
Au 16.5032 16.7625 28.7077
Au 16.1114 18.2579 26.0156
Au 15.8782 19.2465 23.5373
Au 15.5343 20.4422 20.9645
Au 15.1464 21.6594 18.2406
Au 14.9855 22.7933 15.5133
Au 14.8568 23.7092 13.124
Au 17.9007 18.9809 29.6759
Au 17.8477 20.0916 26.9035
Au 17.4471 21.4585 24.4303
Au 17.2007 22.5491 21.7037
Au 16.917 23.6844 19.0028
Au 16.6501 24.9097 16.2472
Au 16.5046 26.0911 13.8116
Au 19.583 21.0699 30.3492
Au 19.4487 22.2598 27.8215
Au 19.3057 23.4592 25.1514
Au 19.0133 24.4607 22.5832
Au 18.8479 25.6916 19.7872
Au 18.4595 27.1214 17.0085
Au 18.5029 28.3097 14.6345
Au 22.5641 20.4449 29.735
Au 22.1638 21.3227 27.1435
Au 21.9272 22.4351 24.5544
Au 21.8036 23.7655 21.7394
Au 21.3976 24.9856 19.0318
Au 21.1654 26.3042 16.5079
Au 21.1534 27.5396 13.7093
Au 25.2866 19.4027 29.2139
Au 25.0413 20.6636 26.6675
Au 24.633 21.8393 23.7187
Au 24.5665 23.0215 21.1152
Au 24.0289 24.1887 18.6803
Au 23.8699 25.4262 15.8029
Au 23.6697 26.428 13.2051
Au 25.4045 16.9946 28.0753
Au 24.9293 18.136 25.3027
Au 24.6323 19.3822 22.5436
Au 24.4274 20.4945 20.0493
Au 24.1018 21.6855 17.2766
Au 23.8792 22.7169 14.6425
Au 23.5136 23.8211 11.9855
Au 24.8195 14.2648 26.5728
Au 24.9939 15.4679 24.1319
Au 24.593 16.5398 21.4531
Au 24.2483 17.743 18.8327
Au 23.9763 18.876 16.0648
Au 23.6485 20.1782 13.4083
Au 23.4286 21.212 10.873
Au 22.3801 13.6459 26.6964
Au 22.1386 14.7144 24.1404
Au 21.8617 15.8004 21.341
Au 21.5898 16.9707 18.7911
Au 21.2107 18.0391 16.053
Au 20.9765 19.2432 13.2909
Au 20.8219 20.6221 10.7289
Au 19.4841 12.7233 26.3523
Au 19.4348 13.6775 23.8266
Au 19.2055 14.9043 21.327
Au 18.6113 16.0804 18.5949
Au 18.4516 17.1448 15.9654
Au 18.1487 18.3772 13.28
Au 18.1068 19.8077 10.7678
Au 18.0092 14.7763 27.5708
Au 17.7011 15.6932 24.9449
Au 17.3143 16.9599 22.5298
Au 16.9761 18.2287 19.6576
Au 16.6858 19.4035 17.0053
Au 16.5382 20.6932 14.378
Au 16.1442 21.7868 11.9161
Au 13.7594 17.5463 27.4219
Au 13.2972 18.7393 25.0152
Au 13.2935 19.7415 22.534
Au 12.9068 20.9649 19.9185
Au 12.6016 21.9442 17.1548
Au 12.4179 23.1692 14.6652
Au 15.4941 19.5886 28.5544
Au 15.28 20.8626 26.0718
Au 14.8317 21.8824 23.2434
Au 14.6965 22.9685 20.5318
Au 14.3741 24.3192 17.9086
Au 14.0576 25.3542 15.2259
Au 17.0253 21.6468 29.3887
Au 16.8966 23.1318 26.9192
Au 16.5638 24.1766 24.1098
Au 16.3488 25.2104 21.3447
Au 16.2712 26.4251 18.6312
Au 15.9831 27.629 16.0578
Au 18.9386 23.8145 29.8763
Au 18.5435 25.288 27.5525
Au 18.4689 26.1188 24.7574
Au 18.2755 27.1711 22.3687
Au 18.0105 28.4485 19.4775
Au 17.6671 29.7126 17.1424
Au 21.5685 22.9826 29.3077
Au 21.4343 24.2502 26.828
Au 21.2879 25.251 24.0082
Au 20.9231 26.3243 21.4564
Au 20.6424 27.7998 18.8049
Au 20.4844 29.0148 16.1084
Au 24.4161 22.2918 28.8371
Au 24.0571 23.3931 26.151
Au 23.7982 24.5315 23.5564
Au 23.735 25.5792 20.9717
Au 23.3631 27.0495 18.1299
Au 23.1221 28.1222 15.5453
Au 26.905 21.4202 28.2707
Au 26.8114 22.7584 25.6563
Au 26.7011 23.8223 23.033
Au 26.7224 24.975 20.41
Au 25.9317 26.0583 17.7803
Au 25.6165 27.3009 15.1068
Au 27.272 18.8474 27.0969
Au 26.8189 20.1614 24.4439
Au 26.5783 21.1278 21.7261
Au 26.2512 22.2801 18.9443
Au 25.9222 23.5603 16.4043
Au 25.6993 24.7333 13.8627
Au 26.9506 16.292 25.7861
Au 26.7346 17.5318 23.148
Au 26.477 18.539 20.4104
Au 26.1295 19.6227 18.0126
Au 25.9127 20.7933 15.271
Au 25.5579 22.0563 12.6194
Au 26.7727 13.5356 24.476
Au 26.751 14.6743 21.9811
Au 26.377 15.7644 19.2047
Au 26.1819 17.0445 16.8475
Au 25.8688 18.1596 14.065
Au 25.5377 19.3629 11.4304
Au 24.0819 12.9001 24.3945
Au 23.9929 13.741 21.8952
Au 23.4277 14.9081 19.3583
Au 23.4198 16.1389 16.6155
Au 22.9949 17.4353 13.9167
Au 22.632 18.6029 11.315
Au 21.4973 11.8727 24.4488
Au 21.3977 12.9822 21.9149
Au 20.9122 14.1826 19.1221
Au 20.7041 15.5634 16.7084
Au 20.032 16.4631 13.839
Au 19.8768 17.7334 11.1921
Au 18.8955 10.9358 24.0206
Au 18.523 12.1859 21.5626
Au 18.2237 13.444 19.1149
Au 17.7426 14.4753 16.4182
Au 17.3936 15.5604 13.8362
Au 17.4035 16.7189 11.5048
Au 16.9557 12.9782 25.4003
Au 16.7015 14.1656 22.8315
Au 16.6312 15.6425 20.3577
Au 16.1983 16.8639 17.6061
Au 15.807 17.9548 14.8268
Au 15.621 18.8902 12.1521
Au 15.525 15.4715 26.54
Au 15.0462 16.4249 23.989
Au 14.83 17.6377 21.3605
Au 14.4285 18.7622 18.7778
Au 14.1236 19.9361 15.8246
Au 13.907 21.161 13.3832
Au 11.2596 18.1707 26.5325
Au 10.7239 19.1362 23.9219
Au 10.646 20.365 21.5011
Au 10.1629 21.3852 18.9979
Au 10.2478 22.35 16.5217
Au 12.966 20.3623 27.459
Au 12.5368 21.2509 24.857
Au 12.3281 22.5931 22.2991
Au 12.1712 23.5627 19.6551
Au 11.8428 24.7158 16.9495
Au 14.5293 22.472 28.2428
Au 14.2383 23.6765 25.5952
Au 13.9911 24.6932 22.9584
Au 13.8155 25.6577 20.2904
Au 13.6824 26.8279 17.5716
Au 16.2052 24.6637 29.1681
Au 15.9846 25.7229 26.4168
Au 15.5525 26.6679 23.8437
Au 15.8397 27.9063 21.0548
Au 15.4544 28.9558 18.5403
Au 18.0909 26.6464 29.6787
Au 17.8002 27.9065 27.0319
Au 17.5633 28.9008 24.396
Au 17.4602 30.2577 21.8899
Au 17.2165 31.0557 19.2935
Au 20.9142 25.7476 29.1296
Au 20.6168 26.7593 26.3705
Au 20.4345 27.8841 23.9033
Au 20.1147 29.0315 21.0781
Au 19.8848 30.4836 18.6122
Au 23.6131 24.9682 28.5747
Au 23.3152 26.155 25.869
Au 23.1881 27.3037 23.1804
Au 22.7524 28.3385 20.519
Au 22.7168 29.6537 18.0456
Au 26.1514 24.136 27.8458
Au 25.8032 25.3572 25.1909
Au 25.7128 26.4682 22.704
Au 25.4935 27.5135 20.0914
Au 25.3491 28.9718 17.5086
Au 28.6593 23.7204 27.2777
Au 28.8325 24.819 24.8423
Au 28.4954 25.9536 22.185
Au 28.6101 27.0569 19.5152
Au 27.7556 27.7012 17.0756
Au 28.9234 20.9023 26.1804
Au 28.6581 22.0158 23.5899
Au 28.5114 22.9304 20.684
Au 28.0705 24.4082 18.0841
Au 27.8325 25.3668 15.4671
Au 28.7517 18.1374 24.9943
Au 28.6089 19.1467 22.2975
Au 28.3478 20.2414 19.6143
Au 28.0494 21.647 17.0233
Au 27.7693 22.5488 14.406
Au 28.6334 15.6892 23.7299
Au 28.3857 16.5785 21.0106
Au 28.3566 17.688 18.3923
Au 27.9068 19.0833 15.8236
Au 27.6557 20.2353 13.2279
Au 28.7499 13.0973 22.363
Au 28.6332 13.9379 19.685
Au 28.2525 15.0868 17.2042
Au 27.8702 16.3865 14.8205
Au 27.7704 17.6376 12.2298
Au 26.157 11.9955 22.3376
Au 25.7119 13.1294 19.6838
Au 25.4517 14.4327 17.0985
Au 25.0999 15.4906 14.4217
Au 24.6667 16.7031 11.7923
Au 23.4407 10.9934 22.296
Au 23.0663 12.2603 19.6644
Au 22.587 13.5653 16.9509
Au 22.2123 14.8423 14.4074
Au 21.8982 15.811 11.8335
Au 20.7188 10.145 22.1587
Au 20.3305 11.4281 19.6927
Au 19.6855 12.8639 16.94
Au 19.4033 13.8574 14.3359
Au 19.2274 14.7155 11.5367
Au 17.8146 9.57116 21.9129
Au 17.5702 10.6294 19.4526
Au 17.0649 11.8342 16.9622
Au 16.5435 12.741 14.2032
Au 16.5309 14.144 11.8888
Au 16.219 11.4454 23.1291
Au 15.9464 12.7903 20.5381
Au 15.4944 13.9471 18.058
Au 15.2249 15.1524 15.4268
Au 14.9355 16.2976 12.8371
Au 14.396 13.8368 24.3654
Au 14.2354 14.906 21.6602
Au 13.8356 16.0045 19.0836
Au 13.5475 17.2311 16.4914
Au 13.3327 18.3651 13.6669
Au 12.7653 15.8907 25.3526
Au 12.5203 16.9061 22.795
Au 12.1735 18.0803 20.3162
Au 11.8799 19.5791 17.6958
Au 11.4557 20.378 14.9395
Au 10.392 20.7541 26.212
Au 10.1068 21.9825 23.599
Au 9.81073 23.0198 21.0903
Au 9.95413 24.2629 18.641
Au 11.9994 22.8698 26.9659
Au 11.4794 24.2485 24.5188
Au 11.4038 25.2163 21.6861
Au 11.435 26.4072 19.1094
Au 13.8722 25.0818 27.8981
Au 13.2219 26.2505 25.1677
Au 13.1134 27.1848 22.4218
Au 13.1098 28.2336 20.0928
Au 15.6507 26.9753 28.7524
Au 15.3059 28.1682 25.9094
Au 15.082 29.3192 23.3
Au 14.6101 30.1789 20.8861
Au 19.9217 28.2711 28.6963
Au 19.6832 29.504 25.8601
Au 19.6069 30.5033 23.3839
Au 19.2961 31.7015 21.0343
Au 22.5996 27.4251 28.1606
Au 22.446 28.7987 25.7424
Au 22.2512 29.9625 23.1622
Au 21.9092 30.8974 20.5589
Au 25.2839 27.0755 27.6101
Au 25.152 28.1038 24.9842
Au 24.8575 29.2866 22.3863
Au 24.7721 30.1095 19.996
Au 27.6328 26.1294 26.9906
Au 27.605 27.4981 24.2643
Au 27.3152 28.5729 21.7286
Au 27.4512 29.3727 19.1846
Au 30.5831 22.6597 25.1326
Au 30.1496 23.9794 22.6105
Au 29.9906 24.8258 19.8965
Au 30.0382 26.1158 17.4291
Au 30.4045 20.1943 24.0713
Au 30.3499 21.1962 21.3198
Au 30.1533 22.174 18.6788
Au 29.9138 23.3488 16.209
Au 30.5461 17.3773 22.7875
Au 30.2413 18.4367 20.2689
Au 30.0468 19.7389 17.5682
Au 29.8845 20.8263 15.0266
Au 30.4178 15.142 21.384
Au 30.4237 16.0371 18.7838
Au 29.9764 17.2101 16.4236
Au 29.6687 18.2378 13.8663
Au 27.8406 11.4803 20.2879
Au 27.3379 12.4472 17.6218
Au 27.106 13.5266 15.0925
Au 26.9477 15.0734 12.7263
Au 25.2876 10.7044 20.2402
Au 24.5951 11.8544 17.3663
Au 24.4237 12.845 14.8341
Au 24.0391 14.0847 12.4534
Au 22.3991 9.66229 20.0805
Au 22.1724 10.8893 17.5553
Au 21.6236 12.0619 14.9797
Au 21.5143 12.9983 12.5382
Au 19.6352 8.96578 19.8765
Au 19.3798 10.2923 17.4776
Au 18.9314 11.2355 14.8789
Au 18.6087 12.2571 12.4532
Au 15.3023 10.3629 20.8936
Au 14.7003 11.4312 18.5616
Au 14.4487 12.4544 15.9999
Au 14.2176 13.5545 13.4014
Au 13.623 12.445 21.9955
Au 12.9453 13.2995 19.5174
Au 13.0066 14.5437 16.8393
Au 12.5828 15.8255 14.3663
Au 11.9615 14.3144 23.0885
Au 11.4832 15.4292 20.6483
Au 11.2142 16.7325 17.914
Au 10.9099 17.6751 15.4998
Au 10.4239 16.5639 24.2464
Au 9.89007 17.3567 21.602
Au 9.69755 18.596 19.2804
Au 9.48985 19.7458 16.8579
