38
 Atoms. Timestep: 50000
Au 23.3038 22.6142 21.6052
Au 16.9011 20.8802 18.6863
Au 16.1453 19.154 20.687
Au 23.7999 18.1533 19.9919
Au 22.5682 21.6386 24.0355
Au 18.1067 23.2124 19.885
Au 21.8192 24.6731 20.8892
Au 20.0563 24.7705 18.7708
Au 21.6077 19.1479 24.3822
Au 17.9399 18.2887 18.636
Au 20.5959 22.5527 20.2433
Au 19.9145 15.8518 21.792
Au 21.9029 18.0767 18.1242
Au 19.432 20.7072 24.3749
Au 20.0106 20.2511 18.5362
Au 18.6996 22.4244 22.5145
Au 23.2689 20.3796 17.6607
Au 21.3485 22.5828 17.3623
Au 20.9732 20.5489 22.2015
Au 21.1594 20.1251 16.2157
Au 24.904 20.8002 20.0372
Au 19.3733 25.0278 21.4718
Au 19.6769 18.0036 16.7949
Au 20.3373 18.2049 20.4778
Au 21.0234 23.4479 23.0628
Au 17.8852 17.2827 21.1938
Au 22.2352 16.1374 20.052
Au 19.4525 18.2271 23.0806
Au 16.347 21.6204 21.1458
Au 23.3177 23.0464 19.1948
Au 23.6902 19.9393 22.3218
Au 17.4506 19.6265 23.2595
Au 19.6316 16.3961 19.0259
Au 18.4251 20.2372 16.5368
Au 22.3702 20.6253 20.004
Au 22.1352 17.566 22.231
Au 18.734 22.5929 17.6567
Au 18.4671 20.1952 20.8686
