38
 Atoms. Timestep: 50000
Au 17.6501 18.4662 23.2981
Au 21.2622 16.7264 20.4281
Au 22.0754 19.7031 23.3251
Au 19.7392 19.5484 24.4741
Au 17.3659 18.2678 20.0827
Au 22.9179 22.2552 23.2959
Au 20.8219 17.1877 23.0942
Au 18.9763 23.8209 22.9793
Au 19.006 16.5204 18.7834
Au 23.3232 17.4492 22.044
Au 21.2023 21.593 18.9613
Au 20.5867 22.1167 24.378
Au 19.3175 24.0304 20.2917
Au 18.6726 21.2989 20.1168
Au 18.5725 21.1934 17.2794
Au 17.4572 23.1604 18.6827
Au 21.4046 21.498 16.3993
Au 24.2455 20.0361 21.931
Au 24.6014 20.1279 19.1313
Au 18.2397 21.2807 23.2765
Au 20.1589 23.5656 17.6893
Au 21.3908 24.3668 22.2893
Au 16.5756 20.3759 18.7408
Au 20.671 21.8162 21.8048
Au 18.7496 16.6145 21.5616
Au 21.5902 17.2061 17.9042
Au 22.7368 19.6632 17.6041
Au 20.3993 19.0633 16.3559
Au 16.4808 20.1327 21.4773
Au 19.6191 19.1602 21.6276
Au 17.7183 18.4382 17.3387
Au 22.3137 19.5321 20.5288
Au 23.341 22.3285 20.5833
Au 23.7278 17.6544 19.4398
Au 17.0273 22.9286 21.3913
Au 23.4085 22.4867 17.9607
Au 21.7733 24.2278 19.6701
Au 19.8897 19.1686 18.7895
