40
 Atoms. Timestep: 50000
Au 25.0435 20.5431 20.5855
Au 18.0853 22.7096 22.53
Au 22.4769 20.78 20.9394
Au 19.3902 21.2389 24.5211
Au 16.1895 18.7699 21.1411
Au 19.1841 17.4454 17.4989
Au 19.4495 16.4485 19.9659
Au 17.1466 17.0945 19.1872
Au 21.8539 20.0423 23.4882
Au 19.8314 24.7484 22.237
Au 23.3842 19.7202 18.5382
Au 23.8877 21.9931 22.6188
Au 19.083 24.4797 17.7081
Au 20.8334 19.3517 16.5668
Au 22.584 23.5948 20.6865
Au 16.9242 21.1374 20.6504
Au 18.2106 22.0011 18.4873
Au 19.3836 20.5525 21.7827
Au 20.4468 25.4193 19.8555
Au 22.5533 21.5273 16.4368
Au 23.5888 17.9909 20.807
Au 19.9077 18.5023 24.0238
Au 24.2865 19.2907 22.7521
Au 20.9687 18.4837 21.3043
Au 18.8357 19.2903 19.4256
Au 16.3157 19.4503 18.5618
Au 21.036 22.6241 23.0757
Au 21.097 20.8274 18.6227
Au 21.5015 23.6951 18.0654
Au 18.389 19.9038 16.8623
Au 23.8197 22.3898 18.9255
Au 20.3196 16.0355 22.8012
Au 17.8286 24.2053 20.3022
Au 22.4371 17.3916 23.3391
Au 20.1385 22.8178 20.3277
Au 22.1176 16.0202 20.8655
Au 17.3015 19.9958 23.1963
Au 21.5809 17.6529 18.6383
Au 18.3563 17.5043 22.1512
Au 20.0315 22.1307 16.3272
