40
 Atoms. Timestep: 50000
Au 19.6681 20.5667 16.0843
Au 21.7728 21.5099 17.5278
Au 17.4053 22.3871 21.0037
Au 21.1707 23.9304 18.9
Au 24.0335 19.4033 21.3883
Au 21.6348 16.3364 18.0037
Au 18.1365 19.1793 17.5823
Au 19.3741 21.6218 18.7748
Au 18.2148 19.1395 23.3008
Au 21.1983 23.7736 23.1222
Au 19.0043 19.5906 20.3837
Au 16.7339 20.6182 19.0849
Au 19.8508 21.9617 24.9665
Au 22.5209 21.143 23.1361
Au 24.356 22.0103 21.1127
Au 22.7822 24.2013 21.0123
Au 21.9106 21.7327 20.4969
Au 19.6364 23.9856 21.0094
Au 19.2308 17.0128 18.7759
Au 23.0483 18.6604 24.0029
Au 23.7541 20.4843 18.7462
Au 20.9071 16.4708 20.5744
Au 20.9355 19.1248 18.6925
Au 21.3858 18.9679 21.5417
Au 18.5689 23.6861 23.3853
Au 19.6547 23.3431 16.7777
Au 17.3972 21.5629 23.6676
Au 19.8751 21.5142 22.4661
Au 23.1015 16.9564 22.1375
Au 16.4794 19.9194 21.6162
Au 20.3132 17.7454 16.4087
Au 18.0751 23.8571 18.9055
Au 20.6735 17.0663 23.2498
Au 18.4469 17.1931 21.5869
Au 23.1531 17.869 19.5752
Au 16.8979 17.9729 19.7644
Au 23.6186 23.0877 18.7429
Au 20.7373 19.4609 24.4072
Au 17.3648 21.9119 16.9283
Au 22.7769 18.8411 16.9566
