45
 Atoms. Timestep: 50000
Au 21.2014 23.3394 18.0442
Au 19.5774 19.6335 15.3279
Au 21.1546 18.1104 16.9392
Au 22.8213 16.3893 21.3004
Au 18.4838 21.6506 22.5663
Au 18.5749 19.4397 21.0675
Au 21.5236 22.4822 22.0063
Au 17.3646 20.2987 16.3026
Au 22.8953 21.34 24.129
Au 18.4201 17.8093 17.038
Au 23.7876 18.5034 20.278
Au 18.3868 24.2665 18.3681
Au 18.9062 19.2927 24.0917
Au 16.1614 18.1617 20.8968
Au 20.9329 19.9276 22.2321
Au 23.7436 23.5389 23.0727
Au 18.3528 17.2608 19.6687
Au 18.1486 17.3671 22.3763
Au 21.9071 21.0138 19.4988
Au 20.1362 15.7085 20.8791
Au 23.3716 19.3952 17.7847
Au 21.0013 18.1227 19.9796
Au 20.3578 15.9881 18.3446
Au 21.4382 19.1753 24.8859
Au 16.9284 22.0153 18.6306
Au 17.3939 23.5967 20.7669
Au 16.8302 19.3918 18.7018
Au 19.5858 19.8891 18.165
Au 19.2236 22.1737 16.8823
Au 20.3236 21.5417 24.5082
Au 23.7899 20.9414 21.5944
Au 20.6461 17.3394 22.9614
Au 21.5238 24.0422 24.3345
Au 21.5878 20.7996 16.4763
Au 16.5816 19.5011 23.1844
Au 19.3967 24.1128 22.9102
Au 19.3163 21.9177 19.9372
Au 23.1864 23.3551 20.1303
Au 16.2866 21.1931 20.9782
Au 20.0206 24.418 20.2288
Au 22.9435 16.7207 18.6148
Au 22.0666 25.0861 21.8784
Au 24.9297 20.8912 19.3692
Au 23.0672 18.4865 22.7998
Au 23.4978 22.1466 17.6437
