490
 Atoms. Timestep: 50000
Au 9.68137 25.8572 24.0745
Au 11.5057 28.1996 24.7671
Au 9.86674 22.4709 22.334
Au 11.3977 24.3465 23.1422
Au 13.2773 26.4498 23.8069
Au 14.8983 28.6097 24.5855
Au 10.1569 18.7148 20.8372
Au 11.9678 20.9184 21.4143
Au 13.8269 22.9208 22.2984
Au 15.6338 25.1662 23.0207
Au 17.3138 27.4737 24.0996
Au 19.1892 29.4798 24.6944
Au 10.9461 15.0456 18.9866
Au 12.6343 17.2356 19.8502
Au 14.2848 19.5488 20.7091
Au 16.1391 21.5591 21.3733
Au 17.7423 23.7015 22.1393
Au 19.7539 25.9622 22.8296
Au 21.4274 28.2581 23.6118
Au 22.9705 30.476 24.4801
Au 11.5844 11.8866 17.3363
Au 13.3197 13.7333 18.0293
Au 14.9578 15.7622 18.8395
Au 16.5206 18.0384 19.7747
Au 18.3987 20.1388 20.3933
Au 20.0973 22.3428 21.2514
Au 21.8346 24.5783 22.0958
Au 23.783 26.8426 22.7097
Au 25.3636 28.8202 23.5128
Au 26.8018 30.8555 24.1358
Au 13.5286 10.3649 16.5255
Au 15.4986 12.1222 17.203
Au 17.209 14.1675 18.1945
Au 18.8568 16.645 18.9094
Au 20.6679 18.4626 19.6407
Au 22.4349 20.6273 20.43
Au 24.0908 22.8033 21.2965
Au 25.772 25.1169 21.9444
Au 27.5042 27.1942 22.5696
Au 28.9008 29.3037 23.2291
Au 17.6066 10.5042 16.2529
Au 19.3356 12.6871 16.8797
Au 21.1424 14.8371 17.7139
Au 22.9741 16.9558 18.4989
Au 24.5986 19.3098 19.4292
Au 26.4915 21.4036 20.2128
Au 28.2472 23.6783 21.092
Au 29.8325 25.8566 21.7719
Au 21.7194 11.0681 16.2313
Au 23.526 13.3616 16.8071
Au 25.3819 15.6711 17.6777
Au 26.9481 17.857 18.6012
Au 28.6524 19.916 19.4102
Au 30.453 22.1458 20.3359
Au 25.7762 11.7906 16.1162
Au 27.5736 14.1531 16.726
Au 29.1694 16.3188 17.6272
Au 30.9266 18.4279 18.6215
Au 29.5447 12.7157 15.8501
Au 31.0902 14.6486 16.7791
Au 9.50309 25.2252 21.4012
Au 11.2223 27.2839 22.2167
Au 12.9294 29.365 22.9295
Au 9.80157 21.5494 19.9053
Au 11.6719 23.7796 20.579
Au 13.5177 25.8794 21.24
Au 15.0971 28.1084 22.0222
Au 16.9386 30.0748 22.7875
Au 10.5415 17.8341 18.0541
Au 12.1964 19.8732 18.7417
Au 13.9043 22.2375 19.633
Au 15.552 24.2275 20.4691
Au 17.4273 26.3965 21.4106
Au 19.1226 28.6312 21.8688
Au 20.821 30.8018 22.8023
Au 11.0381 14.3897 16.5027
Au 12.6625 16.5323 17.1013
Au 14.4533 18.456 18.0217
Au 16.0301 20.6582 18.6872
Au 17.8002 22.8606 19.3636
Au 19.466 24.8839 20.2491
Au 21.6552 27.0668 21.0361
Au 23.1596 29.3402 21.7283
Au 24.7086 31.3583 22.6075
Au 13.0946 12.7995 15.2877
Au 14.9789 14.6684 16.2274
Au 16.7264 16.8197 17.0538
Au 18.3662 19.1883 17.6826
Au 20.1236 21.2111 18.5438
Au 22.0172 23.3663 19.5285
Au 23.8149 25.5711 20.2252
Au 25.6017 27.7564 20.7007
Au 27.0333 30.0228 21.4821
Au 15.3358 11.2713 14.6487
Au 17.1206 13.1831 15.315
Au 18.9862 15.3779 16.2559
Au 20.7397 17.6526 16.8959
Au 22.4775 19.6885 17.7559
Au 24.2217 21.9045 18.6222
Au 26.007 23.9639 19.0752
Au 27.743 26.0615 19.7776
Au 29.1384 28.2777 20.6723
Au 19.5452 11.6791 14.4788
Au 21.2715 13.7712 15.1635
Au 23.1065 16.171 15.9267
Au 24.9273 18.3069 16.5501
Au 26.4189 20.5242 17.5459
Au 28.4532 22.5488 18.4535
Au 30.0509 24.5562 19.3093
Au 23.7643 12.346 14.2426
Au 25.4148 14.481 14.9714
Au 27.0627 16.7989 15.6572
Au 28.7637 19.0178 16.6839
Au 30.5004 21.0771 17.538
Au 27.5498 13.0324 14.1443
Au 29.2446 15.2183 14.781
Au 30.8731 17.2331 15.9437
Au 9.63069 24.2491 18.9516
Au 11.257 26.4592 19.5482
Au 13.1137 28.4229 20.2482
Au 14.7707 30.5697 20.9467
Au 9.89984 20.4972 16.9398
Au 11.6783 22.5283 17.977
Au 13.3742 24.871 18.5363
Au 15.275 26.9846 19.2729
Au 16.9023 29.0533 20.0984
Au 18.6038 31.2343 20.7177
Au 10.5007 17.0221 15.4167
Au 12.1459 19.1215 16.0801
Au 13.779 21.1395 16.8938
Au 15.627 23.2603 17.6868
Au 17.2664 25.5465 18.4175
Au 19.0771 27.4386 19.3349
Au 20.8935 29.6118 19.9703
Au 22.4687 31.8422 20.9986
Au 12.6708 15.3911 14.4919
Au 14.4829 17.3094 15.1118
Au 16.1032 19.698 15.8281
Au 17.9324 21.6985 16.6569
Au 19.8234 23.8724 17.572
Au 21.579 25.9102 18.5531
Au 23.4335 28.2156 19.2125
Au 24.8335 30.5668 19.7865
Au 14.9524 13.6307 13.4221
Au 16.5051 15.6697 14.1645
Au 18.4341 18.0174 15.1855
Au 20.2285 20.2486 15.8994
Au 22.0445 22.3873 16.8405
Au 23.8057 24.5812 17.4939
Au 25.7434 26.6085 18.2047
Au 27.3797 29.0858 18.9345
Au 17.3088 12.1997 12.876
Au 19.1278 14.1928 13.6567
Au 20.897 16.5254 14.4256
Au 22.5419 18.7849 14.8831
Au 24.3479 20.8515 15.8343
Au 26.0174 23.044 16.5006
Au 27.9034 25.0378 17.1904
Au 29.5097 27.1273 18.0576
Au 21.4893 12.739 12.5146
Au 23.0761 14.9761 13.3358
Au 24.834 17.3074 14.061
Au 26.6425 19.5498 14.7298
Au 28.4281 21.5552 15.7679
Au 30.21 23.7503 16.5408
Au 25.4735 13.7394 12.3382
Au 27.2222 15.7152 12.9472
Au 28.6332 17.7591 13.976
Au 30.2316 19.9981 14.7858
Au 9.80003 23.207 16.4339
Au 11.3505 25.4461 16.8407
Au 12.9939 27.6015 17.4517
Au 14.8177 29.6258 18.3292
Au 16.4858 31.6931 19.0826
Au 10.1358 19.4165 14.1116
Au 11.8256 21.585 15.0354
Au 13.245 23.7529 15.9141
Au 15.1872 25.9715 16.456
Au 16.8945 28.1294 17.1705
Au 18.719 29.9146 18.3295
Au 20.3873 32.1507 19.2226
Au 12.1765 17.8672 13.5295
Au 13.9975 19.7489 14.1877
Au 15.6454 22.2783 14.9612
Au 17.6394 24.4237 15.9408
Au 19.3499 26.5684 16.6157
Au 21.0332 28.6427 17.4627
Au 22.727 30.6368 18.1002
Au 14.3451 16.2915 12.414
Au 16.2783 18.2414 13.2541
Au 18.0486 20.6445 14.0811
Au 19.9007 22.8888 14.9669
Au 21.7478 24.9309 15.6951
Au 23.3895 27.026 16.5752
Au 25.1378 29.0963 17.1248
Au 16.8407 14.6393 11.6796
Au 18.4877 16.835 12.6066
Au 20.2617 19.1529 13.2392
Au 22.0824 21.4333 14.0375
Au 23.8607 23.5021 14.7999
Au 25.5058 25.7382 15.4883
Au 27.4372 27.6694 16.413
Au 19.2769 13.3436 11.04
Au 20.9236 15.6103 11.8182
Au 22.7029 17.5715 12.3195
Au 24.426 19.9417 13.051
Au 26.1753 21.8741 13.7802
Au 27.6569 24.168 14.5687
Au 29.5669 26.092 15.559
Au 23.2168 14.0682 10.9117
Au 24.9299 16.2492 11.4001
Au 26.5379 18.3805 12.2269
Au 28.5959 20.3728 12.9368
Au 29.9978 22.8285 13.8655
Au 9.6666 22.0623 13.726
Au 11.3019 24.2162 14.1283
Au 13.2342 26.3548 14.8795
Au 14.8044 28.7245 15.637
Au 16.5067 30.7627 16.3965
Au 18.4526 32.4345 17.4746
Au 11.9932 20.361 12.4841
Au 13.6776 22.7381 13.2321
Au 15.4897 24.8352 13.9176
Au 17.3012 27.0965 14.5864
Au 18.9168 29.1131 15.5383
Au 20.6553 31.2127 16.1847
Au 14.2645 19.3123 11.5718
Au 15.9819 21.2632 12.2754
Au 17.6643 23.4516 13.2079
Au 19.6022 25.3262 13.9554
Au 21.2297 27.5278 14.6191
Au 22.8229 29.8586 15.3693
Au 16.4752 17.5593 10.7096
Au 18.1534 19.4919 11.5227
Au 20.0217 21.7646 12.3055
Au 21.7349 24.008 12.9115
Au 23.5205 25.9625 13.7906
Au 24.9502 28.2486 14.6781
Au 18.6953 15.818 9.85382
Au 20.3465 18.0119 10.6388
Au 22.1147 20.2627 11.3675
Au 23.7798 22.446 11.9247
Au 25.6832 24.4772 12.7891
Au 27.3651 26.8073 13.6184
Au 21.1437 14.5359 9.35864
Au 22.7235 16.5502 9.69788
Au 24.5765 18.7459 10.3853
Au 26.19 20.983 11.0985
Au 28.0321 22.9646 11.9147
Au 29.2956 25.254 12.9355
Au 11.442 22.8492 11.8344
Au 13.3351 25.2164 12.3305
Au 14.9774 27.2012 12.9685
Au 16.8852 29.6617 13.9456
Au 18.4387 31.5389 14.6618
Au 13.7763 21.8274 10.7321
Au 15.6815 23.8414 11.3067
Au 17.2748 25.946 12.1582
Au 18.9892 28.0713 12.8822
Au 20.512 30.1489 13.6642
Au 16.2173 20.1473 9.79515
Au 17.9052 22.565 10.5989
Au 19.5652 24.4892 11.0917
Au 21.2764 26.5765 11.9815
Au 22.9623 28.384 12.8654
Au 18.1919 18.5277 8.85437
Au 19.8932 20.6539 9.59863
Au 21.7279 22.7174 10.0553
Au 23.3986 25.1321 10.9599
Au 25.3463 26.9943 12.0207
Au 20.5061 17.0354 8.2653
Au 22.2694 19.1813 8.94551
Au 23.982 21.2383 9.56741
Au 25.7606 23.4983 10.3252
Au 27.383 25.3811 10.9956
Au 9.71987 23.1643 24.9967
Au 11.3744 25.6616 26.1475
Au 13.2951 27.5596 26.5903
Au 10.1323 19.658 23.4286
Au 11.8567 21.5129 24.3272
Au 13.4777 23.9234 24.9153
Au 15.4336 26.122 25.6518
Au 17.1584 28.3626 26.7114
Au 10.6691 16.0909 21.6723
Au 12.4536 18.2924 22.5048
Au 14.2838 20.4416 23.4747
Au 16.0039 22.6133 24.0224
Au 18.0326 24.6784 24.7774
Au 19.5678 26.8426 25.7558
Au 21.2403 29.224 26.5351
Au 11.4693 12.7081 19.9153
Au 13.0709 14.6828 20.6903
Au 14.7624 16.7657 21.5806
Au 16.6181 19.0557 22.4143
Au 18.4017 21.1294 23.2808
Au 20.2267 23.314 23.9651
Au 21.7442 25.6448 24.6899
Au 23.4985 27.7993 25.4123
Au 25.2331 29.6446 26.1136
Au 13.5986 11.1698 19.0725
Au 15.38 13.0798 19.9003
Au 16.9907 15.3356 20.714
Au 18.8838 17.4889 21.7177
Au 20.4209 19.5986 22.2422
Au 22.3146 21.8412 23.0867
Au 23.9029 24.119 23.9141
Au 25.9787 26.0893 24.7042
Au 27.229 28.2597 25.3497
Au 15.7388 9.59729 18.0255
Au 17.7189 11.6342 18.8476
Au 19.4831 13.7438 19.6499
Au 21.0053 15.8387 20.4313
Au 22.7742 18.0216 21.3136
Au 24.8066 20.3302 22.2127
Au 26.2559 22.5393 22.9944
Au 28.1065 24.6418 23.6382
Au 29.2117 26.8605 24.6445
Au 19.8442 10.0137 18.0601
Au 21.6862 12.2701 18.7483
Au 23.371 14.4271 19.6218
Au 25.137 16.5492 20.3119
Au 26.8214 18.7786 21.2507
Au 28.6425 21.0002 22.1695
Au 30.3647 23.1514 22.9042
Au 23.8144 10.7173 17.7933
Au 25.5738 12.887 18.462
Au 27.4139 15.101 19.5508
Au 29.2801 17.2179 20.312
Au 30.8905 19.2787 21.4089
Au 27.9604 11.5494 17.8178
Au 29.5306 13.6652 18.6992
Au 31.2315 15.7185 19.3854
Au 10.2804 20.5659 26.2149
Au 11.9112 22.8056 26.8888
Au 13.5618 25.0225 27.4765
Au 15.6142 27.0244 28.3699
Au 10.7701 16.8968 24.3723
Au 12.5142 18.9477 25.3416
Au 14.1232 21.4661 26.1599
Au 15.987 23.6797 26.6782
Au 17.923 25.8418 27.4056
Au 19.5751 27.8818 28.4421
Au 11.2944 13.6411 22.5789
Au 12.9219 15.6466 23.5785
Au 14.7983 17.8131 24.2811
Au 16.4402 20.0134 25.2254
Au 18.3211 22.3213 25.8385
Au 20.2055 24.227 26.6819
Au 21.7324 26.6066 27.4299
Au 23.5315 28.3634 27.9874
Au 13.3391 12.0665 21.7218
Au 15.146 14.0082 22.4397
Au 16.8885 16.4584 23.4768
Au 18.8604 18.6431 24.3037
Au 20.5916 20.5957 24.9343
Au 22.3235 22.768 25.7306
Au 24.0602 25.0053 26.4363
Au 25.6951 27.1311 27.3836
Au 15.7445 10.5891 20.8371
Au 17.423 12.6361 21.5701
Au 19.35 14.7144 22.4686
Au 21.1891 16.9396 23.219
Au 22.8079 19.1013 23.9774
Au 24.5116 21.3341 24.8393
Au 26.384 23.4377 25.6394
Au 27.8404 25.5217 26.5595
Au 18.03 9.03121 19.8138
Au 19.8096 11.0501 20.6063
Au 21.6969 13.215 21.5631
Au 23.265 15.4192 22.3004
Au 25.1694 17.5363 23.0231
Au 26.7237 19.7445 23.868
Au 28.4216 21.992 24.7559
Au 29.9917 24.0037 25.5073
Au 22.0965 9.59181 19.6596
Au 23.824 11.6122 20.4973
Au 25.6973 13.847 21.2641
Au 27.2881 16.0378 22.1508
Au 29.1097 18.2623 22.8906
Au 30.9397 20.487 23.9612
Au 26.0122 10.4259 19.2029
Au 27.8424 12.3359 20.38
Au 29.4983 14.4836 21.3046
Au 31.2318 16.6192 21.9856
Au 10.8409 17.9154 27.224
Au 12.479 20.1783 27.9197
Au 14.0524 22.5999 28.7675
Au 15.9453 24.4563 29.3379
Au 17.786 26.4113 30.0973
Au 11.6036 14.5195 25.4687
Au 13.026 16.4425 26.4739
Au 14.7652 18.8469 27.0751
Au 16.3294 21.1848 27.9753
Au 18.3388 23.2387 28.4328
Au 20.1718 25.2386 29.304
Au 21.8875 27.2266 30.0061
Au 13.4263 12.994 24.5775
Au 14.9985 15.1442 25.1889
Au 17.078 17.3476 26.0866
Au 18.7081 19.5458 26.8844
Au 20.377 21.5984 27.5845
Au 22.5065 23.6853 28.554
Au 23.9993 25.9243 29.2057
Au 15.6828 11.5813 23.3716
Au 17.5002 13.6446 24.2318
Au 19.2275 15.8788 25.0957
Au 20.9339 17.9179 25.9379
Au 22.8288 20.1462 26.6835
Au 24.6979 22.2437 27.6679
Au 25.9976 24.3016 28.2979
Au 17.9318 10.037 22.4685
Au 19.6208 12.0561 23.3601
Au 21.3618 14.252 24.1333
Au 23.2009 16.2697 25.0383
Au 24.8553 18.5002 25.6534
Au 26.6355 20.7646 26.5656
Au 28.4261 22.9339 27.4799
Au 20.1434 8.56978 21.4161
Au 21.9954 10.5873 22.1945
Au 23.7563 12.7363 23.2392
Au 25.4093 14.9543 24.1664
Au 27.4611 17.0976 24.7666
Au 29.059 19.3733 25.466
Au 30.6059 21.5529 26.3103
Au 24.0835 9.16784 21.336
Au 25.9392 11.0373 22.2511
Au 27.4619 13.3993 23.1842
Au 29.5293 15.2529 23.919
Au 31.0276 17.6425 24.4771
Au 11.6061 15.4379 28.366
Au 13.0926 17.6787 28.8315
Au 14.6002 19.8479 29.7103
Au 16.4504 22.1826 30.5034
Au 18.1881 24.1285 31.109
Au 20.0078 26.084 31.9065
Au 13.5317 13.7307 27.2287
Au 15.2889 16.0782 27.8965
Au 16.8972 18.5054 28.7955
Au 18.7276 20.3966 29.3937
Au 20.4345 22.551 30.2103
Au 22.2457 24.8334 31.1257
Au 15.8666 12.5455 25.9964
Au 17.4006 14.6546 27.0834
Au 19.1405 16.6745 27.7841
Au 20.9179 18.7386 28.5972
Au 22.7066 20.9246 29.3605
Au 24.4211 23.1829 30.3068
Au 18.0311 11.0481 25.3761
Au 19.6176 13.1452 25.9951
Au 21.452 15.1792 26.9635
Au 23.3421 17.3759 27.6936
Au 25.0662 19.5159 28.3873
Au 26.8255 21.712 29.3291
Au 19.7931 9.43913 24.2259
Au 21.6642 11.6131 25.0633
Au 23.6081 13.6108 26.0054
Au 25.437 16.0105 26.9488
Au 27.2944 17.9956 27.3833
Au 28.7447 20.2458 28.1331
Au 22.1118 8.28051 23.1931
Au 23.9613 9.98534 24.1063
Au 25.8468 12.1354 24.9749
Au 27.6464 14.3823 25.8552
Au 29.4853 16.4992 26.4307
Au 30.9924 18.8011 27.2515
Au 13.6536 14.9857 29.7311
Au 15.2381 17.046 30.6008
Au 16.9789 19.3558 31.3297
Au 18.5417 21.6029 31.9682
Au 20.3658 23.5605 32.6828
Au 15.6186 13.4294 28.8539
Au 17.487 15.7363 29.5377
Au 18.9284 17.9001 30.4378
Au 20.6807 19.7721 31.2154
Au 22.5346 21.8306 31.7745
Au 17.9549 11.9454 27.9327
Au 19.5131 14.0453 28.7099
Au 21.3972 16.1554 29.4902
Au 23.1004 18.4347 30.4432
Au 24.7307 20.5712 30.8966
Au 20.0845 10.5238 26.9746
Au 21.6591 12.6544 27.7203
Au 23.7222 14.828 28.4692
Au 25.6782 17.075 29.544
Au 27.3366 19.0681 29.9968
Au 21.875 9.05514 25.828
Au 23.8594 11.028 26.3052
Au 25.847 13.4827 27.5189
Au 27.5957 15.5259 28.4961
Au 29.2967 17.492 28.8016
