55
 Atoms. Timestep: 50000
Au 19.8873 19.7667 20.3447
Au 22.5326 20.9966 20.426
Au 20.2324 22.5999 21.0854
Au 19.7482 16.9939 20.2742
Au 16.7416 20.1918 20.4277
Au 20.9298 21.9955 18.4362
Au 21.1287 20.6278 22.9206
Au 19.1514 20.2464 17.4753
Au 19.686 18.4874 22.8873
Au 21.8631 19.2004 18.4983
Au 21.9681 18.3444 21.2661
Au 18.265 22.239 19.3102
Au 18.4386 21.0709 22.4622
Au 25.0641 22.2219 20.6741
Au 20.6549 25.3063 22.106
Au 19.786 17.3686 17.609
Au 16.3673 19.5971 23.0776
Au 21.8684 24.0949 16.7285
Au 22.2591 21.5402 25.2941
Au 18.2897 20.7277 14.8778
Au 19.1724 15.7696 22.9018
Au 23.8863 18.9844 16.6711
Au 23.8653 16.9535 21.9248
Au 16.7809 24.3005 18.7509
Au 18.255 19.6362 25.1129
Au 23.0168 23.7222 21.4364
Au 23.5451 23.1581 18.6086
Au 21.37 24.4774 19.4202
Au 23.7637 21.7265 23.0311
Au 21.3464 23.3532 23.55
Au 24.6725 20.494 18.7304
Au 22.7521 21.3478 16.635
Au 24.681 19.5088 21.4597
Au 23.215 19.1315 23.7784
Au 24.1408 18.021 19.2617
Au 18.6158 24.841 20.543
Au 19.3169 24.2062 17.6935
Au 18.623 23.5525 22.9412
Au 19.5557 21.9388 24.919
Au 16.5693 23.0503 21.2134
Au 17.6977 18.3091 18.8791
Au 18.1375 18.4538 15.7125
Au 16.5445 20.0453 17.096
Au 21.5297 15.7107 21.7673
Au 17.3969 17.8241 21.4359
Au 22.2484 16.9547 16.915
Au 20.8993 19.1493 15.8629
Au 22.3189 16.3331 19.3926
Au 21.8499 17.1171 24.0746
Au 15.7185 21.8803 18.7373
Au 17.6022 22.5493 16.6669
Au 17.1251 17.2128 23.9898
Au 19.4109 16.9554 25.2311
Au 20.4078 22.0789 15.8709
Au 20.8311 19.3603 25.3289
