550
 Atoms. Timestep: 50000
Au 21.4308 15.1045 31.8463
Au 21.2562 16.2946 29.5268
Au 20.8963 17.4508 26.9054
Au 20.7425 18.537 24.2766
Au 20.4575 19.7724 21.7984
Au 20.2315 21.0232 19.104
Au 20.044 22.1978 16.3952
Au 19.8351 23.398 13.8487
Au 19.655 24.4583 11.2164
Au 19.4071 25.4894 8.9292
Au 18.9956 15.7364 31.0036
Au 18.5628 16.9532 28.5854
Au 18.2946 18.1524 25.792
Au 18.0321 19.1566 23.1606
Au 17.8673 20.2916 20.6571
Au 17.9382 21.6517 17.8769
Au 17.3659 22.7616 15.2745
Au 17.2657 24.0192 12.6724
Au 16.9605 25.356 10.283
Au 20.8157 17.7687 31.7882
Au 20.4295 19.0195 29.2772
Au 20.2094 20.1376 26.5682
Au 20.0365 21.3433 23.9774
Au 19.7984 22.4241 21.2383
Au 19.5427 24.044 18.8046
Au 19.1536 24.8317 16.2517
Au 18.9469 26.0669 13.6372
Au 18.909 27.3558 11.0854
Au 23.3184 17.1792 31.1567
Au 23.106 18.3451 28.5876
Au 22.8058 19.4744 25.8409
Au 22.7414 20.6142 23.3231
Au 22.3894 21.8017 20.7273
Au 22.3903 23.0335 18.01
Au 22.0106 24.046 15.4755
Au 21.6526 25.3794 12.9215
Au 21.3734 26.3807 10.2739
Au 23.4007 14.5172 30.0673
Au 23.112 15.4913 27.4969
Au 22.8732 16.8365 24.8036
Au 22.4657 17.9925 22.2576
Au 22.3964 19.1086 19.5118
Au 22.0919 20.2392 17.0939
Au 21.7214 21.5031 14.2702
Au 21.6687 22.6806 11.6793
Au 21.457 23.7823 9.19575
Au 20.4954 13.507 29.9446
Au 20.2583 14.7424 27.3752
Au 20.0518 15.8803 24.6592
Au 19.7651 17.0725 22.0939
Au 19.6441 18.3179 19.4309
Au 19.5136 19.3259 16.8112
Au 19.0243 20.5265 14.3021
Au 18.8602 21.6595 11.7186
Au 18.4141 22.983 9.26013
Au 16.3181 16.1108 30.0573
Au 15.9844 17.1551 27.5002
Au 15.8443 18.5715 24.9428
Au 15.5359 19.8427 22.2379
Au 15.3533 20.9923 19.5423
Au 15.0593 22.1927 16.918
Au 14.8889 23.4392 14.4206
Au 14.6551 24.3635 11.7355
Au 18.1411 18.5228 30.8122
Au 17.7692 19.614 28.2445
Au 17.6744 20.8103 25.7298
Au 17.4064 21.8881 23.0374
Au 17.2055 23.0388 20.2325
Au 16.8758 24.2236 17.7019
Au 16.6646 25.5291 15.185
Au 16.2305 26.5958 12.5134
Au 19.8205 20.621 31.5399
Au 19.642 21.6959 28.9107
Au 19.4472 23.0217 26.2333
Au 19.1196 24.0719 23.6697
Au 18.9595 25.2891 21.1563
Au 18.5837 26.6527 18.5843
Au 18.4503 27.5185 15.8426
Au 18.0746 28.6892 13.3778
Au 22.6219 19.8985 30.8635
Au 22.2501 20.9419 28.2631
Au 22.0954 22.1558 25.6565
Au 21.9973 23.323 23.0725
Au 21.7594 24.4755 20.5283
Au 21.4993 25.6322 17.7725
Au 21.1222 26.7074 15.1716
Au 20.8152 28.1768 12.6679
Au 25.2972 18.992 30.0895
Au 24.9479 20.2489 27.4674
Au 24.8193 21.525 24.8198
Au 24.6379 22.5654 22.2852
Au 24.4243 23.7868 19.7754
Au 24.1419 25.0384 17.1293
Au 23.8557 26.1414 14.5049
Au 23.5161 27.2146 12.0285
Au 25.2112 16.425 29.2822
Au 25.1614 17.5109 26.5738
Au 24.6884 18.7767 23.8429
Au 24.5324 19.8649 21.1039
Au 24.2491 21.0539 18.6989
Au 23.957 22.2446 15.8814
Au 23.8184 23.5245 13.3457
Au 23.5197 24.6892 10.7897
Au 25.2123 13.826 28.1152
Au 24.8215 14.7619 25.5386
Au 24.645 16.1972 22.6938
Au 24.296 17.1592 20.0872
Au 24.1904 18.2993 17.2819
Au 23.7715 19.5928 14.8454
Au 23.6848 20.9048 12.1011
Au 23.4652 21.8784 9.50117
Au 22.524 12.9648 27.9163
Au 22.1726 14.0921 25.281
Au 22.0397 15.2629 22.7331
Au 21.5619 16.2547 20.1262
Au 21.5179 17.4946 17.5559
Au 21.2357 18.5489 14.8847
Au 21.0048 19.8218 12.0131
Au 20.8374 21.1392 9.53187
Au 19.7205 12.1071 27.8591
Au 19.3464 13.2553 25.2857
Au 19.2172 14.3013 22.3803
Au 18.9035 15.509 19.7598
Au 18.5787 16.6827 17.2883
Au 18.4964 17.6642 14.6646
Au 18.1215 18.9518 11.9921
Au 17.8167 20.2243 9.60185
Au 18.0442 14.1905 28.9439
Au 17.7859 15.4476 26.4029
Au 17.5421 16.3909 23.6727
Au 17.2364 17.4732 21.0367
Au 16.9636 18.9844 18.413
Au 16.8754 19.9527 15.7248
Au 16.2884 21.2729 13.1693
Au 16.361 22.4293 10.7288
Au 13.6004 16.7591 29.0579
Au 13.4264 18.0292 26.5067
Au 13.4206 19.0787 23.6805
Au 13.0821 20.2499 21.0948
Au 12.7554 21.4843 18.6904
Au 12.4231 22.7658 15.9693
Au 12.2065 23.9655 13.4462
Au 15.4672 18.7231 29.7892
Au 15.1789 20.0499 27.2233
Au 15.1728 21.3868 24.4541
Au 14.7995 22.5264 21.8447
Au 14.6535 23.8241 19.2107
Au 14.1668 24.8789 16.7808
Au 14.1357 25.9348 14.0338
Au 17.4002 20.9999 30.5006
Au 16.7919 22.1935 28.0127
Au 16.7283 23.465 25.2442
Au 16.5066 24.6361 22.6827
Au 16.3761 25.8054 20.2419
Au 16.0222 27.1266 17.5667
Au 15.6975 28.1351 15.022
Au 19.0551 23.3415 31.1964
Au 18.7292 24.3485 28.691
Au 18.5767 25.7818 26.1186
Au 18.3598 26.9821 23.5041
Au 18.0568 28.3193 20.888
Au 17.8114 29.3275 18.244
Au 17.461 30.2607 15.8687
Au 21.676 22.5604 30.5156
Au 21.4945 23.7548 28.2129
Au 21.2229 24.8045 25.5299
Au 20.9818 26.0179 22.8971
Au 20.8805 27.295 20.1878
Au 20.5678 28.548 17.4315
Au 20.4315 29.5696 14.9268
Au 24.3629 21.6498 29.9438
Au 24.241 22.8868 27.4466
Au 23.9875 24.2424 24.5816
Au 23.9493 25.387 22.0778
Au 23.5172 26.38 19.551
Au 23.1288 27.6863 16.9272
Au 22.8688 28.6972 14.2109
Au 26.948 20.9218 29.2
Au 26.9341 22.1392 26.5469
Au 26.8603 23.4373 24.015
Au 26.6855 24.5141 21.4836
Au 26.2379 25.667 18.8237
Au 25.8885 26.8191 16.2062
Au 25.6107 27.9711 13.6983
Au 27.1822 18.2641 28.0558
Au 26.805 19.5285 25.563
Au 26.7495 20.5465 22.9286
Au 26.6083 21.8448 20.2276
Au 26.1541 22.9911 17.6574
Au 25.9572 24.162 15.1243
Au 25.6333 25.3056 12.581
Au 26.9615 15.5957 27.0813
Au 26.741 16.7625 24.3745
Au 26.5131 18.1219 21.698
Au 26.3726 19.1462 19.1505
Au 25.9952 20.2859 16.3967
Au 25.7483 21.6007 13.8427
Au 25.5492 22.5956 11.3439
Au 26.7411 13.1301 26.1057
Au 26.5794 14.2606 23.2463
Au 26.5238 15.3641 20.5408
Au 26.2381 16.3954 17.9985
Au 26.1493 17.7557 15.3009
Au 25.6121 18.845 12.9537
Au 25.4227 19.7922 10.2197
Au 24.0866 12.0721 25.8228
Au 23.9225 13.4404 23.0292
Au 23.6284 14.4289 20.4875
Au 23.5475 15.5648 18.0168
Au 23.382 16.6154 15.2642
Au 22.9924 17.9895 12.5912
Au 22.6354 19.217 10.1273
Au 21.5068 11.2368 25.7611
Au 21.0114 12.2944 23.246
Au 20.9679 13.5262 20.6103
Au 20.6815 14.5232 17.7756
Au 20.5562 15.8284 15.2712
Au 20.1193 17.1157 12.5392
Au 19.995 18.3524 10.0156
Au 18.9332 10.5661 25.6906
Au 18.4115 11.5104 23.0214
Au 18.2851 12.4008 20.3312
Au 17.8176 13.7718 17.8732
Au 17.5083 14.8257 15.2037
Au 17.4033 16.1499 12.6419
Au 17.1329 17.5078 10.1078
Au 17.1437 12.5991 26.7209
Au 16.8687 13.8112 24.1312
Au 16.7578 14.742 21.2734
Au 16.1909 16.0793 18.8569
Au 16.1425 17.2356 16.2789
Au 15.7747 18.4859 13.682
Au 15.539 19.6477 11.1205
Au 15.3524 14.6233 27.9556
Au 15.1498 15.7663 25.3462
Au 14.9874 17.0187 22.7042
Au 14.5443 18.2152 20.0084
Au 14.4518 19.2671 17.353
Au 13.9643 20.4747 14.8651
Au 13.7733 21.8881 12.3705
Au 11.1492 17.1055 27.8819
Au 10.8646 18.2945 25.4278
Au 10.7176 19.4761 22.6338
Au 10.4898 20.9283 20.0667
Au 10.1272 21.9087 17.4953
Au 9.96562 23.2787 15.1608
Au 13.1135 19.3314 29.0113
Au 12.8368 20.5556 25.8205
Au 12.2698 21.6971 23.3047
Au 12.1624 23.141 20.7136
Au 11.8182 24.2879 18.2355
Au 11.6338 25.5604 15.7
Au 14.7814 21.5541 29.5172
Au 14.3217 22.7589 26.8055
Au 14.1922 24.1287 24.1975
Au 13.8006 25.3033 21.6275
Au 13.7 26.4528 18.953
Au 13.3242 27.6481 16.5262
Au 16.4248 23.9117 30.154
Au 16.3437 24.9979 27.5759
Au 15.8995 26.318 24.9225
Au 15.8132 27.5741 22.4672
Au 15.4293 28.6023 20.0248
Au 15.2039 29.8086 17.3215
Au 17.9808 25.9309 30.8264
Au 17.9803 27.1131 28.5251
Au 17.8331 28.2392 26.037
Au 17.5948 29.7012 23.2992
Au 16.9881 30.8902 20.7842
Au 16.8198 31.6655 18.2915
Au 20.819 25.3324 30.5949
Au 20.6742 26.4109 27.8024
Au 20.6459 27.6509 25.1319
Au 20.2222 28.6529 22.5147
Au 20.042 29.9765 19.947
Au 19.6245 31.1837 17.31
Au 23.8457 24.4858 29.8538
Au 23.3542 25.5833 27.2645
Au 23.2384 26.8174 24.7042
Au 23.0177 27.9462 22.0691
Au 22.7069 29.1719 19.2195
Au 22.5223 30.3106 16.3929
Au 26.1802 23.701 28.981
Au 26.1103 24.753 26.4905
Au 26.2136 26.0162 23.76
Au 25.7834 27.2394 21.1111
Au 25.2999 28.5002 18.5535
Au 25.0346 29.619 15.9146
Au 28.8333 22.8897 28.1337
Au 28.7992 24.1389 25.6987
Au 28.8577 25.4509 23.2137
Au 28.2499 26.5571 20.4891
Au 28.1927 27.675 17.8736
Au 27.7681 28.6255 15.5055
Au 29.1391 20.1135 27.4531
Au 29.0025 21.4138 24.7121
Au 28.6326 22.6566 22.1012
Au 28.4238 23.843 19.3912
Au 28.1086 24.9947 16.7697
Au 27.6953 26.231 14.1444
Au 28.8293 17.5415 26.1294
Au 28.862 18.5132 23.5405
Au 28.5526 19.8467 20.6686
Au 28.3127 21.1274 17.9324
Au 27.9919 22.3941 15.4617
Au 27.6191 23.4586 12.9
Au 28.8169 14.9808 24.8469
Au 28.5806 15.9205 22.2364
Au 28.5144 17.0585 19.5336
Au 28.05 18.2758 17.0776
Au 27.9113 19.5905 14.5429
Au 27.5672 20.6466 11.9852
Au 28.4807 12.4706 23.6282
Au 28.5548 13.3524 21.1535
Au 28.4598 14.6007 18.5497
Au 28.2435 15.8167 15.853
Au 27.8345 16.9363 13.1808
Au 27.2933 18.1851 11.0259
Au 25.9671 11.5635 23.8844
Au 25.7446 12.5424 21.1772
Au 25.6327 13.6429 18.6022
Au 25.5369 14.8184 15.7633
Au 25.0585 16.1297 13.2269
Au 24.729 17.3119 10.6021
Au 23.0914 10.4412 23.733
Au 23.0754 11.5248 21.2563
Au 22.6524 12.647 18.5662
Au 22.5755 14.0443 15.9217
Au 22.2077 15.3095 13.2106
Au 22.0227 16.4705 10.5444
Au 20.5994 9.52957 23.589
Au 20.209 10.6414 21.1892
Au 19.9708 11.8439 18.2833
Au 19.5726 13.131 15.8857
Au 19.5193 14.212 13.2905
Au 19.2753 15.3635 10.635
Au 17.8141 9.00251 23.4917
Au 17.2901 9.80167 20.8865
Au 17.2453 10.9511 18.1986
Au 16.9012 12.1181 15.6201
Au 16.6935 13.5163 13.0134
Au 16.5325 14.6803 10.5151
Au 16.2545 11.1517 24.6496
Au 15.8548 11.971 21.9494
Au 15.5775 13.2061 19.3141
Au 15.3167 14.258 16.7299
Au 15.0608 15.8345 14.1503
Au 15.0205 16.9556 11.4047
Au 14.5426 13.1595 25.7149
Au 14.4796 14.1402 23.0047
Au 14.0959 15.4402 20.3193
Au 13.7083 16.5875 17.8231
Au 13.3242 17.7949 15.2496
Au 13.2342 19.0347 12.562
Au 12.817 15.3626 26.7194
Au 12.5508 16.325 24.2842
Au 12.2801 17.4836 21.5497
Au 11.9136 18.5983 19.0064
Au 11.8807 19.8466 16.4637
Au 11.6629 21.1562 13.7465
Au 10.8116 19.9131 27.5094
Au 10.0212 21.1436 24.9283
Au 9.78023 22.3669 22.1985
Au 9.32459 23.5338 19.6804
Au 9.45883 24.7181 17.323
Au 12.2518 22.0338 28.4732
Au 11.7732 23.1287 25.6941
Au 11.5615 24.3279 23.1358
Au 11.2423 25.6209 20.6192
Au 11.2595 27.0524 18.1526
Au 13.9614 24.3456 29.0988
Au 13.7599 25.5523 26.5386
Au 13.3346 26.8296 23.9484
Au 12.919 27.867 21.294
Au 12.6639 29.2046 18.7901
Au 15.5393 26.5499 29.8063
Au 15.4449 27.6602 27.3183
Au 15.1013 28.8547 24.8965
Au 14.7823 30.1821 22.3713
Au 14.4032 31.115 19.7388
Au 20.0657 27.8977 30.1428
Au 20.1805 29.0569 27.4723
Au 19.6194 30.2016 24.982
Au 19.526 31.4671 22.3533
Au 19.0274 32.3209 19.676
Au 22.7573 26.9338 29.6217
Au 22.8751 28.4245 26.9666
Au 22.3107 29.4529 24.2849
Au 22.2341 30.8508 21.7071
Au 21.9218 31.9231 19.1033
Au 25.5216 26.4416 28.695
Au 25.627 27.5671 26.249
Au 25.2567 28.6007 23.5973
Au 24.8963 29.8692 20.9826
Au 24.6092 31.0625 18.146
Au 28.0227 25.5835 27.99
Au 28.1943 26.7704 25.5749
Au 27.8057 28.004 22.9267
Au 27.4788 29.2036 20.3605
Au 27.1219 30.1494 17.8088
Au 30.6252 22.1814 26.3339
Au 30.6394 23.4648 23.8478
Au 30.4307 24.7893 21.151
Au 30.2339 25.8505 18.3436
Au 29.8255 26.9476 15.8833
Au 30.7602 19.4545 25.3346
Au 30.3509 20.7003 22.5426
Au 30.281 21.9498 19.9209
Au 30.1139 23.0705 17.1401
Au 29.7655 24.4077 14.5833
Au 30.7251 16.6986 24.0948
Au 30.5198 17.888 21.5189
Au 30.2239 19.1278 18.7508
Au 30.0988 20.2687 16.0268
Au 29.6774 21.6347 13.6273
Au 30.7758 14.4967 22.826
Au 30.6233 15.132 20.2009
Au 30.4514 16.3681 17.7072
Au 30.0116 17.6867 15.0234
Au 29.6622 18.983 12.6318
Au 27.7843 10.7623 21.6574
Au 27.5844 11.7049 19.1765
Au 27.5618 13.087 16.6291
Au 27.3868 14.0635 13.9044
Au 26.6859 15.5226 11.0777
Au 24.9536 9.86321 21.7363
Au 24.857 11.0261 19.0599
Au 24.7731 12.2159 16.4012
Au 24.4424 13.4763 13.6668
Au 23.9859 14.4515 10.9637
Au 22.3292 8.65637 21.5653
Au 22.1055 10.0081 19.1438
Au 21.7748 11.2878 16.2773
Au 21.4909 12.4818 13.6754
Au 21.3783 13.6019 10.9784
Au 19.6635 8.21301 21.2494
Au 19.2971 9.23421 18.7567
Au 19.0002 10.3649 16.0966
Au 18.7057 11.5509 13.5729
Au 18.6433 12.8444 11.0823
Au 15.261 9.3516 22.7089
Au 14.818 10.5478 19.8427
Au 14.586 11.6036 17.2097
Au 14.5262 13.0573 14.6293
Au 14.2134 14.3362 12.2355
Au 13.6367 11.4618 23.525
Au 13.3591 12.6471 20.9245
Au 13.2321 13.8335 18.3014
Au 12.6523 15.0603 15.5181
Au 12.5419 16.2514 12.9044
Au 11.8284 13.5471 24.5724
Au 11.8648 14.6878 22.0689
Au 11.2816 16.0389 19.3497
Au 11.0248 17.3248 16.7027
Au 10.9536 18.491 13.8897
Au 10.3518 15.7287 25.7125
Au 10.001 16.9138 23.1131
Au 9.61743 18.271 20.4713
Au 9.31427 19.2685 17.9226
Au 9.61612 20.3346 15.3333
Au 9.6716 22.5477 27.1766
Au 9.15045 23.6927 24.6344
Au 8.88443 25.0361 22.1102
Au 8.82393 26.3405 19.4732
Au 11.356 24.6246 28.1188
Au 11.2507 25.8785 25.5065
Au 10.835 27.0917 22.9739
Au 10.5119 28.4325 20.3357
Au 13.0903 26.8005 28.9151
Au 12.8635 28.286 26.3645
Au 12.59 29.5034 23.8295
Au 12.3159 30.4055 21.3798
Au 22.1926 29.6994 29.1032
Au 21.9575 31.0505 26.6601
Au 21.4103 32.0944 24.073
Au 21.3918 33.3934 21.5088
Au 25.042 29.1671 28.5366
Au 24.5706 30.0881 26.033
Au 24.3575 31.2185 23.3954
Au 23.9595 32.5291 20.7917
Au 27.5351 28.1733 27.8714
Au 27.242 29.5003 25.2151
Au 27.0564 30.8756 22.6741
Au 26.5399 31.5804 19.9412
Au 32.3538 21.4304 24.1905
Au 32.294 22.4939 21.6814
Au 32.0849 23.9905 19.0591
Au 31.8984 24.8152 16.1579
Au 32.5273 18.7845 23.2049
Au 32.1964 19.8168 20.5783
Au 31.8805 20.9368 17.9012
Au 31.9544 22.3249 15.174
Au 32.5031 16.2663 22.0427
Au 32.314 17.057 19.4715
Au 32.0765 18.375 16.8355
Au 31.7182 19.7876 14.0562
Au 26.8133 9.26748 19.5956
Au 26.6877 10.352 16.9092
Au 26.5617 11.6302 14.4313
Au 26.2011 13.0575 11.653
Au 24.1387 8.2766 19.4109
Au 23.86 9.68572 16.9346
Au 23.616 10.726 14.3173
Au 23.3294 11.891 11.5731
Au 21.316 7.11195 19.3183
Au 21.2826 8.54688 16.6542
Au 20.9264 9.75306 14.0403
Au 20.7836 10.9864 11.4739
Au 12.6939 10.1598 21.4617
Au 12.4994 10.9981 18.7504
Au 12.1555 12.2489 16.2195
Au 12.0476 13.6143 13.4609
Au 10.843 11.9892 22.5896
Au 10.8533 13.1803 19.9044
Au 10.7669 14.5565 17.1573
Au 10.2792 15.7493 14.3361
Au 9.47145 14.3354 23.4849
Au 9.13198 15.3402 20.9252
Au 8.86216 16.4032 18.308
Au 8.64518 17.8855 15.4938
Au 8.99084 25.0851 26.7832
Au 8.67503 26.4168 24.4224
Au 8.3559 27.4665 21.8326
Au 10.71 27.3382 27.6236
Au 10.1476 28.4232 25.2769
Au 10.0765 29.6786 22.8017
Au 24.0336 31.7534 28.1637
Au 23.903 32.7639 25.6387
Au 23.4731 33.7544 23.1153
Au 26.5839 30.9155 27.4738
Au 26.336 32.1713 25.013
Au 25.9863 33.1322 22.4592
Au 34.125 20.8161 22.1047
Au 33.7988 21.9715 19.6175
Au 33.7561 22.9385 17.1013
Au 34.3332 18.1904 21.052
Au 34.0801 19.2714 18.6627
Au 33.6302 20.3863 15.9896
Au 25.781 7.80063 17.1044
Au 25.6056 8.96235 14.7359
Au 25.3747 10.3179 12.328
Au 23.198 6.82085 17.3981
Au 23.1077 8.08551 14.8732
Au 22.6087 9.22063 12.2829
Au 10.0158 10.6522 20.0533
Au 9.89841 11.7198 17.6878
Au 9.92142 13.2008 15.0863
Au 8.77062 12.7044 21.3453
Au 8.57648 13.7363 18.7476
Au 8.37672 15.271 16.0569
