561
 Atoms. Timestep: 50000
Au 21.6995 14.7708 33.1897
Au 21.4925 15.7446 30.9112
Au 21.0609 16.8919 28.2587
Au 20.7993 18.1465 25.7429
Au 20.6584 19.1136 23.098
Au 20.3212 20.243 20.4077
Au 20.1251 21.5611 17.7043
Au 19.8183 22.8179 15.082
Au 19.555 23.9366 12.5725
Au 19.3666 25.0725 9.9286
Au 18.8628 26.081 7.49237
Au 19.067 15.1671 32.2674
Au 18.6997 16.3113 29.7389
Au 18.444 17.313 27.2576
Au 18.3101 18.7396 24.6151
Au 17.9927 19.6795 21.9576
Au 17.9203 20.9315 19.32
Au 17.4562 22.2969 16.6788
Au 17.2 23.2698 14.0699
Au 16.937 24.3536 11.4344
Au 16.6704 25.7082 9.07946
Au 20.7566 17.2717 33.2353
Au 20.592 18.3443 30.7551
Au 20.349 19.6659 28.1445
Au 20.0269 20.8016 25.4269
Au 19.8439 21.7619 22.8723
Au 19.6067 23.1763 20.1164
Au 19.3364 24.3079 17.3336
Au 19.0473 25.5341 14.8321
Au 18.7384 26.6736 12.2245
Au 18.5938 27.745 9.50571
Au 23.5666 16.4634 32.3847
Au 23.2534 17.6535 29.9535
Au 22.8954 18.7941 27.5419
Au 22.691 19.9737 24.7555
Au 22.5544 21.1796 22.1721
Au 22.1947 22.3827 19.4238
Au 22.0255 23.6331 16.8656
Au 21.777 24.8324 14.2777
Au 21.5659 25.7734 11.526
Au 21.2368 26.964 9.12309
Au 23.5068 13.889 31.3015
Au 23.1926 14.8877 28.7923
Au 22.8721 16.081 26.2722
Au 22.7649 17.4078 23.5653
Au 22.4219 18.6608 21.0464
Au 22.1765 19.8252 18.2912
Au 21.933 20.8239 15.5423
Au 21.7803 22.1001 13.017
Au 21.4234 23.1931 10.2859
Au 20.9283 24.4321 7.75772
Au 20.5081 13.14 31.3253
Au 20.3768 14.2411 28.8188
Au 20.3146 15.0679 26.2512
Au 19.9511 16.4292 23.7052
Au 19.6456 17.6891 21.0552
Au 19.4159 18.8148 18.2845
Au 19.1073 20.026 15.5128
Au 18.9275 21.2522 12.6515
Au 18.582 22.3725 10.118
Au 18.4425 23.6531 7.62139
Au 16.6063 15.6736 31.3223
Au 16.0516 16.5196 28.7858
Au 15.7806 17.845 26.2802
Au 15.672 19.1403 23.5162
Au 15.5372 20.3866 20.8834
Au 15.3209 21.6185 18.2848
Au 15.0011 22.6919 15.6976
Au 14.5998 23.8037 12.8436
Au 14.3996 24.993 10.3612
Au 18.1687 17.9143 32.2729
Au 17.9255 19.0834 29.7533
Au 17.5962 19.9828 26.8606
Au 17.4779 21.2197 24.2439
Au 17.1107 22.5267 21.6847
Au 17.0383 23.6604 19.1198
Au 16.8376 25.0381 16.3309
Au 16.3737 26.1015 13.7533
Au 16.2643 27.4112 11.1408
Au 19.9062 19.9976 32.7939
Au 19.6907 21.1745 30.5184
Au 19.439 22.3219 27.7256
Au 19.1023 23.3772 25.0954
Au 18.8557 24.5573 22.5587
Au 18.665 25.7456 19.721
Au 18.5717 27.0765 17.1187
Au 18.3928 28.2195 14.4014
Au 18.0186 29.4804 12.0004
Au 22.6391 19.1509 32.4357
Au 22.4433 20.5043 29.8379
Au 22.2839 21.5218 27.0583
Au 21.9134 22.6272 24.5947
Au 21.7244 23.7861 21.8128
Au 21.322 25.0357 19.2422
Au 21.1853 26.3502 16.659
Au 21.1513 27.5544 13.9407
Au 20.5757 28.5378 11.4664
Au 25.4068 18.3315 31.4253
Au 25.3346 19.3826 29.1345
Au 24.9797 20.7849 26.5617
Au 24.7004 21.8856 23.9617
Au 24.3884 22.8538 21.1485
Au 24.2063 24.1895 18.583
Au 23.9136 25.5977 15.8794
Au 23.6137 26.601 13.2909
Au 23.4357 27.5117 10.8252
Au 25.3316 15.8158 30.4453
Au 25.1875 16.8162 27.8462
Au 24.7697 18.2857 25.3458
Au 24.5993 19.4674 22.6447
Au 24.3354 20.5319 20.0214
Au 24.1513 21.4771 17.3569
Au 23.7261 22.9657 14.6641
Au 23.6201 24.0008 11.9839
Au 23.1508 25.0444 9.26701
Au 25.3206 13.2711 29.0843
Au 25.1101 14.3105 26.6555
Au 24.6426 15.5404 24.0046
Au 24.4844 16.8113 21.358
Au 24.1687 17.8927 18.8594
Au 23.9868 18.9755 16.0512
Au 23.7433 20.0242 13.5051
Au 23.3334 21.3204 10.7545
Au 23.1422 22.5055 8.42624
Au 22.5368 12.1984 29.3222
Au 22.3436 13.0511 26.7363
Au 22.0614 14.3447 24.1203
Au 21.6464 15.7761 21.3862
Au 21.5559 17.0086 18.9102
Au 21.3732 18.1945 16.0554
Au 20.9171 19.3632 13.4098
Au 20.6348 20.218 10.6415
Au 20.554 21.6155 8.09222
Au 19.8857 11.555 29.2669
Au 19.6541 12.4503 26.6549
Au 19.2964 13.6602 24.1978
Au 19.186 14.765 21.4856
Au 18.7103 16.1698 18.6992
Au 18.4587 17.3026 15.9235
Au 18.2549 18.457 13.4347
Au 17.7861 19.4638 10.6695
Au 17.8189 20.75 8.15791
Au 18.0241 13.4952 30.3499
Au 17.8653 14.7631 27.5613
Au 17.6545 16.0429 24.9385
Au 17.3384 17.0579 22.2324
Au 17.0391 18.1722 19.6884
Au 16.8616 19.4179 17.1022
Au 16.6463 20.6342 14.4176
Au 16.3317 21.6406 11.8371
Au 16.1983 23.1212 8.92607
Au 13.9623 16.5042 30.3505
Au 13.5319 17.371 27.8489
Au 13.3834 18.5813 25.0384
Au 13.2314 19.6926 22.342
Au 13.042 21.001 19.6944
Au 12.8512 22.1121 17.2323
Au 12.5521 23.3905 14.6501
Au 12.1749 24.6261 11.9871
Au 15.766 18.5221 30.8689
Au 15.2121 19.6928 28.2703
Au 14.9503 20.6956 25.7496
Au 14.7365 21.7765 23.2802
Au 14.482 23.2359 20.6187
Au 14.4377 24.3869 17.8786
Au 14.1151 25.4792 15.2771
Au 13.9802 26.6987 12.7025
Au 17.0815 20.733 31.8922
Au 17.0921 21.62 29.2441
Au 16.753 22.6889 26.5271
Au 16.5511 24.0785 23.9618
Au 16.3178 25.2635 21.3731
Au 16.0798 26.3902 18.8675
Au 15.9726 27.7429 16.2647
Au 15.8625 28.8691 13.4368
Au 19.0188 22.7015 32.6041
Au 18.5198 23.7764 30.0365
Au 18.4947 24.9045 27.4036
Au 18.4777 26.1902 24.834
Au 18.2138 27.2211 22.253
Au 17.9613 28.3629 19.6694
Au 17.7465 29.6313 16.9137
Au 17.4498 30.8776 14.3314
Au 21.828 21.9289 32.0607
Au 21.5258 23.1185 29.4737
Au 21.182 24.2319 26.7221
Au 21.2163 25.2994 24.1304
Au 20.9273 26.5489 21.6398
Au 20.6311 27.7438 19.2314
Au 20.4317 29.0318 16.2303
Au 20.2596 30.1754 13.7452
Au 24.6917 21.01 31.3363
Au 24.3454 22.2425 28.8393
Au 24.0387 23.6022 26.2556
Au 23.9655 24.5998 23.4076
Au 23.5848 25.9578 20.9362
Au 23.348 27.0841 18.3089
Au 23.2125 28.2178 15.7478
Au 22.9411 29.4299 13.127
Au 27.238 20.3751 30.737
Au 27.0797 21.6268 28.1222
Au 26.6834 22.7017 25.4377
Au 26.7079 23.8761 22.8983
Au 26.0129 24.8892 20.3984
Au 25.9285 26.024 17.7755
Au 25.8216 27.3754 15.122
Au 25.526 28.2785 12.636
Au 27.5374 17.7445 29.458
Au 27.1822 18.844 27.0529
Au 26.7948 20.1377 24.327
Au 26.7457 21.3129 21.8854
Au 26.2527 22.373 19.1155
Au 25.879 23.5776 16.4251
Au 25.8757 24.5625 13.479
Au 25.5976 25.7943 11.1471
Au 27.2146 15.1884 28.2248
Au 26.8905 16.3358 25.6484
Au 26.6194 17.7109 23.1466
Au 26.4762 18.6715 20.4608
Au 26.1687 19.7853 17.9009
Au 25.8262 20.8534 15.1076
Au 25.8138 21.9008 12.3658
Au 25.3442 23.318 9.91444
Au 27.1491 12.657 27.0608
Au 26.8598 13.7306 24.4657
Au 26.5988 15.1186 21.917
Au 26.0771 16.0417 19.3499
Au 25.8869 17.092 16.8182
Au 25.7512 18.181 14.1041
Au 25.5475 19.3346 11.3324
Au 25.0655 20.4491 8.97631
Au 24.6122 11.3884 27.3032
Au 24.0761 12.7146 24.3573
Au 23.8222 14.0293 21.8009
Au 23.6322 14.9588 19.1375
Au 23.4139 16.2825 16.7229
Au 23.0767 17.3835 14.0395
Au 22.7886 18.577 11.1205
Au 22.3439 19.7103 8.51312
Au 21.7217 10.4625 27.1145
Au 21.3332 11.5197 24.3136
Au 21.1799 12.9635 21.8376
Au 20.8228 14.1386 19.3584
Au 20.6414 15.4074 16.7518
Au 20.4559 16.5555 14.0515
Au 19.9707 17.6357 11.1577
Au 19.7616 18.5674 8.51413
Au 18.99 9.90068 26.9479
Au 18.7293 10.8438 24.5792
Au 18.4276 12.1321 21.7543
Au 18.1301 13.6091 19.1886
Au 17.9384 14.7164 16.6427
Au 17.5941 15.7046 13.9147
Au 17.2547 16.7363 11.3869
Au 17.0578 17.937 8.65924
Au 17.3624 12.0488 28.0827
Au 17.0693 13.1309 25.3569
Au 16.733 14.347 22.7302
Au 16.4478 15.477 20.2584
Au 15.9838 16.6853 17.5218
Au 15.8464 17.8718 14.8687
Au 15.4695 18.8212 12.2556
Au 15.4085 20.2561 9.45919
Au 15.6206 13.9964 29.2731
Au 15.2042 15.1418 26.3802
Au 15.0913 16.4823 23.8456
Au 14.7465 17.5961 21.1944
Au 14.5426 18.7676 18.6989
Au 14.2771 20.0233 16.1186
Au 14.0429 21.2472 13.391
Au 14.0318 22.4332 10.6144
Au 11.223 16.7506 28.7867
Au 11.1267 18.2522 26.3594
Au 10.9121 19.1363 23.9291
Au 10.678 20.2583 21.3208
Au 10.4272 21.3773 18.9303
Au 10.3304 22.6497 16.405
Au 9.79045 23.8258 13.8016
Au 12.929 18.8983 29.9398
Au 12.5462 20.2336 27.5085
Au 12.23 21.4257 24.8086
Au 12.248 22.6144 22.1151
Au 12.0975 23.7216 19.4405
Au 11.7444 25.0459 16.9919
Au 11.5908 26.0407 14.3601
Au 14.6284 21.0666 30.516
Au 14.3423 22.3581 28.0706
Au 14.2691 23.4482 25.5319
Au 13.7736 24.7073 22.9204
Au 13.7199 25.9763 20.4703
Au 13.6276 26.9523 17.7986
Au 13.4778 28.2571 15.0647
Au 16.1554 23.178 31.5327
Au 16.1125 24.4197 28.89
Au 16.0388 25.5077 26.2918
Au 15.6993 26.9518 23.8428
Au 15.5319 28.0569 21.166
Au 15.2592 29.2242 18.5548
Au 15.3001 30.449 15.8966
Au 18.2078 25.0754 32.269
Au 18.2217 26.555 29.5436
Au 17.9338 27.6614 27.0313
Au 17.6477 28.8822 24.6241
Au 17.468 29.9469 22.128
Au 17.3557 31.1767 19.4982
Au 16.9312 32.3746 17.0721
Au 20.8658 24.4593 31.8273
Au 20.8697 25.6971 29.2013
Au 20.6492 26.8441 26.7115
Au 20.373 28.0933 24.0458
Au 20.2593 29.2765 21.3739
Au 19.9066 30.3139 18.5496
Au 19.612 31.6019 15.9906
Au 23.7145 23.5511 31.1656
Au 23.4173 24.9328 28.6851
Au 23.3433 26.2058 25.9332
Au 23.2095 27.4138 23.2925
Au 22.8079 28.6077 20.7488
Au 22.4807 29.7184 17.9875
Au 22.4197 30.9359 15.5032
Au 26.4427 23.0719 30.5178
Au 26.156 24.3464 27.879
Au 25.9866 25.4918 25.2796
Au 25.7574 26.6697 22.6366
Au 25.4701 27.7861 20.0996
Au 25.2796 28.7998 17.529
Au 25.0415 30.0338 14.8414
Au 29.2132 22.2662 29.4518
Au 28.8942 23.4798 27.0435
Au 28.7689 24.7438 24.5905
Au 28.7792 25.7101 22.0437
Au 28.1404 26.6103 19.522
Au 27.8481 28.0153 16.9279
Au 27.778 29.056 14.2078
Au 29.2497 19.6037 28.5741
Au 29.1364 20.8455 25.9782
Au 28.863 22.0846 23.4085
Au 28.3997 23.1556 20.7953
Au 28.1248 24.1424 18.0396
Au 27.8093 25.3919 15.4773
Au 27.5987 26.519 12.818
Au 29.3473 17.0012 27.4767
Au 28.993 18.3443 24.8226
Au 28.7102 19.3857 22.1645
Au 28.3996 20.7139 19.5765
Au 28.1325 21.5942 16.8755
Au 27.8344 22.6923 14.3632
Au 27.7022 23.8144 11.5657
Au 29.0937 14.5636 26.1998
Au 28.7629 15.8392 23.5091
Au 28.4558 16.8882 20.8504
Au 28.3311 17.9397 18.1388
Au 28.1063 19.0043 15.6691
Au 27.5366 20.0746 13.0993
Au 27.4295 21.156 10.2017
Au 29.008 12.085 24.8232
Au 28.5394 13.034 22.1882
Au 28.4509 14.4083 19.673
Au 28.2379 15.2953 17.1295
Au 27.7976 16.4793 14.6249
Au 27.356 17.2737 11.9489
Au 27.292 18.523 9.55296
Au 26.3501 10.9928 24.8883
Au 26.0344 12.167 22.3209
Au 25.683 13.1131 19.7587
Au 25.4862 14.227 17.097
Au 25.1016 15.3841 14.5273
Au 24.639 16.5064 11.8549
Au 24.4619 17.6463 9.11522
Au 23.9298 10.175 25.0679
Au 23.341 11.292 22.1597
Au 23.0006 12.1753 19.4895
Au 22.7289 13.468 17.008
Au 22.3733 14.6478 14.5719
Au 22.0408 15.6281 11.9148
Au 21.682 16.6955 9.254
Au 20.8584 8.79952 24.9429
Au 20.5865 10.2675 22.0217
Au 20.4449 11.3408 19.4855
Au 20.0117 12.6851 17.0536
Au 19.6377 13.8687 14.5156
Au 19.3703 14.8633 11.9167
Au 18.9822 15.9536 9.40546
Au 18.1368 8.18848 24.5927
Au 17.8468 9.55814 22.156
Au 17.6538 10.6683 19.4529
Au 17.3319 11.8631 17.0463
Au 17.0707 13.0113 14.4561
Au 16.5098 14.0628 11.8291
Au 16.1633 15.2852 9.26497
Au 16.503 10.3226 25.7957
Au 16.0859 11.5819 23.2205
Au 15.7561 12.5415 20.6032
Au 15.3293 13.7969 17.9192
Au 15.326 14.9068 15.4573
Au 14.8941 16.0385 12.9767
Au 14.6838 17.5754 10.0814
Au 14.8523 12.5875 27.0772
Au 14.3556 13.5986 24.4237
Au 13.9938 14.647 21.8005
Au 13.6937 15.84 19.0708
Au 13.4523 17.086 16.5344
Au 13.2944 18.3744 13.9616
Au 13.1829 19.643 11.41
Au 13.1207 14.5486 28.2691
Au 12.7829 15.7904 25.633
Au 12.5308 16.8013 22.8278
Au 12.2976 18.077 20.2661
Au 11.8806 19.1289 17.6267
Au 11.739 20.5284 15.0908
Au 11.5567 21.9242 12.4335
Au 9.11417 17.2724 27.3844
Au 8.58142 18.9859 25.0847
Au 8.58221 19.2405 22.5503
Au 8.24662 20.9207 20.5126
Au 8.15913 22.0955 18.2936
Au 7.89771 23.4862 15.969
Au 10.5018 19.5465 28.891
Au 10.1228 20.7715 26.1598
Au 9.82495 21.6562 23.4572
Au 9.67668 23.1964 21.1294
Au 9.48093 24.538 18.509
Au 9.46523 25.6731 15.8879
Au 12.2133 21.8202 29.6078
Au 12.0064 23.1521 27.0509
Au 11.4951 24.1556 24.4001
Au 11.2906 25.1961 21.7993
Au 11.2663 26.6656 19.2047
Au 11.2154 27.748 16.4258
Au 13.8728 23.8636 30.3735
Au 13.7988 25.1844 27.9245
Au 13.4391 26.0687 25.132
Au 13.28 27.4066 22.483
Au 12.9221 28.6062 20.0458
Au 12.953 29.5346 17.4379
Au 15.7832 25.9147 31.1489
Au 15.7303 27.194 28.6733
Au 15.3138 28.2038 26.0917
Au 15.2644 29.7253 23.4441
Au 14.8307 30.8614 20.7228
Au 14.7115 31.818 18.1284
Au 17.7379 27.7819 31.8352
Au 17.4586 29.1157 29.417
Au 17.1024 30.0342 27.0823
Au 17.5524 31.5596 24.3354
Au 16.5564 32.2971 22.091
Au 16.7167 33.5175 19.493
Au 20.1036 27.117 31.4003
Au 20.129 28.4812 28.7288
Au 19.7897 29.653 26.147
Au 19.9848 30.7867 23.6234
Au 19.0895 32.004 21.2301
Au 19.1739 32.8246 18.3653
Au 22.6381 26.476 31.0025
Au 22.7873 27.7872 28.1604
Au 22.613 28.9996 25.5535
Au 22.5179 29.8796 22.977
Au 21.8648 31.2125 20.3871
Au 21.739 32.2184 17.5578
Au 25.4896 25.5786 30.2127
Au 25.4446 26.8472 27.6987
Au 25.1832 28.2011 25.0232
Au 25.0022 29.5027 22.3758
Au 24.5916 30.4452 19.5903
Au 24.7686 31.3925 16.7984
Au 28.2527 24.7647 29.3743
Au 28.1397 26.2024 26.9278
Au 27.7914 27.5489 24.4134
Au 27.5785 28.3707 21.6517
Au 27.2049 29.5058 19.251
Au 27.3969 30.6291 16.5392
Au 30.7773 24.0626 28.5522
Au 30.781 25.3315 26.2794
Au 30.3882 26.4865 23.8701
Au 30.1819 27.3245 20.8693
Au 29.857 28.7451 18.7104
Au 29.8612 29.1276 16.2294
Au 31.0951 21.5026 27.5518
Au 30.9459 22.8231 25.1219
Au 30.7516 23.8963 22.4416
Au 30.24 24.7776 19.7693
Au 29.9992 26.0287 17.4757
Au 29.5604 27.1639 14.5055
Au 31.0146 18.932 26.4
Au 30.9043 20.3838 23.8616
Au 30.6262 21.3017 21.2172
Au 30.42 22.5083 18.4994
Au 29.9024 23.3608 15.7543
Au 29.6067 24.4578 13.3584
Au 30.8683 16.4913 25.2732
Au 30.7355 17.6789 22.4965
Au 30.459 18.8456 20.0804
Au 30.3227 19.8349 17.3769
Au 30.0315 20.8516 14.7041
Au 29.3725 21.7388 12.209
Au 30.6089 14.1205 23.9754
Au 30.645 15.1472 21.3252
Au 30.4138 16.2714 18.8181
Au 30.2253 17.2778 16.444
Au 29.6795 17.9362 13.459
Au 29.2352 19.1373 11.0733
Au 30.4448 11.5325 22.4035
Au 30.2653 12.608 19.8423
Au 30.3136 13.8831 17.7099
Au 30.0948 14.9945 15.0712
Au 29.2777 15.2937 12.7263
Au 29.4028 16.5427 10.5084
Au 27.887 10.4439 22.7544
Au 27.8764 11.3286 20.1635
Au 27.7485 12.4451 17.5682
Au 27.3982 13.7857 14.9699
Au 26.5543 14.4762 12.5261
Au 26.4066 15.8169 10.0153
Au 25.3283 9.44337 22.7846
Au 25.1808 10.3066 20.0636
Au 24.8767 11.659 17.5504
Au 24.32 12.6843 14.745
Au 24.0416 13.7291 12.2903
Au 23.5736 14.9889 9.85737
Au 22.7292 8.66452 22.7174
Au 22.5195 9.55491 19.8467
Au 21.9826 10.8028 17.3996
Au 21.8744 11.851 14.882
Au 21.3306 12.8664 12.3905
Au 20.9385 13.9876 9.96409
Au 19.9681 7.71044 22.6046
Au 19.55 8.61627 20.1759
Au 19.2522 9.85836 17.1186
Au 19.1488 11.0623 14.4691
Au 18.6295 12.3219 12.2228
Au 18.2099 13.3811 9.80537
Au 17.2338 7.19277 22.3125
Au 17.0127 8.13562 19.7721
Au 16.63 9.26527 17.3607
Au 16.4832 10.3158 14.9322
Au 15.9129 11.5318 12.4982
Au 15.5095 12.674 10.0109
Au 15.6635 8.98063 23.7011
Au 15.3397 9.59847 21.1725
Au 14.8853 10.8385 18.6699
Au 14.8429 11.9407 16.04
Au 14.2063 13.38 13.5987
Au 13.9957 14.7599 10.9933
Au 14.0025 11.0746 24.8626
Au 13.5329 12.044 22.2812
Au 13.0907 13.07 19.4735
Au 12.8092 14.5056 16.9102
Au 12.6381 15.6841 14.2039
Au 12.3974 16.9183 11.8304
Au 12.3112 13.0418 26.0056
Au 11.8663 14.3035 23.5059
Au 11.6015 15.3304 20.5928
Au 11.139 16.5034 18.2309
Au 11.058 17.7271 15.3018
Au 11.0023 19.1284 12.9096
Au 10.6634 14.9485 26.9911
Au 10.2525 16.357 24.5392
Au 10.1295 17.1756 21.9363
Au 9.66241 18.7706 19.3458
Au 9.55747 19.975 16.5171
Au 9.18854 21.4021 14.3553
