561
 Atoms. Timestep: 50000
Au 22.2501 12.1478 31.692
Au 21.723 13.7941 29.6965
Au 21.3723 15.4264 27.1926
Au 20.7912 16.984 24.9959
Au 20.7207 18.6344 22.6962
Au 20.5018 20.4274 20.519
Au 19.9299 22.0911 18.0858
Au 19.642 23.8694 15.8871
Au 19.3516 25.6385 13.5907
Au 19.0934 27.283 11.1433
Au 19.0197 28.5947 9.01427
Au 19.6347 12.8257 31.1435
Au 18.9735 14.4575 28.8369
Au 18.6261 16.2167 26.7702
Au 18.4599 17.9541 24.3393
Au 18.2194 19.5749 22.0649
Au 17.7551 21.2791 19.6471
Au 17.4257 22.916 17.1473
Au 17.1489 24.7102 14.8743
Au 16.8495 26.4465 12.7084
Au 16.7167 28.0503 10.4437
Au 21.511 14.9192 32.1386
Au 20.8876 16.3732 29.8771
Au 20.667 18.1771 27.6539
Au 20.5488 19.6436 25.3717
Au 20.083 21.4196 22.9915
Au 19.5741 22.9737 20.7011
Au 19.3083 24.9347 18.3713
Au 19.06 26.7185 16.1298
Au 18.636 28.3312 13.7923
Au 18.616 29.9112 11.4888
Au 24.0888 13.9934 31.2128
Au 23.6688 15.6416 29.0095
Au 23.2122 17.3289 26.7245
Au 23.0175 19.0148 24.4852
Au 22.7406 20.6466 21.9571
Au 22.0496 22.5175 19.9092
Au 21.9302 24.1713 17.6864
Au 21.5971 25.9119 15.254
Au 21.2855 27.5113 12.8951
Au 21.2428 28.8599 10.6138
Au 23.7475 11.7714 29.4607
Au 23.2881 13.4267 27.3444
Au 23.0905 14.952 25.0321
Au 22.7079 16.6079 22.7896
Au 22.3461 18.3989 20.2971
Au 21.9428 20.1615 18.0912
Au 21.6476 21.9299 15.8036
Au 21.2966 23.4354 13.3578
Au 21.1023 25.1178 11.1559
Au 20.7888 26.6229 8.95211
Au 20.8349 11.1539 29.3965
Au 20.4882 12.7359 27.2168
Au 20.0566 14.4741 24.9221
Au 19.815 15.9941 22.6975
Au 19.5319 17.6776 20.3431
Au 19.1309 19.5021 18.0847
Au 19.0389 21.1207 15.5471
Au 18.5786 22.7435 13.3203
Au 18.4657 24.4081 11.0307
Au 18.1566 26.0764 8.81051
Au 16.9233 13.7438 30.1277
Au 16.2912 15.3188 27.996
Au 16.048 17.1 25.7801
Au 15.8759 18.8099 23.3912
Au 15.6141 20.3944 21.1091
Au 15.2065 22.0681 18.8808
Au 14.8106 23.8572 16.5037
Au 14.4101 25.619 14.2605
Au 14.4307 27.5184 12.0215
Au 18.777 15.5854 31.7024
Au 18.3929 17.3116 29.2665
Au 18.0586 18.9427 26.9944
Au 17.9008 20.722 24.5914
Au 17.4424 22.2885 22.2859
Au 17.0811 23.9429 19.8365
Au 16.7896 25.6322 17.5272
Au 16.4193 27.6356 15.4057
Au 16.146 29.2576 13.0251
Au 20.7885 17.5114 32.4149
Au 20.2513 19.2877 30.2902
Au 19.9778 21.0353 27.8522
Au 19.7092 22.7008 25.5883
Au 19.1893 24.1421 23.3777
Au 18.9195 25.7652 21.2296
Au 18.5821 27.6231 18.69
Au 18.4298 29.5125 16.3515
Au 18.2737 31.104 14.1803
Au 23.3537 16.8824 31.7241
Au 23.0129 18.2819 29.6111
Au 22.8218 20.0519 27.0904
Au 22.3273 21.7554 24.7509
Au 21.8176 23.4879 22.587
Au 21.3941 25.2769 20.2489
Au 21.2339 26.8711 17.8752
Au 20.8857 28.6287 15.4089
Au 20.7745 30.2885 13.172
Au 25.9605 16.1036 30.6828
Au 25.521 17.5309 28.591
Au 25.3072 19.0749 26.2713
Au 24.944 20.923 23.756
Au 24.5335 22.7487 21.6185
Au 24.1841 24.2448 19.3556
Au 23.8451 26.088 16.9557
Au 23.5692 27.9083 14.4437
Au 23.1911 29.3633 12.2617
Au 25.9114 13.5372 28.9827
Au 25.3823 15.1134 26.8512
Au 24.9806 16.788 24.3913
Au 24.6187 18.5504 22.1649
Au 24.2625 20.3919 19.7788
Au 23.9785 22.0085 17.4677
Au 23.5354 23.8595 15.3379
Au 23.2947 25.5214 12.8068
Au 23.2277 26.939 10.6364
Au 25.2617 11.0847 27.3334
Au 24.9745 12.9588 25.1894
Au 24.6321 14.4695 22.7768
Au 24.3032 16.4768 20.3875
Au 24.0205 18.0176 18.1132
Au 23.5828 19.8364 15.8828
Au 23.2567 21.3852 13.4913
Au 23.2291 23.1278 11.1706
Au 22.9704 24.8223 8.96132
Au 22.5228 10.6282 27.0878
Au 22.0244 12.2837 24.9213
Au 21.7902 13.8266 22.666
Au 21.5854 15.7357 20.3454
Au 21.1634 17.2234 18.0737
Au 20.9416 18.8905 15.7679
Au 20.5749 20.6251 13.4607
Au 20.3275 22.299 10.8745
Au 20.0122 24.1189 8.70356
Au 19.5759 10.0451 27.0596
Au 19.4369 11.3412 24.89
Au 19.2538 13.0638 22.3746
Au 18.767 15.1244 20.1907
Au 18.3985 16.8045 17.9703
Au 18.1249 18.2061 15.4812
Au 17.7785 20.0409 13.247
Au 17.3544 21.7136 10.9859
Au 17.1731 23.3929 8.69654
Au 18.2927 11.6799 28.7983
Au 17.8114 13.3192 26.6084
Au 17.4305 15.0557 24.2912
Au 17.2351 16.9112 21.9315
Au 16.9347 18.4434 19.6695
Au 16.7095 20.1307 17.1962
Au 16.2071 22.0224 14.727
Au 16.0022 23.5372 12.3243
Au 15.7682 25.417 10.2717
Au 14.1709 14.3729 29.5105
Au 13.5976 16.1214 27.4085
Au 13.5483 17.9375 24.7678
Au 13.2628 19.6765 22.3134
Au 12.7814 21.2795 20.1391
Au 12.6316 23.0962 18.0147
Au 12.2448 24.8873 15.6946
Au 12.182 26.6469 13.2963
Au 16.0493 16.2015 30.6539
Au 15.5795 17.9684 28.5493
Au 15.5793 19.8422 25.9771
Au 15.2143 21.4773 23.6953
Au 14.6792 23.2088 21.3458
Au 14.4449 24.8957 19.1671
Au 14.2283 26.7385 17.0113
Au 13.8602 28.4238 14.5626
Au 18.1873 18.1028 31.7881
Au 17.7254 19.8935 29.4871
Au 17.3027 21.6158 27.1413
Au 16.9917 23.4317 24.905
Au 16.5931 24.9949 22.6204
Au 16.4203 26.6173 20.3226
Au 16.0683 28.6175 18.0032
Au 15.9314 30.2587 15.6872
Au 19.9743 20.2888 32.5516
Au 19.8241 21.9029 30.304
Au 19.3338 23.6553 28.0016
Au 18.7836 25.3494 25.7969
Au 18.5255 27.1159 23.7615
Au 18.3402 28.5994 21.3825
Au 17.9698 30.4155 18.9422
Au 17.8425 31.9759 16.6882
Au 22.9501 19.6053 31.8518
Au 22.5074 21.244 29.8426
Au 22.1205 22.742 27.3969
Au 21.552 24.5617 25.0661
Au 21.3221 26.2492 22.7126
Au 20.8351 27.9672 20.3164
Au 20.6668 29.7085 17.9986
Au 20.4403 31.3689 15.8338
Au 25.4208 18.9318 31.1843
Au 24.9439 20.2649 29.0451
Au 24.7825 21.9093 26.4317
Au 24.2711 23.7833 24.135
Au 23.8792 25.5508 21.86
Au 23.5366 27.094 19.5772
Au 23.1704 28.9049 17.2475
Au 22.9963 30.5881 14.9255
Au 27.797 18.104 29.8749
Au 27.6042 19.6187 27.8249
Au 27.1874 21.1969 25.4595
Au 26.876 22.9628 23.2086
Au 26.5378 24.4873 20.8926
Au 26.2184 26.1719 18.6733
Au 25.7168 27.8164 16.4879
Au 25.6126 29.6136 14.3989
Au 27.5341 15.5209 28.5567
Au 27.2293 17.1456 26.1478
Au 26.8132 18.7827 23.7569
Au 26.5341 20.5474 21.6422
Au 26.5242 22.2519 19.263
Au 25.8224 24.0522 16.9763
Au 25.654 25.7182 14.6153
Au 25.3342 27.4681 12.4713
Au 27.3043 12.8741 26.6923
Au 26.9177 14.8164 24.5035
Au 26.5882 16.4245 22.1651
Au 26.3656 18.2326 19.9748
Au 26.0647 20.0871 17.6936
Au 25.721 21.8432 15.2356
Au 25.4989 23.4551 12.9957
Au 25.2232 25.0062 10.7362
Au 26.9192 10.9403 24.9316
Au 26.6011 12.4322 22.7542
Au 26.0997 14.4449 20.2481
Au 26.0707 16.1916 18.1923
Au 25.8646 18.0661 15.946
Au 25.4667 19.5994 13.593
Au 25.1857 21.2957 11.3812
Au 24.8685 22.8784 8.92483
Au 24.1868 10.0622 24.9605
Au 23.7341 11.6246 22.6423
Au 23.5073 13.4534 20.3012
Au 23.1562 15.1952 18.0151
Au 23.0333 16.997 15.7624
Au 22.6164 18.6037 13.4
Au 22.1538 20.3693 11.0498
Au 22.1804 22.218 8.78781
Au 21.4535 9.34871 24.8222
Au 21.0993 10.8144 22.5216
Au 20.8761 12.9101 20.0488
Au 20.3269 14.4662 18.0428
Au 20.0692 16.3356 15.5585
Au 19.8756 18.0459 13.2819
Au 19.3786 19.738 10.8715
Au 19.0599 21.3887 8.60597
Au 18.5734 8.75065 24.5867
Au 18.3086 10.4563 22.4823
Au 18.0693 12.2986 20.0738
Au 17.6067 13.9887 17.8526
Au 17.3757 15.6001 15.614
Au 17.1522 17.2422 13.1459
Au 16.7694 18.8169 10.9071
Au 16.3189 20.5562 8.6107
Au 17.0855 10.6825 26.4047
Au 16.6998 12.1792 24.0395
Au 16.6597 14.1827 21.6304
Au 16.026 15.7398 19.4923
Au 15.7659 17.4826 17.1309
Au 15.5301 19.2279 14.8234
Au 15.0287 20.769 12.2383
Au 14.8891 22.5115 9.91609
Au 15.648 12.544 28.0648
Au 15.251 14.3703 25.6643
Au 14.8656 15.9084 23.3377
Au 14.6358 17.6567 20.9713
Au 14.222 19.3111 18.7344
Au 14.1909 21.108 16.6745
Au 13.6568 22.8638 13.9148
Au 13.5871 24.5842 11.7939
Au 11.3875 15.2426 28.5408
Au 11.3593 17.0597 26.1167
Au 11.056 18.6723 23.7525
Au 10.4773 20.3146 21.5807
Au 10.2954 22.0846 19.4118
Au 10.1017 23.8979 17.3289
Au 9.67771 25.7513 15.115
Au 13.3819 17.0595 29.9693
Au 13.1716 18.8513 27.6201
Au 12.8856 20.6367 25.2492
Au 12.5343 22.3734 22.9199
Au 12.0824 24.0309 20.5577
Au 11.8875 25.7276 18.4296
Au 11.7917 27.4034 16.1617
Au 15.3108 19.1401 31.0867
Au 15.0503 20.7038 28.5419
Au 14.582 22.5883 26.4624
Au 14.2082 23.9927 24.1306
Au 13.9323 25.9517 21.6267
Au 13.9292 27.745 19.6556
Au 13.5948 29.4552 17.2412
Au 17.2937 20.9698 31.7522
Au 17.1305 22.6926 29.6478
Au 16.7419 24.4939 27.5096
Au 16.1159 26.1763 25.1773
Au 15.8649 27.8521 22.8792
Au 15.8661 29.6567 20.5497
Au 15.5074 31.3465 18.1057
Au 19.3898 23.0794 32.9202
Au 18.9935 24.593 30.6383
Au 18.714 26.2888 28.2902
Au 18.1505 27.9783 26.2919
Au 17.9033 29.6867 24.1173
Au 17.718 31.2987 21.8523
Au 17.301 32.7837 19.5849
Au 21.8627 22.2377 32.2659
Au 21.7644 23.9687 29.9609
Au 21.616 25.6048 27.7639
Au 20.8528 27.4363 25.2579
Au 20.4729 29.0086 23.0764
Au 20.2498 30.7168 20.7531
Au 20.0023 32.4279 18.3652
Au 24.7813 21.6964 31.5355
Au 24.3771 23.1665 28.9988
Au 24.1234 24.8566 26.7728
Au 23.5909 26.5369 24.5027
Au 23.0919 28.2355 22.2188
Au 23.0384 29.74 20.001
Au 22.6276 31.6819 17.6639
Au 27.3486 20.8362 30.4139
Au 27.0511 22.4508 27.8795
Au 26.7395 24.1764 26.0063
Au 26.2767 25.7682 23.713
Au 25.9208 27.3297 21.362
Au 25.5255 29.0185 18.8831
Au 25.0308 30.9134 16.5485
Au 29.7943 20.1103 29.3976
Au 29.4367 21.5989 27.183
Au 29.0361 23.1839 24.9226
Au 28.7059 24.9466 22.6123
Au 28.5551 26.7163 20.4333
Au 28.1043 28.1795 18.1667
Au 27.7431 29.6348 15.9501
Au 29.4561 17.441 27.7072
Au 29.4093 19.1975 25.6455
Au 29.1217 20.7863 23.2851
Au 28.6696 22.5327 21.1183
Au 28.3799 24.389 18.5823
Au 27.8949 26.0549 16.3844
Au 27.6737 27.6957 14.186
Au 29.0798 14.8482 26.26
Au 28.8475 16.7738 23.8248
Au 28.7553 18.3554 21.5362
Au 28.4531 20.2001 19.4449
Au 28.1376 21.9705 16.9468
Au 27.7609 23.8473 14.679
Au 27.3433 25.583 12.3934
Au 28.9279 12.5711 24.3734
Au 28.5057 14.4722 22.0542
Au 28.4519 16.3382 19.8121
Au 28.1544 18.0266 17.6551
Au 27.8406 19.7126 15.3314
Au 27.5119 21.5673 13.0866
Au 27.1888 23.0779 10.8314
Au 28.79 10.7069 22.5217
Au 28.0614 12.3194 20.3152
Au 27.8608 13.9586 18.0606
Au 27.6639 15.7637 15.8906
Au 27.4959 17.4142 13.65
Au 27.1103 19.1878 11.4979
Au 26.9506 20.7798 9.24338
Au 25.9145 9.79657 22.4879
Au 25.5338 11.4871 20.3334
Au 25.202 13.1664 17.8591
Au 24.9389 15.023 15.7297
Au 24.6951 16.6877 13.4916
Au 24.3155 18.4609 11.1516
Au 24.1418 20.2084 8.97923
Au 22.9345 8.90204 22.5913
Au 22.6907 10.7753 20.1945
Au 22.3816 12.2614 17.8128
Au 22.2246 14.2037 15.5482
Au 21.7249 15.8299 13.1679
Au 21.4604 17.6339 10.9206
Au 21.119 19.5053 8.75157
Au 20.0906 8.40934 22.342
Au 20.0257 10.1482 20.0431
Au 19.6216 11.7345 17.7283
Au 19.4318 13.5521 15.4533
Au 19.0395 15.1752 13.276
Au 18.9026 16.7379 10.9061
Au 18.3524 18.6009 8.50874
Au 17.4738 7.69005 22.1155
Au 17.2828 9.52424 20.1913
Au 16.9826 11.1439 17.7857
Au 16.5256 12.9389 15.6028
Au 16.177 14.5122 13.4178
Au 16.0923 16.0241 11.1173
Au 15.5532 17.5326 8.79586
Au 16.0298 9.43475 23.9102
Au 15.6913 11.3041 21.5758
Au 15.2941 13.0343 19.1566
Au 14.8136 14.7145 16.9321
Au 14.6672 16.5467 14.7337
Au 14.537 18.0052 12.4331
Au 14.2042 19.7714 9.97929
Au 14.4406 11.6674 25.4984
Au 14.4147 13.2311 23.1264
Au 13.8273 14.7024 20.8606
Au 13.3855 16.4435 18.6378
Au 13.1147 18.2861 16.4844
Au 12.9874 19.9752 14.0741
Au 12.6623 22.0957 11.3403
Au 13.0416 13.4991 27.1598
Au 12.691 15.2326 24.7941
Au 12.3423 16.8845 22.2908
Au 11.7668 18.387 20.0287
Au 11.509 20.154 17.8137
Au 11.5761 22.112 15.5402
Au 11.1336 23.8976 13.2302
Au 9.18359 16.2944 27.115
Au 8.81729 18.3263 25.2052
Au 8.2973 19.4582 22.7745
Au 8.17431 21.4889 20.9594
Au 7.9196 23.3157 18.9185
Au 7.8056 24.729 16.6387
Au 10.9173 17.9317 28.7594
Au 10.5699 19.6496 26.5036
Au 10.3621 21.1565 24.2086
Au 9.94244 23.0884 22.1414
Au 9.56353 24.9506 19.8417
Au 9.45702 26.7219 17.4369
Au 12.9571 19.7413 30.1496
Au 12.4898 21.4584 27.8439
Au 12.0086 23.1738 25.4831
Au 11.778 25.124 22.983
Au 11.4512 26.9942 20.8414
Au 11.4879 28.3974 18.5918
Au 14.7134 21.6183 31.1179
Au 14.4353 23.3985 29.0934
Au 14.0635 25.1804 26.7206
Au 13.7165 26.7499 24.1595
Au 13.48 28.9895 22.0952
Au 13.1748 30.3306 19.6863
Au 16.8836 23.7618 32.1299
Au 16.2008 25.4995 29.9965
Au 15.9217 27.3583 27.8673
Au 15.5532 28.8315 25.247
Au 15.4671 30.6919 23.2111
Au 14.9449 32.0292 20.8436
Au 18.8606 25.9861 32.7485
Au 17.7888 27.3792 30.6354
Au 17.9224 29.0253 28.8295
Au 17.3812 30.5471 26.6451
Au 17.5221 32.3045 24.3435
Au 16.6253 33.599 21.9373
Au 21.1977 25.0251 32.252
Au 20.6529 26.7103 30.2385
Au 20.4269 28.3388 27.8175
Au 20.0853 30.0243 25.6333
Au 19.9065 31.8319 23.547
Au 19.4579 33.202 20.9726
Au 23.8585 24.2796 31.5985
Au 23.6198 25.8934 29.404
Au 23.3587 27.5596 26.999
Au 22.8538 29.2645 24.9143
Au 22.5879 30.987 22.5374
Au 22.111 32.5051 20.1976
Au 26.5801 23.5152 30.5115
Au 26.2329 25.2002 28.4398
Au 25.917 26.792 26.1502
Au 25.2847 28.5226 23.7753
Au 25.2357 30.0502 21.5537
Au 24.7506 31.6437 19.4951
Au 29.127 22.9558 29.4529
Au 29.0311 24.504 27.4628
Au 28.5535 26.0377 25.2463
Au 27.9425 27.8882 23.1864
Au 27.8891 29.4583 20.7596
Au 27.0635 30.8786 18.4382
Au 31.6785 22.0046 28.4037
Au 31.3882 23.4149 26.1854
Au 30.7605 25.2506 24.2561
Au 30.2369 27.0778 22.6149
Au 30.175 28.7393 19.7364
Au 29.6475 30.1465 17.6458
Au 31.5046 19.6274 27.049
Au 31.2036 21.1693 24.8739
Au 30.8599 22.8491 22.5728
Au 30.4375 24.789 20.3052
Au 30.2526 26.5252 18.1218
Au 29.8241 27.99 15.9439
Au 31.1237 17.0905 25.5142
Au 30.8026 18.6217 23.3176
Au 30.6667 20.3878 20.9767
Au 30.2648 22.2653 18.9669
Au 30.1447 23.9366 16.514
Au 29.3756 25.6649 14.1612
Au 30.4718 14.7145 24.1543
Au 30.5502 16.3698 21.7324
Au 30.3585 18.2654 19.1061
Au 30.1191 20.0977 16.9559
Au 29.7758 21.8115 14.8806
Au 29.4546 23.4291 12.645
Au 30.4867 12.9037 21.9823
Au 30.0061 14.1 19.6516
Au 30.0121 15.8493 17.5601
Au 29.586 17.6879 15.4494
Au 29.4706 19.2769 13.0664
Au 29.2806 21.0908 10.9734
Au 30.0936 10.96 20.1137
Au 29.7625 12.0922 17.8188
Au 29.5345 13.8197 15.774
Au 29.3443 15.5778 13.7271
Au 28.9888 17.3794 11.2817
Au 28.7237 18.9871 9.22108
Au 27.5247 9.68078 20.3941
Au 27.2263 11.0612 18.1105
Au 26.8807 12.8342 15.6568
Au 26.4565 14.6848 13.5843
Au 26.2386 16.5351 11.1826
Au 26.0372 18.2908 9.0119
Au 24.615 8.89213 19.9906
Au 24.3793 10.5864 17.8319
Au 24.1491 12.2418 15.4232
Au 23.8257 13.8293 13.258
Au 23.3874 15.6953 10.9416
Au 23.2323 17.6038 8.98775
Au 22.0111 8.10839 20.3844
Au 21.7224 9.49828 17.9638
Au 21.3329 11.5441 15.3475
Au 20.8409 13.1382 13.012
Au 20.8118 14.7705 10.756
Au 20.3743 16.6037 8.69404
Au 19.1332 7.62043 19.7942
Au 18.5461 8.96917 17.6919
Au 18.6391 10.8855 15.4363
Au 18.1378 12.5406 13.2133
Au 18.138 14.2388 10.9801
Au 17.6252 15.8407 8.7493
Au 16.3579 7.16115 19.787
Au 15.7559 8.61119 17.6543
Au 15.9799 10.3269 15.4161
Au 15.1998 11.9768 13.3827
Au 15.3329 13.2839 11.1378
Au 14.7943 15.0208 9.2223
Au 14.8055 8.83083 21.452
Au 14.5765 10.2429 19.2297
Au 14.3695 11.7976 16.9313
Au 13.741 13.5986 14.8323
Au 13.6391 15.0988 12.4148
Au 13.4342 16.8555 10.4304
Au 13.4779 10.688 23.0792
Au 13.0572 12.1745 20.9015
Au 12.721 13.6874 18.1456
Au 12.2364 15.6866 16.0675
Au 12.2088 17.3667 13.8045
Au 12.253 19.2951 11.661
Au 12.1497 12.5594 24.5813
Au 11.5008 14.1595 22.4301
Au 11.1845 15.47 20.1213
Au 10.745 17.4784 17.6362
Au 10.6714 19.3075 15.5615
Au 10.7321 21.2981 13.1211
Au 10.5811 14.2106 26.2868
Au 10.0292 15.9982 24.2154
Au 9.89477 17.4721 21.5498
Au 9.33768 19.3803 19.2758
Au 9.26319 21.2445 17.009
Au 9.14238 23.0606 14.9336
