567
 Atoms. Timestep: 50000
Au 8.68617 21.9055 21.545
Au 10.0484 24.1837 22.4381
Au 11.7224 26.3572 23.2018
Au 13.4382 28.2631 23.8081
Au 15.1136 30.554 24.8738
Au 17.0694 32.3973 25.5748
Au 8.88428 18.3157 19.8703
Au 10.7286 20.5002 20.7331
Au 12.3244 22.7012 21.5429
Au 13.8918 24.7504 22.2365
Au 15.7379 26.8097 23.0962
Au 17.2247 29.0723 23.9633
Au 19.1816 30.9941 24.7099
Au 20.7456 33.0755 25.3991
Au 9.2939 14.9154 18.331
Au 11.0007 16.8274 19.1842
Au 12.8408 18.7986 19.8444
Au 14.5202 20.9772 20.7182
Au 16.2397 23.2376 21.5591
Au 17.9941 25.4748 22.2619
Au 19.6565 27.6513 23.0552
Au 21.4839 29.7942 23.6467
Au 22.8898 31.8877 24.4473
Au 11.3979 13.2297 17.6269
Au 13.1966 15.1192 18.2268
Au 15.206 17.255 18.9392
Au 16.8374 19.4931 19.8396
Au 18.5527 21.8783 20.6234
Au 20.2839 23.9631 21.4506
Au 22.0186 26.2673 22.2143
Au 23.8465 28.4802 22.8727
Au 25.4438 30.4737 23.9472
Au 13.8323 11.6994 16.4556
Au 15.472 13.7016 17.2906
Au 17.3968 15.8206 17.9682
Au 18.9969 18.0533 18.9067
Au 20.8118 20.2413 19.4952
Au 22.5211 22.1479 20.3796
Au 23.934 24.5904 21.3169
Au 25.656 26.9054 21.8594
Au 27.5489 28.9759 22.7542
Au 15.8802 10.1562 15.7551
Au 17.55 12.3636 16.4614
Au 19.4781 14.2657 17.0554
Au 21.3935 16.3373 17.8112
Au 23.0863 18.546 18.5625
Au 24.6964 20.8523 19.5877
Au 26.2658 23.1829 20.2327
Au 28.0122 25.2968 21.0378
Au 29.6686 27.4807 21.7765
Au 18.1963 8.73203 14.8967
Au 19.9963 10.8352 15.5542
Au 21.8549 12.9953 16.1658
Au 23.7498 14.9071 17.0231
Au 25.398 17.0858 17.6621
Au 26.917 19.3122 18.7305
Au 28.4856 21.5983 19.5915
Au 30.1358 23.889 20.0906
Au 31.8473 25.8946 20.9201
Au 20.6804 7.70283 13.984
Au 22.4899 9.58168 14.9118
Au 24.197 11.4803 15.6454
Au 25.9396 13.3957 15.9953
Au 27.519 15.4975 16.8718
Au 29.109 17.6425 17.7482
Au 30.6043 19.8806 18.6764
Au 32.3454 22.0986 19.2862
Au 24.5954 8.23793 13.8108
Au 26.2707 10.0794 14.5028
Au 28.156 12.1185 15.2569
Au 29.7075 14.2367 15.9947
Au 31.1935 16.2917 16.8293
Au 32.7621 18.62 17.4688
Au 8.61204 20.904 19.1012
Au 10.1108 23.3335 19.7103
Au 11.9191 25.3951 20.5038
Au 13.6845 27.3977 21.2071
Au 15.462 29.3992 22.0055
Au 16.8591 31.6172 22.7266
Au 18.7428 33.4704 23.6788
Au 8.93377 17.4237 17.1638
Au 10.7078 19.4944 18.0904
Au 12.1988 21.7364 18.8688
Au 14.1222 23.5856 19.6218
Au 15.792 25.8816 20.4509
Au 17.5483 27.9916 21.1993
Au 19.2981 30.2364 21.7543
Au 20.9742 32.4082 22.6569
Au 9.4532 14.1991 15.8454
Au 11.1204 15.9439 16.4012
Au 13.0139 17.9356 17.2377
Au 14.4613 20.248 17.9933
Au 16.316 22.2941 18.8797
Au 17.9616 24.4026 19.6633
Au 20.0303 26.6395 20.3377
Au 21.5445 28.9177 21.103
Au 23.1808 31.233 21.7263
Au 11.6377 12.6738 14.9337
Au 13.2648 14.4066 15.7075
Au 15.1387 16.5196 16.2449
Au 16.6423 18.6759 16.9171
Au 18.463 20.7004 17.8957
Au 20.2393 22.9932 18.6752
Au 22.0718 25.0842 19.3191
Au 23.716 27.355 20.0666
Au 25.2221 29.3447 20.9021
Au 13.8172 11.0248 13.8627
Au 15.6008 12.9664 14.5911
Au 17.1859 15.0979 15.2823
Au 19.0634 17.0268 16.0689
Au 20.7307 19.1218 16.9232
Au 22.4784 21.3024 17.6501
Au 24.2031 23.5058 18.442
Au 25.978 25.7543 19.1387
Au 27.5202 27.9439 19.9606
Au 16.2366 9.54321 13.2547
Au 17.7577 11.5975 13.7673
Au 19.5268 13.4784 14.1332
Au 21.4635 15.6281 15.1544
Au 23.2334 17.7127 15.9622
Au 24.9296 19.8465 16.8782
Au 26.5644 22.0964 17.7358
Au 28.242 24.3977 18.4241
Au 29.7099 26.4506 19.1834
Au 18.4115 8.32724 12.0403
Au 19.971 10.0906 12.9844
Au 22.1263 12.0196 13.5295
Au 23.6841 14.0269 14.277
Au 25.473 16.2856 15.0195
Au 27.2323 18.2281 15.871
Au 28.6518 20.3491 16.6192
Au 30.0601 22.6479 17.7173
Au 31.6891 24.7466 18.2601
Au 22.3498 9.06269 12.1188
Au 24.2092 10.7537 12.7988
Au 25.9513 12.4814 13.3752
Au 27.545 14.6259 14.1986
Au 29.4261 16.7351 14.7024
Au 30.7356 18.9923 15.8767
Au 32.2409 21.1571 16.7204
Au 8.71612 20.1863 16.2999
Au 10.1415 22.3668 17.0681
Au 11.9202 24.3655 17.6569
Au 13.7344 26.3215 18.4314
Au 15.2447 28.5084 19.3815
Au 16.9428 30.6579 20.0614
Au 18.7124 32.5948 20.9498
Au 8.89774 16.6552 14.6552
Au 10.8381 18.6219 15.3083
Au 12.3625 20.646 16.2259
Au 14.1828 22.7429 16.9341
Au 15.7454 24.9022 17.7211
Au 17.4861 27.0963 18.4747
Au 19.3393 29.2239 19.0484
Au 21.0401 31.4005 20.052
Au 11.2112 15.0335 13.7319
Au 13.0089 16.9765 14.4982
Au 14.4726 19.1746 15.3054
Au 16.4206 21.3536 16.0555
Au 18.0595 23.5778 16.8475
Au 19.7917 25.6357 17.5835
Au 21.6227 27.7363 18.1696
Au 23.2068 29.9489 18.9682
Au 13.3943 13.3407 12.8133
Au 15.0074 15.3751 13.4544
Au 16.9417 17.7955 14.2718
Au 18.6651 19.7436 15.1119
Au 20.2713 21.8838 16.0464
Au 22.0027 24.0044 16.8256
Au 23.8513 26.33 17.3993
Au 25.3406 28.3511 18.1341
Au 15.6392 11.9885 11.9747
Au 17.2631 13.9869 12.4559
Au 19.0292 16.0717 13.4239
Au 20.8558 18.0779 14.19
Au 22.6247 20.1538 14.982
Au 24.3701 22.5974 15.9785
Au 26.1744 24.7637 16.5359
Au 27.6369 27.1584 17.2132
Au 17.8748 10.6063 10.97
Au 19.6817 12.5691 11.6585
Au 21.4739 14.5047 12.4776
Au 23.2101 16.7142 13.2283
Au 24.9654 18.8692 14.0638
Au 26.6583 20.9212 14.8949
Au 28.2518 23.3162 15.7474
Au 29.7643 25.3879 16.5137
Au 20.2736 9.48608 10.4714
Au 22.0541 11.4175 10.5897
Au 23.8916 13.1954 11.5219
Au 25.4766 15.2216 12.2218
Au 27.0895 17.2227 13.0277
Au 28.8019 19.2936 13.7906
Au 30.2812 21.6196 14.8769
Au 31.5998 23.6545 15.7884
Au 8.62739 19.0679 13.9442
Au 10.2844 21.3355 14.3944
Au 11.9509 23.3167 15.011
Au 13.6977 25.3942 15.8148
Au 15.4664 27.5242 16.7249
Au 17.0145 29.7299 17.4267
Au 18.7577 31.6906 18.3465
Au 10.5435 17.4882 12.5759
Au 12.5443 19.6244 13.3396
Au 14.0947 21.769 14.3041
Au 15.8433 23.9428 14.9007
Au 17.5529 26.18 15.5788
Au 19.3474 28.3292 16.5041
Au 21.1835 30.5093 17.3708
Au 12.7746 15.9992 11.8248
Au 14.7508 18.1628 12.5199
Au 16.499 20.4537 13.3448
Au 18.2337 22.4337 14.1364
Au 20.034 24.4909 14.7805
Au 21.7285 26.7145 15.5814
Au 23.3336 28.99 16.3559
Au 15.0579 14.5738 10.8907
Au 16.8447 16.6865 11.6254
Au 18.7437 18.9256 12.4162
Au 20.6918 20.7283 13.2704
Au 22.2564 22.8769 14.1182
Au 23.9129 25.3635 14.7827
Au 25.614 27.4485 15.5463
Au 17.513 13.2529 9.86021
Au 19.1566 15.2348 10.7246
Au 20.8864 17.3352 11.5776
Au 22.9352 19.1657 12.1617
Au 24.3294 21.3198 12.9551
Au 25.9885 23.6658 13.8108
Au 27.6191 25.874 14.5986
Au 19.5492 11.7983 9.18305
Au 21.3567 13.7922 9.73831
Au 23.0677 15.808 10.6769
Au 24.9509 17.8483 11.2421
Au 26.5122 20.055 12.313
Au 28.3485 22.2109 13.0773
Au 29.8574 24.352 13.821
Au 10.3098 19.9118 11.9695
Au 11.9975 22.4265 12.4991
Au 13.8256 24.481 13.2329
Au 15.3405 26.7532 13.9072
Au 17.1278 28.8486 14.6197
Au 18.8698 30.7737 15.8247
Au 12.3824 18.5429 10.8084
Au 14.343 20.768 11.6455
Au 15.952 22.9757 12.3312
Au 17.5861 25.1322 13.0531
Au 19.3705 27.2602 13.8138
Au 21.1422 29.1917 14.5497
Au 14.6545 17.1828 9.88573
Au 16.5079 19.1935 10.4536
Au 18.4264 21.5491 11.4149
Au 19.9648 23.4362 12.1988
Au 21.6547 25.7969 12.9218
Au 23.5407 27.9039 13.829
Au 16.9248 15.9248 8.9113
Au 18.907 17.8827 9.62669
Au 20.6783 19.9478 10.4809
Au 22.3558 22.0897 11.2507
Au 24.0705 24.1644 11.9971
Au 25.6523 26.3878 12.7627
Au 19.0592 14.484 8.00805
Au 20.9416 16.299 8.7802
Au 22.7931 18.3198 9.33957
Au 24.4455 20.4459 10.2701
Au 26.235 22.6257 11.1735
Au 27.7864 24.5308 12.0198
Au 12.0046 21.0338 10.1052
Au 13.7821 23.473 10.4947
Au 15.4766 25.6588 11.2776
Au 17.2894 27.7698 12.062
Au 18.9618 29.7142 13.0526
Au 14.1452 19.6286 9.09358
Au 16.0107 21.832 9.81614
Au 17.6502 23.9981 10.3632
Au 19.5537 26.1081 11.2089
Au 21.2039 28.2588 11.9699
Au 16.5943 18.6426 7.72046
Au 18.3775 20.5012 8.84622
Au 20.225 22.6959 9.47099
Au 21.8089 24.7462 10.5063
Au 23.6966 26.8779 11.067
Au 18.6311 17.1201 7.18442
Au 20.6515 19.07 7.94443
Au 22.4239 21.2223 8.55403
Au 24.0816 23.0832 9.4833
Au 25.8147 25.1526 10.0806
Au 13.6842 22.2047 8.19266
Au 15.6333 24.4761 8.86245
Au 17.4327 26.5094 9.43667
Au 19.0421 28.5154 10.2842
Au 16.0896 21.2195 7.29343
Au 17.9544 23.1141 7.83358
Au 19.8212 25.2462 8.46882
Au 21.4793 27.3142 9.35622
Au 18.5415 19.7675 6.33555
Au 20.2532 21.8467 6.96766
Au 21.9977 23.7923 7.73771
Au 23.4659 25.7145 8.6158
Au 8.45685 22.8533 24.1458
Au 10.1268 25.1931 25.126
Au 12.0327 27.1951 25.7088
Au 13.425 29.3724 26.8499
Au 15.2961 31.3965 27.6472
Au 8.8387 19.4658 22.5019
Au 10.6088 21.4524 23.6145
Au 12.0688 23.7375 24.2499
Au 13.9589 25.7267 25.0112
Au 15.369 27.8928 25.719
Au 17.3974 30.0383 26.5756
Au 19.1446 32.0603 27.5153
Au 9.56238 15.7222 21.16
Au 10.9762 17.9233 21.6685
Au 12.7448 20.0273 22.6854
Au 14.4129 22.1345 23.4424
Au 16.2404 24.2373 24.1125
Au 17.8842 26.4708 24.8553
Au 19.569 28.5622 25.5727
Au 21.3241 30.5866 26.467
Au 22.6753 32.5957 27.2321
Au 11.3877 13.9822 20.0276
Au 13.1339 16.1874 21.0102
Au 14.9341 18.3711 21.7449
Au 16.6742 20.6801 22.48
Au 18.5 22.7037 23.3329
Au 20.2549 25.0062 23.9931
Au 22.0438 27.2297 24.8406
Au 23.7923 29.2866 25.7904
Au 25.1893 31.4394 26.4717
Au 13.8044 12.671 19.1493
Au 15.3834 14.7812 19.9062
Au 17.1156 16.7324 20.6131
Au 19.0601 19.126 21.557
Au 20.6346 21.2204 22.3356
Au 22.3969 23.3783 23.133
Au 24.2661 25.6434 23.9484
Au 25.8569 28.0029 24.5979
Au 27.6047 29.8862 25.4271
Au 15.7677 11.1428 18.3812
Au 17.62 13.3497 19.1138
Au 19.5814 15.2416 19.6618
Au 21.2771 17.3122 20.6062
Au 23.0525 19.6693 21.2962
Au 24.7428 21.9066 22.1932
Au 26.2364 24.1468 23.0212
Au 27.8314 26.3378 23.7536
Au 29.4948 28.2597 24.3822
Au 18.092 9.77004 17.4996
Au 19.9442 11.8134 18.2391
Au 21.7467 13.6332 18.7976
Au 23.5364 15.7879 19.6149
Au 24.9823 17.9538 20.3933
Au 26.705 20.2446 21.3223
Au 28.4606 22.5781 22.2045
Au 29.9606 24.6948 22.7545
Au 31.6132 26.6973 23.3811
Au 20.3541 8.35236 16.6092
Au 22.2602 10.5037 17.577
Au 24.3151 12.3191 18.2773
Au 25.9416 14.386 18.9772
Au 27.6685 16.4311 19.7223
Au 29.2334 18.7153 20.5961
Au 30.6425 21.1103 21.2498
Au 32.3745 23.1549 21.5508
Au 22.8017 7.11145 15.7068
Au 24.8552 8.77371 16.6516
Au 26.492 10.906 17.1665
Au 28.0197 12.8704 17.9197
Au 29.7033 15.0133 18.7575
Au 31.2722 17.2377 19.4021
Au 32.7808 19.3858 20.1592
Au 8.77028 20.3631 25.3096
Au 10.4228 22.642 26.2172
Au 12.0553 24.7198 27.0108
Au 13.7767 26.653 27.7667
Au 15.4005 28.9582 28.4935
Au 17.3243 30.8788 29.3439
Au 9.40193 17.0582 23.5521
Au 11.0571 18.9877 24.6785
Au 12.6517 21.2304 25.3672
Au 14.1944 23.2232 26.3286
Au 16.014 25.152 26.9295
Au 17.6646 27.4204 27.4131
Au 19.4924 29.5462 28.3811
Au 21.2722 31.6094 29.0868
Au 11.2688 15.1286 23.0968
Au 13.0283 17.241 23.6177
Au 14.9284 19.4444 24.3523
Au 16.8036 21.6193 25.2888
Au 18.4799 23.8895 25.8167
Au 20.085 25.9979 26.7106
Au 21.8068 28.0523 27.5984
Au 23.417 30.2942 28.4152
Au 13.4034 13.6141 22.0212
Au 15.3581 15.5956 22.7702
Au 17.325 17.9235 23.3164
Au 19.0279 20.0562 24.251
Au 20.7933 22.3501 25.1763
Au 22.5892 24.6396 25.8108
Au 24.1302 26.8259 26.7588
Au 25.781 28.8053 27.384
Au 15.7375 12.209 21.0408
Au 17.577 14.2363 21.7882
Au 19.4412 16.3962 22.2807
Au 21.3167 18.544 23.2583
Au 22.9575 20.8281 24.1036
Au 24.5755 22.8932 25.0205
Au 26.3655 25.2889 25.9275
Au 27.9102 27.3336 26.6053
Au 17.9331 10.6798 20.0796
Au 19.8625 12.7404 20.9431
Au 21.7005 14.8529 21.5726
Au 23.4442 16.9973 22.4249
Au 25.0067 19.1502 23.2873
Au 26.8182 21.2576 24.0393
Au 28.2305 23.5271 24.8956
Au 29.963 25.5928 25.3543
Au 20.2828 9.08169 19.3035
Au 22.1883 11.2186 20.2204
Au 24.001 13.2739 20.9108
Au 25.4865 15.402 21.6736
Au 27.2741 17.6775 22.2184
Au 28.8567 19.7295 23.12
Au 30.6546 22.0203 23.8203
Au 32.1914 24.1352 24.1626
Au 22.6266 8.08254 18.1924
Au 24.4776 9.86244 19.1515
Au 26.4044 11.7537 19.936
Au 28.0382 13.8484 20.6676
Au 29.7098 16.0241 21.3879
Au 31.4611 18.2299 22.0042
Au 32.8887 20.5238 22.9959
Au 9.35376 17.7055 26.3316
Au 10.7625 20.07 27.0824
Au 12.3997 22.2575 28.1964
Au 14.467 24.2133 28.9325
Au 15.9991 26.4149 29.5906
Au 17.6385 28.3293 30.2803
Au 19.494 30.1749 30.8119
Au 11.3285 16.1486 25.6274
Au 13.0439 18.4556 26.5808
Au 14.8661 20.6166 26.9282
Au 16.5697 22.5571 27.8193
Au 18.324 24.9654 28.4573
Au 19.9556 26.9277 29.6434
Au 21.7279 28.8984 30.3476
Au 13.424 14.6281 24.7009
Au 15.1401 16.9078 25.3117
Au 17.169 18.8399 26.0154
Au 18.8632 21.1288 27.0056
Au 20.5281 23.3772 27.6798
Au 22.2625 25.5564 28.5937
Au 24.212 27.6298 29.4654
Au 15.7543 13.2356 23.6618
Au 17.549 15.3631 24.3954
Au 19.3802 17.3655 25.3366
Au 21.295 19.4597 26.0725
Au 23.025 21.7549 26.8113
Au 24.526 23.9673 27.733
Au 26.297 26.084 28.6125
Au 17.9453 11.7047 22.6839
Au 19.8876 13.8006 23.642
Au 21.7497 15.9805 24.1462
Au 23.4143 17.9096 25.1441
Au 24.9863 20.1199 26.001
Au 26.5258 22.4138 26.9444
Au 28.3279 24.6127 27.67
Au 20.2732 10.1797 21.7451
Au 22.1013 12.1225 22.7943
Au 23.8159 14.2032 23.483
Au 25.6506 16.1806 24.3208
Au 27.2152 18.5036 25.0162
Au 29.0333 20.7663 25.6275
Au 30.6312 23.0226 26.3283
Au 22.5285 8.74409 21.1358
Au 24.34 10.4393 21.8603
Au 26.1944 12.7395 22.3877
Au 27.8722 15.0839 23.1461
Au 29.5827 17.3351 24.0083
Au 31.3563 19.3529 24.8048
Au 32.6674 21.6196 25.4268
Au 11.3333 17.2611 28.1818
Au 12.7845 19.3657 28.969
Au 14.5966 21.5558 29.557
Au 16.6539 23.7896 30.3862
Au 18.2272 25.8568 31.4285
Au 19.9821 27.6489 32.1836
Au 13.5878 15.7548 27.231
Au 15.2874 17.9522 27.9566
Au 17.0456 20.0339 28.6548
Au 18.7493 22.1552 29.5286
Au 20.4149 24.3569 30.29
Au 22.3332 26.3454 31.237
Au 15.6152 13.9067 26.5446
Au 17.2137 16.1919 26.9717
Au 19.3606 18.4153 27.7044
Au 21.156 20.5876 28.7003
Au 22.8642 22.632 29.3575
Au 24.4325 24.8927 30.3471
Au 17.8922 12.8203 25.6605
Au 19.6333 14.7896 26.1902
Au 21.6514 16.8313 26.7619
Au 23.3533 18.9715 27.8946
Au 25.0534 21.0138 28.787
Au 26.6627 23.4078 29.6276
Au 20.2002 11.2247 24.406
Au 22.0831 13.2967 25.4846
Au 23.9741 15.2555 26.1358
Au 25.568 17.4741 27.015
Au 27.3887 19.6721 27.5474
Au 28.7353 21.895 28.2225
Au 22.415 9.78159 23.7788
Au 24.3459 11.6462 24.5349
Au 26.0872 13.7768 25.2853
Au 27.8627 15.7955 26.0036
Au 29.5535 18.1506 26.6065
Au 30.9859 20.5841 27.4476
Au 13.4737 16.7498 29.7595
Au 15.0648 18.8484 30.6471
Au 16.7654 21.1321 31.2785
Au 18.5847 23.1106 32.2075
Au 20.5773 24.9907 32.8395
Au 15.5669 15.2709 28.9367
Au 17.4175 17.3259 29.8526
Au 19.009 19.4734 30.422
Au 20.8603 21.6542 31.243
Au 22.7327 23.5608 32.0987
Au 18.0254 13.7222 28.2289
Au 19.6395 15.7723 28.7424
Au 21.4566 18.0202 29.5443
Au 23.25 19.9899 30.7376
Au 24.8968 22.1577 31.2049
Au 20.0589 12.1592 27.3211
Au 21.9501 14.2906 27.9344
Au 23.8113 16.4525 28.915
Au 25.7265 18.4405 29.5535
Au 27.4536 20.6999 30.2865
Au 22.2438 10.7982 26.1581
Au 24.2437 12.7658 27.1653
Au 25.9335 14.8867 27.9028
Au 28.069 16.9305 28.5612
Au 29.4847 19.1011 29.1122
Au 15.5085 16.4878 31.4797
Au 17.1892 18.5725 32.2093
Au 18.9183 20.507 33.1064
Au 20.7652 22.1218 33.8901
Au 17.7867 14.8015 30.6854
Au 19.5457 16.9428 31.4096
Au 21.098 19.0048 32.0968
Au 23.2309 21.0259 33.1739
Au 20.0851 13.0852 29.9053
Au 21.7925 15.3185 30.5766
Au 23.6331 17.2982 31.3569
Au 25.5523 19.4671 32.1736
Au 22.3833 11.8581 28.8022
Au 24.1649 13.8653 30.0435
Au 25.9439 15.8984 30.5243
Au 27.8346 18.012 31.1012
Au 17.6605 16.0207 33.0509
Au 19.2561 17.858 33.9998
Au 21.161 19.5434 34.6747
Au 20.1335 14.4134 32.4964
Au 21.7303 16.5612 33.3137
Au 23.469 18.5118 33.7987
Au 22.103 12.9216 31.567
Au 23.8747 14.9301 32.4003
Au 25.8116 17.0313 32.9699
