561
 Atoms. Timestep: 50000
Au 9.68429 28.0492 24.8363
Au 9.63505 24.3257 23.1556
Au 11.5556 26.5173 24.049
Au 13.0085 28.5947 25.1256
Au 9.91001 20.6261 21.6742
Au 11.5518 22.6108 22.4158
Au 13.6248 24.7153 23.0718
Au 15.4621 27.1377 23.9792
Au 17.4118 29.2681 24.6275
Au 10.5185 17.2034 19.8561
Au 12.349 19.034 20.6808
Au 14.0187 21.2693 21.42
Au 16.018 23.454 22.1037
Au 17.6837 25.5189 23.0174
Au 19.3972 27.6987 23.7457
Au 21.0188 29.8398 24.5663
Au 10.7696 13.374 18.1967
Au 12.5765 15.2653 18.9727
Au 14.6551 17.5559 19.6252
Au 16.5313 19.6851 20.5721
Au 18.1414 21.8528 21.1934
Au 19.9728 24.1014 22.0935
Au 21.6935 26.1527 22.9355
Au 23.2048 28.5489 23.787
Au 24.705 30.6284 24.5416
Au 11.4634 10.7652 17.0428
Au 13.3458 12.4057 17.4814
Au 15.2532 14.1205 18.2742
Au 16.9401 16.186 18.8545
Au 18.723 18.2856 19.3613
Au 20.4795 20.4514 20.4357
Au 22.2396 22.5467 21.4128
Au 24.0111 24.534 21.9996
Au 25.539 26.84 22.7147
Au 26.8686 29.0639 23.643
Au 28.5806 30.972 24.2129
Au 15.6462 10.554 16.4186
Au 17.35 12.6212 17.247
Au 19.2417 14.4489 17.954
Au 21.0722 16.75 18.6676
Au 22.5365 18.8605 19.5136
Au 24.3747 20.8896 20.2319
Au 26.1242 23.0908 20.9558
Au 27.9567 25.2923 21.8664
Au 29.3155 27.6786 22.4579
Au 19.6006 11.0495 16.2178
Au 21.406 12.9072 17.0132
Au 23.2339 14.9648 17.7447
Au 24.8112 17.3181 18.4119
Au 26.7081 19.4481 19.2589
Au 28.5422 21.3786 20.0469
Au 29.9934 23.7514 20.8877
Au 23.8589 11.3908 16.1277
Au 25.5338 13.4772 16.8288
Au 27.04 15.8178 17.5679
Au 29.251 18.0571 18.6245
Au 30.8257 20.1569 19.1388
Au 27.6373 12.0616 16.047
Au 29.5597 14.4087 16.9205
Au 31.2196 16.3917 17.5238
Au 31.6747 13.4033 15.9662
Au 9.4268 26.8412 22.4981
Au 11.3025 29.0876 22.9035
Au 9.60266 23.126 20.5261
Au 11.3512 25.1936 21.515
Au 13.2609 27.4221 22.1926
Au 14.9946 29.6294 23.2248
Au 10.1368 19.7856 19.0371
Au 11.8716 21.7203 19.7791
Au 13.6482 23.7341 20.4541
Au 15.4595 26.0241 21.26
Au 17.1528 28.3404 22.2267
Au 18.9994 30.4938 22.5934
Au 10.606 15.9869 17.2105
Au 12.3262 17.9631 17.9252
Au 14.168 20.0334 18.7763
Au 15.8998 22.4108 19.6896
Au 17.9359 24.6168 20.3157
Au 19.3827 26.737 21.0781
Au 21.1419 29.0099 21.7175
Au 22.7029 31.0112 22.6312
Au 11.2503 12.6982 15.4283
Au 12.7537 14.8393 16.136
Au 14.5794 16.5541 16.9556
Au 16.4214 18.769 17.6642
Au 18.2296 20.9269 18.6067
Au 20.1219 23.0097 19.3978
Au 21.6781 24.9583 20.0542
Au 23.1126 27.2593 20.848
Au 24.9496 29.4119 21.7611
Au 26.4398 31.5289 22.7888
Au 13.52 11.1689 15.0032
Au 15.2784 13.0957 15.4705
Au 17.0806 15.1708 16.3145
Au 18.9107 17.3173 16.872
Au 20.6859 19.4913 17.691
Au 22.358 21.6305 18.5476
Au 23.9201 23.6895 19.2724
Au 25.5858 25.7763 20.0149
Au 27.1858 27.9016 20.6762
Au 28.702 30.0914 21.6626
Au 17.56 11.5182 14.4879
Au 19.2711 13.5695 15.1894
Au 20.9581 15.7904 15.9729
Au 22.8823 18.0817 16.785
Au 24.5495 20.0908 17.533
Au 26.3054 22.1534 18.1855
Au 27.9938 24.2893 19.1614
Au 29.5178 26.4981 19.9652
Au 21.7276 12.0542 14.2968
Au 23.2583 14.1205 15.1787
Au 25.0724 16.3953 15.7217
Au 26.6843 18.6009 16.6786
Au 28.509 20.5417 17.3649
Au 30.157 22.7096 18.1954
Au 25.5805 12.5167 14.2376
Au 27.4578 14.7593 14.967
Au 28.8603 16.9546 15.9496
Au 30.7755 18.9624 16.4431
Au 29.3627 13.2309 14.3013
Au 30.8982 15.4876 14.9366
Au 9.46129 25.8984 19.7467
Au 11.2089 27.9841 20.2743
Au 12.9121 30.0682 21.2071
Au 9.72671 22.4176 17.9436
Au 11.4343 24.472 18.7204
Au 13.2436 26.5217 19.5017
Au 15.0539 28.7403 20.3411
Au 16.4542 30.7421 21.1242
Au 10.2256 18.5939 16.443
Au 11.9607 20.6596 17.1704
Au 13.7251 22.7793 17.8254
Au 15.2553 25.016 18.5727
Au 17.2777 27.2792 19.4031
Au 18.8716 29.459 19.913
Au 20.7356 31.5694 20.8785
Au 10.5365 15.2571 14.4313
Au 12.4179 17.3448 15.1337
Au 14.1858 19.2087 15.8517
Au 16.0608 21.3305 16.9269
Au 17.6322 23.6702 17.7049
Au 19.5923 25.6628 18.235
Au 21.1492 27.7831 19.0368
Au 23.0076 30.0176 19.9789
Au 24.6952 32.0578 20.5272
Au 13.0529 13.6103 13.7086
Au 14.8004 15.7193 14.3499
Au 16.6998 17.7364 15.0703
Au 18.3221 20.0595 15.9423
Au 20.0554 22.2338 16.6339
Au 21.6706 24.2784 17.2679
Au 23.4338 26.3662 18.1458
Au 25.1026 28.5375 18.948
Au 26.7425 30.6516 20.0496
Au 15.3456 12.3858 12.9913
Au 17.1547 14.184 13.6188
Au 18.9421 16.2227 14.1858
Au 20.5215 18.5027 14.9893
Au 22.3597 20.7352 15.6752
Au 24.0518 22.7645 16.556
Au 25.6481 24.7832 17.3171
Au 27.4838 27.0227 18.0392
Au 29.0339 29.1304 19.033
Au 19.2695 12.8506 12.5871
Au 21.2263 14.6977 13.3769
Au 22.9485 16.9326 13.902
Au 24.727 19.0778 14.7918
Au 26.3017 21.1068 15.4956
Au 28.2466 23.3369 16.4087
Au 29.8402 25.3729 17.0996
Au 23.4679 13.2149 12.3715
Au 25.0514 15.2693 13.3333
Au 26.935 17.4606 13.9231
Au 28.6153 19.7381 14.5481
Au 30.3372 21.7557 15.3089
Au 27.2503 13.9043 12.3078
Au 29.091 15.9163 13.1263
Au 30.6704 18.1739 13.8713
Au 9.39294 24.6888 17.0318
Au 11.0033 27.0762 17.7333
Au 12.8472 29.1759 18.6186
Au 14.6685 31.1996 19.3419
Au 9.7237 21.3663 15.2936
Au 11.6691 23.349 15.8524
Au 13.0379 25.5167 16.746
Au 15.0225 27.7699 17.5081
Au 16.6723 29.6969 18.2709
Au 18.5067 31.8777 18.8307
Au 10.5135 17.5306 13.2913
Au 11.6832 19.7251 14.1937
Au 13.9423 21.9631 15.0292
Au 15.3333 24.0919 16.0475
Au 17.2364 26.4044 16.7613
Au 18.9416 28.2623 17.2806
Au 20.7982 30.4993 18.0531
Au 22.5595 32.3901 18.668
Au 12.5437 16.0974 12.6155
Au 14.4042 18.1879 13.106
Au 16.1301 20.3322 14.2083
Au 17.5907 22.6162 15.0594
Au 19.505 24.8573 15.4925
Au 21.2293 26.8954 16.2601
Au 23.0318 29.0974 17.096
Au 24.7079 31.2451 17.7424
Au 14.9307 14.7712 11.712
Au 16.6943 16.8642 12.3121
Au 18.4959 19.1585 13.1966
Au 20.0307 21.2967 14.007
Au 21.8599 23.3121 14.5087
Au 23.6251 25.5643 15.6119
Au 25.4685 27.6191 16.2819
Au 27.0301 29.6822 17.3284
Au 17.0354 13.3364 11.1
Au 18.9879 15.353 11.5869
Au 20.7455 17.5248 12.3955
Au 22.4185 19.5718 13.1731
Au 24.1647 21.6959 13.7016
Au 25.7463 23.8485 14.7167
Au 27.591 25.9131 15.4359
Au 29.2295 28.0092 16.3803
Au 21.3921 13.8862 10.7638
Au 23.0155 16 11.2853
Au 24.7593 17.9989 11.9903
Au 26.5151 20.1617 12.7457
Au 28.0907 22.3937 13.6021
Au 29.875 24.4639 14.5179
Au 25.0191 14.3317 10.5959
Au 26.9584 16.5124 11.3594
Au 28.5553 18.5724 11.996
Au 30.2256 20.676 12.6761
Au 9.48567 23.9905 14.1435
Au 10.9646 26.1741 15.0363
Au 12.7636 28.2005 15.9527
Au 14.3707 30.3626 16.6102
Au 16.2053 32.1863 17.0617
Au 9.98713 20.3649 12.3217
Au 11.6526 22.4189 13.2994
Au 13.4173 24.3678 14.0534
Au 14.8403 26.734 15.0471
Au 16.6278 28.8888 15.5697
Au 18.6411 30.804 16.2774
Au 20.2642 32.8562 17.0209
Au 12.2668 18.9555 11.6543
Au 13.9087 20.9826 12.4212
Au 15.5731 23.1098 13.0922
Au 17.3471 25.2795 13.8963
Au 18.9258 27.4295 14.6152
Au 20.8105 29.3817 15.2399
Au 22.393 31.7014 16.0647
Au 14.5893 17.2465 10.4843
Au 16.2806 19.6339 11.4822
Au 17.95 21.7838 12.3425
Au 19.6213 23.8613 12.6921
Au 21.2049 25.9992 13.5247
Au 23.0885 27.9672 14.3325
Au 25.0229 30.0671 15.4146
Au 16.8448 15.764 9.91151
Au 18.3859 18.131 10.605
Au 20.1906 20.276 11.2242
Au 21.9366 22.2339 11.797
Au 23.7701 24.5166 12.8365
Au 25.4224 26.6048 13.6069
Au 27.2432 28.6401 14.2507
Au 19.0503 14.5571 9.0178
Au 20.754 16.6276 9.76926
Au 22.4119 18.6879 10.3597
Au 24.0128 20.625 11.0267
Au 25.9723 22.8322 11.8262
Au 27.6535 24.7883 12.873
Au 29.4389 26.9498 13.5643
Au 22.9599 15.0264 8.71307
Au 24.8895 16.9233 9.56358
Au 26.5022 19.3848 10.0566
Au 28.1397 21.3282 11.0756
Au 29.8861 23.2954 12.0081
Au 9.89621 23.0037 11.6817
Au 11.1926 25.155 12.4907
Au 12.841 26.9998 13.4638
Au 14.3193 29.1818 13.9934
Au 16.4035 31.3363 14.6716
Au 18.3033 33.0442 15.0117
Au 11.8751 21.6087 10.5191
Au 13.5678 23.5213 11.2982
Au 15.1128 25.6037 12.2868
Au 16.8397 27.7546 13.0614
Au 18.6355 29.9304 13.5796
Au 20.5113 31.8282 14.2192
Au 13.9683 20.0481 9.78866
Au 15.5062 22.2152 10.3587
Au 17.1727 24.4362 11.2318
Au 18.9911 26.3695 11.8701
Au 20.8081 28.4904 12.6646
Au 22.6129 30.4599 13.3253
Au 16.22 18.6683 8.9716
Au 17.944 20.7631 9.6758
Au 19.7699 22.6588 10.3303
Au 21.5643 24.9655 11.0284
Au 23.3804 27.0442 11.8152
Au 25.0534 29.1361 12.7768
Au 18.4459 17.0019 8.20991
Au 20.1535 19.2671 8.66078
Au 21.8883 21.239 9.15079
Au 23.6371 23.4152 10.3096
Au 25.4207 25.419 10.8123
Au 27.4391 27.2761 11.885
Au 20.9344 15.7584 7.27999
Au 22.675 17.5301 8.01052
Au 24.317 19.502 8.73179
Au 25.9279 21.8883 9.51354
Au 27.8597 24.1773 10.2185
Au 29.7174 25.7636 11.429
Au 9.79399 25.533 25.7328
Au 11.5146 27.3332 26.8435
Au 10.0538 21.5837 24.4071
Au 11.7198 23.8053 24.9545
Au 13.6426 25.8917 25.9182
Au 15.3949 28.1869 26.6259
Au 10.4865 17.9005 22.6682
Au 12.1614 19.9051 23.3102
Au 13.9945 22.0488 24.1136
Au 15.7847 24.391 24.7813
Au 17.5332 26.7568 25.6441
Au 19.3862 28.6028 26.5575
Au 10.9131 14.2884 20.7828
Au 12.5596 16.4992 21.6705
Au 14.5671 18.3399 22.2076
Au 16.2436 20.7414 23.1741
Au 17.9839 22.8823 24.0037
Au 19.6183 24.976 24.7506
Au 21.5449 26.9318 25.5485
Au 23.0093 29.1549 26.5534
Au 11.5824 11.1965 19.6597
Au 13.1494 12.9806 20.2331
Au 14.95 14.9235 20.9427
Au 16.8396 17.0328 21.4552
Au 18.6682 19.12 22.283
Au 20.3352 21.3877 23.1837
Au 22.0978 23.6008 24.0093
Au 23.8258 25.7042 24.7104
Au 25.3767 27.8529 25.4969
Au 26.8383 30.1371 26.15
Au 13.7 9.84582 18.3631
Au 15.5219 11.6006 19.2239
Au 17.3636 13.5304 20.0115
Au 19.0294 15.6859 20.5506
Au 21.0311 17.8055 21.2666
Au 22.6547 19.8225 22.313
Au 24.2786 22.0402 23.0611
Au 26.1907 24.0804 23.7925
Au 27.7544 26.3786 24.478
Au 29.0399 28.6287 25.3506
Au 17.717 9.95629 18.4771
Au 19.6895 11.8314 18.9568
Au 21.3465 13.946 19.7665
Au 23.1344 16.246 20.2867
Au 24.7699 18.2216 21.2521
Au 26.5788 20.3624 22.0756
Au 28.3827 22.5043 22.8475
Au 29.9656 24.7736 23.3987
Au 21.8584 10.511 18.0514
Au 23.8352 12.4467 18.7953
Au 25.4852 14.7885 19.5269
Au 27.0322 17.0696 20.2312
Au 29.1524 18.9159 21.2454
Au 30.6229 21.0077 21.9284
Au 26.0668 10.8696 18.0493
Au 27.6569 13.1329 18.7298
Au 29.2623 15.3845 19.3435
Au 31.2849 17.249 20.2541
Au 29.7749 11.8954 17.6617
Au 31.6092 13.9601 18.6894
Au 10.3907 22.3851 26.7523
Au 11.7723 24.7581 27.7454
Au 13.6544 26.7787 28.5138
Au 10.2338 19.073 24.8913
Au 12.3895 20.914 25.9122
Au 13.9705 23.1525 26.8723
Au 15.8419 25.3903 27.3726
Au 17.5153 27.6461 28.4139
Au 10.862 15.0822 23.4835
Au 12.6084 17.2548 24.1967
Au 14.552 19.3749 24.8098
Au 16.2229 21.6749 25.8632
Au 18.0649 23.7462 26.6746
Au 19.7806 26.1042 27.5457
Au 21.3216 28.1109 28.4007
Au 11.4727 12.0358 22.2696
Au 13.1318 13.8378 22.771
Au 14.9512 15.8575 23.5141
Au 16.9407 18.0015 24.177
Au 18.5251 20.2005 24.947
Au 20.2601 22.2619 25.7899
Au 21.9159 24.5013 26.6089
Au 23.7444 26.7206 27.4623
Au 25.3056 28.6481 28.2928
Au 13.8815 10.392 21.1108
Au 15.4433 12.3657 21.9112
Au 17.3263 14.6312 22.6738
Au 19.2061 16.5456 23.1969
Au 20.7323 18.8873 23.9723
Au 22.4765 20.952 24.9038
Au 24.4896 22.9986 25.7301
Au 26.0373 25.3043 26.3675
Au 27.4672 27.5373 27.3288
Au 15.8993 8.95767 20.2014
Au 17.6818 10.8737 21.0193
Au 19.5338 12.9113 21.6535
Au 21.4244 15.0268 22.3134
Au 22.9504 17.3241 23.252
Au 24.9727 19.3296 23.9449
Au 26.6165 21.553 24.8611
Au 28.3993 23.8107 25.4964
Au 29.6245 25.9623 26.2408
Au 19.9132 9.38947 20.2108
Au 21.9765 11.2661 20.6302
Au 23.6093 13.6459 21.2286
Au 25.3632 15.6158 22.3349
Au 27.204 17.9383 22.8307
Au 28.8801 19.9598 23.7892
Au 30.6534 22.3305 24.4357
Au 24.1278 9.78074 19.9321
Au 25.7356 12.0053 20.6053
Au 27.546 14.188 21.3732
Au 29.4777 16.2781 21.9445
Au 31.2593 18.4507 22.8988
Au 28.0818 10.7336 20.2214
Au 29.8552 12.6988 20.4227
Au 31.7056 14.6202 21.2293
Au 10.555 19.6709 27.4398
Au 12.2863 21.9625 28.6824
Au 13.9482 24.2795 29.3473
Au 15.7274 26.27 29.9089
Au 10.8197 16.3727 26.1739
Au 12.6436 18.4176 26.666
Au 14.5226 20.5052 27.651
Au 16.2218 22.7449 28.729
Au 18.0134 24.769 29.1788
Au 19.6314 27.0221 30.1518
Au 11.5476 12.8193 24.9309
Au 13.0993 14.882 25.4583
Au 15.0494 16.9623 25.9395
Au 16.7071 18.8811 26.8925
Au 18.4822 21.1122 27.7625
Au 20.128 23.2569 28.4485
Au 21.8891 25.4597 29.2532
Au 23.5518 27.6143 29.9789
Au 13.4632 11.078 23.8922
Au 15.3878 13.0828 24.6645
Au 17.3762 15.548 25.2103
Au 19.1614 17.4637 25.9542
Au 20.8599 19.5664 26.7447
Au 22.3635 21.6504 27.497
Au 24.4054 23.9992 28.3861
Au 25.9489 26.1582 29.4226
Au 15.7999 9.85987 22.9406
Au 17.6574 11.8839 23.6227
Au 19.6355 14.012 24.2501
Au 21.3003 16.0283 25.2617
Au 23.1111 18.0654 25.9307
Au 24.7768 20.282 26.6822
Au 26.6425 22.5296 27.4116
Au 28.2782 24.7366 28.1162
Au 18.0656 8.39047 22.0929
Au 20.0768 10.3348 22.7248
Au 21.7509 12.448 23.1505
Au 23.4303 14.6078 24.0676
Au 25.2498 16.6843 24.913
Au 27.0261 18.7163 25.7623
Au 28.884 20.9778 26.3685
Au 30.3046 23.0295 27.1513
Au 22.1267 8.76599 21.7306
Au 24.0016 10.8948 22.4884
Au 25.8044 13.0651 23.2428
Au 27.7245 15.2298 24.0903
Au 29.247 17.4316 24.6252
Au 31.2127 19.7199 25.3523
Au 26.2092 9.65141 21.7961
Au 28.1943 11.6963 22.6329
Au 29.9356 13.7738 23.0502
Au 31.3714 15.7073 23.9097
Au 10.7814 17.1601 28.7311
Au 12.4346 19.1179 29.4136
Au 14.3605 21.3192 30.437
Au 15.8225 23.5061 31.2205
Au 17.8189 25.5488 31.6636
Au 11.267 13.9236 27.2962
Au 13.142 15.9924 27.85
Au 14.8892 17.8988 28.8647
Au 16.6741 19.9686 29.4934
Au 18.2589 22.3312 30.344
Au 20.1014 24.3789 31.0064
Au 21.6429 26.3955 31.7038
Au 13.5925 12.2807 26.4981
Au 15.5578 14.3142 27.1273
Au 17.1757 16.4253 27.9758
Au 19.0018 18.5452 28.6052
Au 20.7755 20.7192 29.4949
Au 22.2451 22.9211 30.2467
Au 24.1477 25.0498 31.0737
Au 15.715 10.6576 25.706
Au 17.5641 12.7564 26.2157
Au 19.3483 14.7198 27.1367
Au 21.2319 16.8882 28.0597
Au 22.7856 18.9816 28.6945
Au 24.6781 21.2338 29.2868
Au 26.4848 23.5348 30.1337
Au 17.9206 9.26234 24.7365
Au 19.964 11.3261 25.381
Au 21.7886 13.3509 26.295
Au 23.5428 15.7029 27.0707
Au 25.2492 17.6189 27.9694
Au 27.1972 19.9663 28.4121
Au 28.69 22.0319 29.1499
Au 20.3331 7.93336 23.6252
Au 22.2378 9.94901 24.4309
Au 24.107 11.8839 25.1719
Au 25.6635 14.0743 25.975
Au 27.4431 16.2603 26.7545
Au 29.2959 18.3291 27.2398
Au 30.7878 20.4285 28.2582
Au 24.2761 8.50987 23.5622
Au 26.4283 10.3036 24.4506
Au 28.1126 12.6194 25.1244
Au 29.8693 14.7585 25.8078
Au 31.3795 17.173 26.2112
Au 11.5967 14.6951 29.7215
Au 13.0542 16.8987 30.4074
Au 14.9375 18.6716 31.2539
Au 16.6298 20.6624 32.0886
Au 17.8918 23.0666 32.9004
Au 20.0141 24.5614 33.5522
Au 13.6788 13.5252 28.976
Au 15.3429 15.3724 29.916
Au 17.2432 17.4828 30.4846
Au 18.8592 19.585 31.1567
Au 20.2818 21.5941 32.2367
Au 22.2707 23.4923 32.7657
Au 15.7653 11.8943 28.0701
Au 17.4902 13.7749 28.9859
Au 19.243 15.8625 29.6161
Au 21.0285 18.1144 30.5269
Au 22.62 20.2316 31.1828
Au 24.481 22.3966 31.6301
Au 18.0233 10.3514 27.1041
Au 19.8915 12.105 27.9513
Au 21.7286 14.2599 28.8697
Au 23.4673 16.383 29.6396
Au 25.3382 18.7582 30.2263
Au 27.0118 20.8163 31.003
Au 20.4038 8.91906 26.2167
Au 22.2302 10.8154 27.1041
Au 23.7938 12.9135 27.8488
Au 25.6735 15.0404 28.6853
Au 27.4464 16.9977 29.5048
Au 29.0078 19.1154 30.257
Au 22.5713 7.6561 25.6539
Au 24.4572 9.38208 26.1471
Au 25.9941 11.6995 26.9627
Au 28.0337 13.6559 27.4768
Au 29.7799 15.7 28.1981
Au 31.0611 17.8196 29.1159
