64
 Atoms. Timestep: 50000
Au 18.3352 15.1792 21.5052
Au 20.8478 19.8693 17.3926
Au 24.9672 20.8332 22.6729
Au 18.8948 25.0316 21.5054
Au 22.1975 15.6569 18.2698
Au 23.8347 23.8312 19.4133
Au 20.0655 23.7358 16.8271
Au 17.0494 20.3873 16.8695
Au 22.4475 17.4892 16.4805
Au 16.7602 23.456 21.0746
Au 20.6386 24.2742 23.6054
Au 20.7583 20.2868 20.6917
Au 19.7863 16.247 23.3975
Au 25.4981 21.6139 19.971
Au 25.7071 19.863 18.0121
Au 18.2305 22.7932 23.1444
Au 23.4824 19.8978 16.4677
Au 21.1486 15.4738 21.0702
Au 20.7832 18.8428 23.5241
Au 25.4777 18.9442 20.5938
Au 22.9547 20.608 24.4492
Au 15.1746 21.2997 20.5684
Au 21.5204 17.9251 19.2412
Au 19.8064 17.1837 16.8861
Au 16.1092 19.14 21.8089
Au 19.1057 16.0446 19.027
Au 18.3448 24.1956 18.8696
Au 20.161 20.3938 25.5473
Au 22.0025 22.085 15.7706
Au 24.3125 17.647 18.3511
Au 15.9623 19.402 19.0563
Au 21.4557 19.5328 14.9257
Au 25.0334 23.6448 21.8427
Au 15.9703 21.4398 23.2155
Au 23.1016 19.1381 21.8371
Au 16.8349 17.1022 20.1408
Au 19.4438 21.378 15.4041
Au 18.5748 18.1829 25.0583
Au 20.0635 22.947 20.8739
Au 23.5974 23.0641 23.7512
Au 20.9809 24.9923 19.4336
Au 15.977 18.933 24.549
Au 22.5196 24.3615 17.0744
Au 17.9938 21.0235 20.5998
Au 18.7852 18.9358 18.8999
Au 22.8355 21.9285 21.4709
Au 16.2968 22.5029 18.6579
Au 18.7805 21.6064 18.1079
Au 17.5738 20.8101 25.4069
Au 19.0695 22.894 25.6779
Au 18.7557 18.8641 15.5802
Au 17.0596 17.1667 23.039
Au 22.2595 24.6159 21.5562
Au 22.3817 16.675 23.0338
Au 17.1087 17.3549 17.5405
Au 24.2292 22.162 17.4887
Au 17.479 23.1786 16.306
Au 19.3732 17.6927 21.2832
Au 23.5193 16.6257 20.7788
Au 20.8626 21.6991 23.2111
Au 21.5141 22.8033 25.579
Au 23.2402 20.0988 19.2568
Au 18.5103 20.0913 23.0135
Au 21.7346 22.2033 18.6211
