686
 Atoms. Timestep: 50000
Au 21.6897 14.4752 33.1362
Au 21.5108 15.5242 30.6563
Au 21.2854 16.8128 28.1967
Au 20.9735 17.9663 25.8518
Au 20.645 19.2335 23.0852
Au 20.489 20.4115 20.3957
Au 20.0542 21.5347 17.5571
Au 20.0051 22.8981 15.0587
Au 19.5711 23.9969 12.5491
Au 19.3368 24.9933 9.75998
Au 19.2329 25.9147 7.27758
Au 19.2429 14.9446 32.2876
Au 18.9403 16.0273 29.8336
Au 18.721 17.3147 27.3105
Au 18.248 18.5551 24.6251
Au 17.9175 19.7406 22.182
Au 17.766 21.036 19.335
Au 17.4588 22.1691 16.5414
Au 17.2349 23.4717 13.9968
Au 17.0545 24.4282 11.4435
Au 16.8276 25.8081 8.89799
Au 20.9794 16.9955 32.9592
Au 20.6443 18.2398 30.6613
Au 20.5463 19.6322 27.8439
Au 20.1783 20.6042 25.355
Au 19.6147 21.9484 22.7496
Au 19.5838 22.9966 20.0369
Au 19.4202 24.452 17.3568
Au 19.0279 25.5215 14.7578
Au 18.8311 26.6466 12.0684
Au 18.5244 27.7811 9.56941
Au 23.7012 16.1252 32.6129
Au 23.5425 17.5246 30.3793
Au 23.2826 18.8418 27.3504
Au 22.9982 19.9501 24.7268
Au 22.358 21.2756 22.0453
Au 22.258 22.4143 19.3833
Au 22.164 23.5653 16.8826
Au 21.7814 24.7519 14.0845
Au 21.68 25.9434 11.5381
Au 21.3213 27.0022 8.8419
Au 23.542 13.8353 31.2831
Au 23.391 15.0072 28.7555
Au 22.8518 16.0114 26.2003
Au 22.7513 17.1989 23.5575
Au 22.3678 18.433 20.9519
Au 22.2533 19.6647 18.1536
Au 22.0608 21.0549 15.645
Au 21.6751 22.1624 12.7832
Au 21.4847 23.0864 10.2556
Au 21.1537 24.1133 7.84116
Au 20.9932 12.9676 31.0968
Au 20.5885 14.0254 28.6634
Au 20.2793 15.1236 26.0848
Au 19.9735 16.4329 23.6236
Au 19.6436 17.601 21.0068
Au 19.5217 18.8285 18.2828
Au 19.173 20.1261 15.4729
Au 18.8368 21.4069 12.8798
Au 18.8307 22.3455 10.2334
Au 18.3279 23.4926 7.71835
Au 16.7186 15.4451 31.137
Au 16.3131 16.6604 28.8422
Au 16.0418 17.968 26.2628
Au 15.5696 19.0835 23.5215
Au 15.4147 20.195 20.9164
Au 15.3382 21.6388 18.1935
Au 14.8965 22.6668 15.4697
Au 14.7969 24.067 12.9556
Au 14.6676 25.0915 10.453
Au 18.3103 17.5958 32.0707
Au 18.0823 18.838 29.5376
Au 17.8249 20.0239 26.9771
Au 17.761 21.2566 24.4676
Au 17.2487 22.4409 21.5555
Au 17.0573 23.8294 18.8156
Au 16.5565 24.69 16.2665
Au 16.4853 26.2705 13.6872
Au 16.0902 27.2417 11.2292
Au 19.9504 19.5333 32.7474
Au 19.8884 21.0544 30.3258
Au 19.7285 22.2433 27.6068
Au 19.2005 23.4836 25.1157
Au 18.8726 24.6803 22.3487
Au 18.7567 25.828 19.6691
Au 18.4103 27.0573 17.0396
Au 18.0694 28.2407 14.347
Au 17.9236 29.465 11.975
Au 22.9067 19.1371 32.5217
Au 22.5943 20.3095 29.9957
Au 22.2876 21.4918 27.0575
Au 21.7894 22.8188 24.5308
Au 21.5975 24.0097 21.8024
Au 21.4917 25.1134 19.1984
Au 21.2366 26.3368 16.5263
Au 20.8262 27.5553 13.8
Au 20.6091 28.5215 11.2773
Au 25.5726 18.4177 31.8345
Au 25.3768 19.5252 29.309
Au 25.0599 20.7008 26.5575
Au 24.6188 21.8533 24.0102
Au 24.2481 23.113 21.1181
Au 24.3341 24.3432 18.4658
Au 23.826 25.4486 15.804
Au 23.625 26.613 13.2064
Au 23.148 27.9194 10.6689
Au 25.6356 15.7979 30.7614
Au 25.2983 16.9072 28.0993
Au 24.9356 18.0674 25.1745
Au 24.6221 19.2529 22.6282
Au 24.2975 20.4199 20.0924
Au 24.277 21.6875 17.4444
Au 23.7969 22.8659 14.7008
Au 23.6481 23.9095 11.9077
Au 23.1309 25.161 9.35485
Au 25.2562 13.2598 29.3376
Au 25.0466 14.2023 26.8108
Au 24.692 15.4144 24.2304
Au 24.6217 16.531 21.5606
Au 24.3234 17.8198 19.0102
Au 23.9633 19.085 16.2898
Au 23.7838 20.3361 13.4298
Au 23.7206 21.331 10.9074
Au 23.4088 22.6164 8.35786
Au 22.6869 12.0851 29.1912
Au 22.5509 13.1584 26.6285
Au 22.0075 14.3115 23.929
Au 21.7129 15.6975 21.5187
Au 21.4956 17.1472 18.8153
Au 21.3513 18.2472 16.0254
Au 20.8799 19.5655 13.3334
Au 20.8 20.3924 10.7073
Au 20.5655 21.613 8.0544
Au 19.8707 11.3533 29.1295
Au 19.748 12.4614 26.5246
Au 19.2435 13.5432 23.9092
Au 18.9554 14.978 21.4826
Au 18.807 15.9894 18.6098
Au 18.4719 17.2563 16.1689
Au 18.2424 18.4729 13.463
Au 17.9316 19.6878 10.6586
Au 17.6531 20.9086 8.25521
Au 18.2696 13.2952 30.0782
Au 17.9029 14.6337 27.6787
Au 17.8123 15.7175 25.0378
Au 17.4041 16.9366 22.4711
Au 17.1413 18.2056 19.7388
Au 16.9932 19.3879 17.1352
Au 16.5571 20.5724 14.1478
Au 16.2478 21.8866 11.6395
Au 16.1477 23.0331 9.20616
Au 13.9518 16.0157 30.2616
Au 13.7867 17.2008 27.6439
Au 13.174 18.467 25.0057
Au 13.061 19.6105 22.4069
Au 12.9303 20.7464 19.6313
Au 12.6648 22.07 17.0898
Au 12.2324 23.4663 14.3191
Au 12.2555 24.5283 11.8777
Au 15.8828 18.126 31.1762
Au 15.4733 19.4441 28.6052
Au 15.1011 20.527 25.9168
Au 15.0525 21.7868 22.9755
Au 14.6666 23.0478 20.5024
Au 14.2719 24.2142 17.78
Au 14.0305 25.6143 15.3345
Au 13.8474 26.6918 12.8078
Au 17.3076 20.3317 31.8062
Au 17.4919 21.6818 29.2685
Au 16.9658 22.6699 26.631
Au 16.7283 23.9309 23.8453
Au 16.2829 25.1938 21.243
Au 16.0579 26.5681 18.6467
Au 15.6886 27.7847 16.1025
Au 15.5099 28.8849 13.4696
Au 19.4267 22.3766 32.6384
Au 19.1497 23.8258 30.1288
Au 18.7296 25.0082 27.5311
Au 18.2255 26.2459 24.9288
Au 17.9889 27.2128 22.184
Au 17.6249 28.5566 19.5134
Au 17.6531 29.7498 16.7778
Au 17.5676 30.8647 14.2883
Au 21.9696 21.9229 32.2203
Au 21.7863 22.9911 29.4494
Au 21.3779 24.1736 26.7989
Au 20.9263 25.4258 24.1154
Au 20.8156 26.6754 21.4942
Au 20.4399 27.6134 18.6426
Au 20.1841 29.0089 16.0263
Au 20.2209 30.3231 13.4324
Au 24.7183 21.1444 31.6991
Au 24.3648 22.3227 29.1145
Au 24.061 23.3393 26.4617
Au 23.7326 24.646 23.4979
Au 23.5628 25.7805 20.8072
Au 23.3546 27.2106 18.1818
Au 22.9772 28.3068 15.4712
Au 22.7073 29.3592 12.8374
Au 27.3588 20.4163 30.7527
Au 27.0176 21.6653 28.1158
Au 26.7449 22.5934 25.415
Au 26.351 23.8158 22.8254
Au 26.2729 25.0948 20.3122
Au 25.9692 26.6064 17.5473
Au 25.684 27.6498 14.8155
Au 25.5111 28.3832 12.3631
Au 27.3391 17.6709 29.7227
Au 27.0698 18.833 27.288
Au 26.872 19.9021 24.4448
Au 26.4809 21.249 21.7747
Au 26.225 22.3172 19.1215
Au 25.9193 23.7777 16.3212
Au 25.7829 24.8174 13.5665
Au 25.2563 26.0769 11.0432
Au 27.34 15.0061 28.5648
Au 26.9449 16.2241 25.9493
Au 26.6625 17.178 23.1822
Au 26.414 18.6146 20.5838
Au 26.2631 19.7897 17.9096
Au 25.8649 20.9921 15.1953
Au 25.9446 22.1645 12.4745
Au 25.5271 23.41 9.85762
Au 27.1665 12.3391 27.1445
Au 26.821 13.5992 24.7722
Au 26.67 14.5038 22.0598
Au 26.3463 15.8852 19.4119
Au 25.9702 17.131 16.808
Au 25.9824 18.4809 14.0724
Au 25.7203 19.3737 11.3504
Au 25.4057 20.7889 8.7929
Au 24.6681 11.3477 27.0241
Au 24.3619 12.4877 24.5661
Au 23.8804 13.8752 22.0754
Au 23.4694 15.1686 19.216
Au 23.2377 16.3816 16.6043
Au 23.1188 17.7923 13.9828
Au 23.1285 18.586 11.1792
Au 22.7495 19.9446 8.74401
Au 21.7078 10.591 27.0612
Au 21.3478 11.658 24.3074
Au 21.271 13.0343 21.7993
Au 20.8236 14.3323 19.2943
Au 20.6952 15.5652 16.3529
Au 20.4284 16.606 13.9308
Au 20.1029 17.7525 11.247
Au 19.7585 18.8489 8.6461
Au 18.8549 9.93206 26.9059
Au 18.6514 10.7568 24.321
Au 18.5216 11.8757 21.8316
Au 18.099 13.2858 19.2924
Au 17.9373 14.3928 16.4069
Au 17.6887 15.6843 14.0304
Au 17.3327 16.8327 11.3575
Au 17.1385 18.0993 8.70374
Au 17.1922 11.9815 28.0461
Au 17.0385 13.1632 25.4993
Au 16.7415 14.2274 22.9299
Au 16.5608 15.6277 20.1778
Au 16.1252 16.5456 17.4891
Au 15.9545 17.8791 14.8504
Au 15.4942 19.0818 12.1706
Au 15.3589 20.2467 9.5778
Au 15.545 13.7009 29.2523
Au 15.4081 14.9902 26.7791
Au 15.144 16.3639 24.0845
Au 14.7815 17.4342 21.3813
Au 14.6759 18.7004 18.566
Au 14.4611 20.0598 15.9352
Au 13.9612 21.2899 13.101
Au 13.7191 22.4788 10.6842
Au 11.5061 16.6905 29.063
Au 11.1389 18.2381 26.8085
Au 10.7443 19.1057 23.9527
Au 10.5547 20.4704 21.4696
Au 10.3461 21.246 18.8421
Au 10.1691 22.6523 15.9364
Au 9.84357 24.0199 13.4409
Au 13.3569 18.7371 30.0452
Au 12.9175 20.2587 27.4993
Au 12.5997 21.337 24.6383
Au 12.3653 22.5803 21.9463
Au 12.0484 23.5635 19.1858
Au 11.7262 25.1025 16.6797
Au 11.5468 26.166 14.0667
Au 14.9342 21.0673 30.7468
Au 14.8758 22.2657 28.2407
Au 14.4721 23.2493 25.5623
Au 14.0906 24.4429 22.9559
Au 13.7277 25.5829 20.1654
Au 13.4908 27.0449 17.7934
Au 13.1574 28.1802 14.9804
Au 16.8289 22.9322 31.4299
Au 16.5415 24.4207 29.0349
Au 16.0046 25.3042 26.4764
Au 15.7457 26.5675 23.7637
Au 15.3968 27.7111 21.0413
Au 15.1545 29.2758 18.3391
Au 15.081 30.5952 15.8266
Au 18.3417 25.1667 32.1948
Au 18.0692 26.5855 30.1588
Au 17.8173 27.8626 27.2048
Au 17.507 29.0423 24.5396
Au 17.2958 30.188 21.889
Au 16.9796 31.393 19.3266
Au 16.8614 32.4139 16.735
Au 21.0701 24.5945 31.882
Au 20.9279 25.8217 29.2331
Au 20.3868 27.0325 26.4712
Au 20.0286 28.0306 23.7628
Au 19.8146 29.1777 21.3098
Au 19.6769 30.46 18.4057
Au 19.537 31.7926 15.7976
Au 23.8329 23.7575 31.2576
Au 23.5778 25.0971 28.6881
Au 23.0779 26.0389 25.8117
Au 22.7654 27.4161 23.102
Au 22.6003 28.5535 20.5184
Au 22.3267 29.6827 17.6966
Au 22.3389 31.0251 15.1621
Au 26.6726 23.0259 30.823
Au 26.2339 24.2376 27.9636
Au 25.7129 25.2691 25.2791
Au 25.6355 26.3748 22.6322
Au 25.461 27.6056 20.063
Au 25.0351 29.1482 17.1359
Au 24.9205 30.1887 14.5535
Au 29.1499 22.289 29.5888
Au 28.841 23.4458 27.1069
Au 28.4116 24.5799 24.3964
Au 28.501 25.9907 21.9258
Au 28.0995 27.1324 19.3675
Au 27.9822 28.3492 16.6039
Au 27.5627 29.1011 14.0319
Au 29.1314 19.7718 28.8071
Au 28.9226 20.598 26.0589
Au 28.6206 21.7882 23.3759
Au 28.3121 22.9873 20.6964
Au 28.0503 24.4354 18.0652
Au 27.7032 25.8303 15.4608
Au 27.594 26.6759 12.7459
Au 28.9744 17.0172 27.5457
Au 28.726 18.0118 24.901
Au 28.4415 19.1285 22.3133
Au 28.2561 20.3151 19.7202
Au 27.9348 21.9208 16.9935
Au 27.7905 23.0459 14.3403
Au 27.5863 24.0795 11.5789
Au 28.9622 14.4348 26.363
Au 28.9395 15.3682 23.7504
Au 28.5032 16.5352 21.2558
Au 28.2856 17.8408 18.6785
Au 27.9778 19.0218 15.9632
Au 27.8436 20.2805 13.3231
Au 27.5201 21.3637 10.34
Au 28.7948 11.7492 24.9799
Au 28.7581 12.8378 22.506
Au 28.444 14.1459 19.729
Au 28.0339 15.2468 17.3126
Au 27.8177 16.3007 14.7102
Au 27.8319 17.5522 11.8962
Au 27.4854 18.6577 9.22024
Au 26.3579 10.5661 24.9958
Au 26.1187 11.911 22.404
Au 25.7287 13.1911 19.7138
Au 25.3351 14.3215 17.2123
Au 25.1965 15.643 14.6038
Au 25.001 16.7152 11.7661
Au 24.806 18.0939 9.07504
Au 23.5632 9.97008 24.8329
Au 23.3663 11.1598 22.4279
Au 22.9121 12.2901 19.6938
Au 22.5588 13.5327 17.1525
Au 22.5406 14.6345 14.4901
Au 22.0954 15.9466 11.8423
Au 21.9359 17.4008 9.02631
Au 20.5091 8.9907 24.9809
Au 20.4579 10.0547 22.243
Au 20.329 11.4087 19.6462
Au 19.8706 12.6686 17.1625
Au 19.7561 13.8445 14.5624
Au 19.3789 14.8924 11.7676
Au 19.2164 16.2232 9.10926
Au 17.8274 8.17756 24.7821
Au 17.7224 9.2219 22.0729
Au 17.4898 10.5788 19.3829
Au 17.2481 11.706 17.0101
Au 16.9513 12.86 14.4521
Au 16.5049 14.2331 12.0439
Au 16.2422 15.5157 9.25006
Au 16.3181 10.4003 25.7855
Au 16.017 11.5161 23.2417
Au 15.9003 12.6436 20.5441
Au 15.6828 13.9045 18.0353
Au 15.2363 15.06 15.3788
Au 14.9618 16.4135 12.7294
Au 14.6844 17.6352 10.2628
Au 14.4903 12.2181 26.9151
Au 14.2095 13.5754 24.3613
Au 14.1471 14.583 21.6279
Au 13.801 15.832 19.0349
Au 13.7081 17.0378 16.3915
Au 13.2297 18.5188 13.8554
Au 12.7873 19.8231 11.2467
Au 13.0658 14.3406 28.1967
Au 12.7491 15.5476 25.7432
Au 12.5292 16.9023 22.6606
Au 12.3193 18.0142 20.1618
Au 12.1698 19.1527 17.4105
Au 11.6798 20.7381 14.8978
Au 11.3597 21.9145 12.4305
Au 8.9254 17.3229 27.9935
Au 8.58645 18.6758 25.673
Au 8.243 19.8404 22.992
Au 8.03552 20.8469 20.3184
Au 7.71924 22.0418 17.6715
Au 7.74161 23.4101 15.2438
Au 10.6716 19.5114 29.086
Au 10.4176 20.8811 26.2448
Au 10.1609 22.0951 23.7562
Au 9.86154 23.3317 20.9682
Au 9.442 24.1777 18.4315
Au 9.24992 25.4628 15.7714
Au 12.3844 21.5446 29.6319
Au 12.0382 22.842 27.0123
Au 11.7102 24.2021 24.4745
Au 11.6255 25.308 21.7506
Au 11.1923 26.4455 19.053
Au 10.7999 27.8836 16.3724
Au 13.979 23.8151 30.6198
Au 13.6825 24.9372 27.9764
Au 13.3001 26.2528 25.1738
Au 13.1806 27.2692 22.733
Au 12.8744 28.4855 19.9801
Au 12.6913 29.7812 17.4662
Au 15.8249 25.7104 31.3913
Au 15.6633 27.0004 28.6974
Au 15.2627 28.1184 26.0847
Au 14.9554 29.2665 23.395
Au 14.7466 30.4257 20.97
Au 14.3944 32.04 18.1186
Au 18.0663 28.4634 32.1581
Au 17.3821 29.363 29.4522
Au 17.2762 30.7227 26.7996
Au 16.8558 31.7821 24.18
Au 16.6714 32.8612 21.6892
Au 16.2517 33.8629 19.2056
Au 20.2744 27.2556 31.5146
Au 20.0104 28.4541 28.8576
Au 19.8468 29.6839 26.1151
Au 19.5206 30.8566 23.5826
Au 19.3189 32.1014 20.8408
Au 19.0476 33.041 18.1504
Au 22.9898 26.4017 30.9671
Au 22.7515 27.7108 28.0492
Au 22.6445 29.1306 25.5591
Au 22.0549 30.0815 22.8167
Au 21.7688 31.1507 20.046
Au 21.6254 32.5059 17.6814
Au 25.7344 25.7336 30.4467
Au 25.4232 26.9074 27.5097
Au 25.0668 28.1159 25.0882
Au 24.9317 29.1375 22.3241
Au 24.425 30.4131 19.5407
Au 24.3097 31.7448 16.8738
Au 28.4573 24.937 29.6548
Au 28.1658 26.2694 26.7983
Au 27.5454 27.1844 24.1687
Au 27.4462 28.5466 21.7241
Au 27.1812 29.8188 18.8582
Au 27.0877 30.936 16.1973
Au 30.856 24.3138 28.5302
Au 30.813 25.4076 26.1901
Au 30.4814 26.6286 23.6835
Au 30.4426 27.8979 21.0045
Au 30.0533 28.9467 18.6202
Au 29.7449 29.9689 15.8795
Au 30.8392 21.5055 27.7489
Au 30.6054 22.7007 25.1569
Au 30.4368 23.9571 22.5168
Au 30.0444 25.238 19.8106
Au 29.8828 26.4225 17.2801
Au 29.7907 27.35 14.5478
Au 30.8234 18.6748 26.583
Au 30.6779 19.8474 23.9832
Au 30.5302 21.0702 21.3759
Au 30.0132 22.4761 18.8161
Au 29.8783 23.7007 16.126
Au 29.5258 24.793 13.4161
Au 30.8833 16.0453 25.4314
Au 30.7242 17.3353 22.8099
Au 30.4837 18.3811 20.2552
Au 30.2037 19.7205 17.5513
Au 29.7604 21.0206 15.2147
Au 29.4466 22.103 12.2686
Au 30.8834 13.5358 24.2801
Au 30.6581 14.6982 21.6081
Au 30.4307 15.8736 19.0137
Au 29.8691 17.0912 16.4614
Au 29.7778 18.2547 13.9463
Au 29.3675 19.5144 11.152
Au 30.8589 11.0594 22.7725
Au 30.5333 12.1529 20.2197
Au 30.3057 13.5003 17.7368
Au 29.961 14.4666 15.2438
Au 29.9576 15.7622 12.8394
Au 29.4086 16.6493 10.279
Au 28.1163 10.0504 22.8342
Au 27.737 11.3199 20.2596
Au 27.4511 12.3922 17.5848
Au 27.0625 13.504 14.8923
Au 26.9712 14.9161 12.4262
Au 26.7691 15.98 9.79609
Au 25.2671 9.25302 23.0343
Au 24.9332 10.4805 20.352
Au 24.8248 11.4099 17.7858
Au 24.4619 12.4677 15.1838
Au 24.2983 13.87 12.3886
Au 23.9961 15.6118 9.61915
Au 22.7164 8.34016 23.1327
Au 22.3232 9.5481 20.3353
Au 22.0996 10.7277 17.4952
Au 21.7315 11.7621 14.9455
Au 21.4429 13.0662 12.3844
Au 21.2492 14.4975 9.65645
Au 19.869 7.34164 23.0172
Au 19.5838 8.77984 19.8089
Au 19.4614 9.9253 17.2854
Au 19.0443 10.9146 14.805
Au 18.6831 12.2772 12.4228
Au 18.136 13.5053 9.7429
Au 16.8931 6.81053 22.5967
Au 16.6441 7.91594 19.9083
Au 16.5057 8.85971 17.4284
Au 16.1685 10.1325 14.9186
Au 15.7954 11.2452 12.4613
Au 15.6566 12.698 10.1274
Au 15.3644 8.8341 23.8267
Au 15.1116 10.0105 21.0673
Au 14.8669 11.0801 18.5296
Au 14.5839 12.2073 16.037
Au 14.1749 13.4172 13.4133
Au 14.0572 14.6644 10.8584
Au 13.5879 10.8804 24.7216
Au 13.5269 12.1283 22.0302
Au 13.0974 13.1292 19.4464
Au 12.787 14.3456 16.9967
Au 12.6078 15.7262 14.3268
Au 12.3689 17.0125 11.8417
Au 12.0061 12.8422 25.8635
Au 11.8356 14.2469 23.2382
Au 11.6147 15.245 20.5602
Au 11.2254 16.6127 17.9276
Au 10.8279 17.8864 15.4431
Au 10.6191 19.2898 12.8669
Au 10.5335 14.8506 27.1728
Au 10.4572 16.4687 24.6481
Au 10.119 17.698 21.6715
Au 9.69496 18.7038 19.0509
Au 9.24068 19.934 16.5121
Au 9.01147 21.1558 14.1134
Au 8.46769 19.9872 27.8165
Au 7.87466 21.32 25.1579
Au 7.66544 22.4415 22.6798
Au 7.27109 23.3952 20.2141
Au 7.19329 24.773 17.5493
Au 10.0042 22.2957 28.7649
Au 9.39943 23.4233 25.9256
Au 9.08723 24.7315 23.3935
Au 8.95539 25.9918 20.7324
Au 8.77397 26.9114 18.0307
Au 11.5841 24.1992 29.3541
Au 11.1759 25.6444 26.6525
Au 10.8392 26.8805 24.0342
Au 10.6558 27.8651 21.4472
Au 10.3866 28.9502 18.8741
Au 13.5212 26.37 30.2685
Au 12.9801 27.6706 27.6553
Au 12.66 28.8767 25.0285
Au 12.3242 29.7763 22.415
Au 12.4389 31.1528 19.8821
Au 15.3043 28.3972 30.9516
Au 14.9685 29.5443 28.3298
Au 14.8476 30.9732 25.653
Au 14.0674 31.8358 23.2307
Au 14.1088 32.9304 20.7158
Au 19.6945 30.0111 30.9221
Au 19.5979 31.1477 28.263
Au 19.2171 32.5572 25.8436
Au 19.0163 33.4356 23.3569
Au 18.4133 34.5532 20.5164
Au 22.2573 28.9234 30.4117
Au 22.105 30.1408 27.9194
Au 21.6707 31.8587 25.0391
Au 21.5056 32.8543 22.4398
Au 21.0662 33.9072 19.8678
Au 24.8712 28.3974 29.6693
Au 25.0261 29.4569 27.2531
Au 24.3674 30.8133 24.6249
Au 23.8926 31.8672 21.8857
Au 23.6075 32.9202 19.1803
Au 27.577 27.5432 29.0092
Au 27.531 29.1086 26.3401
Au 26.7533 30.1904 23.9666
Au 26.5492 31.3329 21.2582
Au 26.3539 32.1388 18.473
Au 30.2262 26.9368 28.4309
Au 29.8222 27.9406 25.8372
Au 29.3752 29.0779 23.2711
Au 29.2169 30.3091 20.6937
Au 29.0047 31.413 18.0048
Au 32.6397 23.5859 26.8129
Au 32.3449 24.6383 24.1062
Au 32.2231 25.8101 21.3422
Au 32.0492 27.1361 19.095
Au 31.8073 27.7252 16.1992
Au 32.4914 20.8617 25.7943
Au 32.3134 21.815 23.0163
Au 32.2638 23.2169 20.477
Au 31.9772 24.448 18.0422
Au 31.7937 25.2483 15.3149
Au 32.545 18.1274 24.6433
Au 32.4835 19.142 21.9427
Au 32.3209 20.5414 19.3276
Au 31.8142 21.8914 16.9515
Au 31.6209 22.6697 14.1982
Au 32.7819 15.5249 23.2274
Au 32.5258 16.7141 20.6691
Au 32.1322 17.9237 18.0419
Au 31.8406 19.0549 15.5209
Au 31.2493 20.2791 12.9628
Au 32.5092 13.0624 21.932
Au 32.3688 14.1372 19.5294
Au 32.1466 15.4808 17.0198
Au 31.7947 16.503 14.7418
Au 31.3486 17.5861 11.9471
Au 29.7901 9.70116 20.7255
Au 29.5612 10.7412 18.1951
Au 29.3013 11.7724 15.5172
Au 29.0476 12.9884 13.1673
Au 28.786 14.0663 10.7666
Au 26.8165 8.71043 20.774
Au 26.9009 9.65769 18.2805
Au 26.442 10.6305 15.5463
Au 26.1424 11.8601 12.9281
Au 25.878 13.3474 10.405
Au 24.2384 7.98027 20.898
Au 24.2003 8.93959 18.2087
Au 23.7538 9.86666 15.4217
Au 23.4419 11.2842 12.7378
Au 23.2136 12.7991 10.2485
Au 21.3715 7.22469 20.8932
Au 21.5236 7.93591 18.1053
Au 21.001 8.9702 15.2268
Au 20.804 10.3989 12.6487
Au 20.2503 11.7667 10.4114
Au 18.7705 6.57235 20.7996
Au 18.8136 7.4135 17.8135
Au 18.3628 8.33198 15.2069
Au 17.9585 9.52944 12.916
Au 17.6992 10.8678 10.5193
Au 14.7089 7.35671 21.7441
Au 14.0591 8.66 19.0568
Au 13.9295 9.69637 16.4375
Au 13.4383 10.8307 13.9995
Au 13.2339 12.1116 11.5439
Au 12.9361 9.40626 22.4543
Au 12.3352 10.5613 20.0241
Au 12.1978 11.5794 17.3148
Au 11.8727 13.0143 14.832
Au 11.748 14.4627 12.1532
Au 11.1966 11.7239 23.6278
Au 10.9117 12.6644 21.0425
Au 10.5176 13.9368 18.38
Au 10.2254 15.2416 15.7569
Au 10.2572 16.6999 13.1247
Au 9.52276 13.7455 24.7099
Au 9.28974 14.9146 22.0915
Au 8.96834 16.111 19.5641
Au 8.62816 17.1779 17.1448
Au 8.39174 18.2729 14.5159
Au 8.22037 15.8589 25.8121
Au 8.19905 16.9449 23.4822
Au 7.62518 18.2225 20.8957
Au 7.12024 19.2518 18.3425
Au 6.93697 20.5459 15.5476
