699
 Atoms. Timestep: 50000
Au 6.43264 20.5554 21.2285
Au 7.77241 22.6105 22.091
Au 9.67559 24.6864 22.8768
Au 11.1434 26.6152 23.987
Au 12.8729 28.7877 24.7219
Au 14.7512 30.648 25.4253
Au 16.505 32.5869 26.0049
Au 6.47065 16.6304 19.645
Au 8.30816 18.7928 20.3919
Au 10.0986 20.918 21.0815
Au 11.8411 23.1499 22.0722
Au 13.3418 25.0892 22.9287
Au 15.2291 27.3169 23.5565
Au 16.8995 29.2688 24.2998
Au 18.8419 31.3521 25.2107
Au 20.3749 33.4208 26.2383
Au 7.27877 13.0999 17.9295
Au 9.22912 14.9021 18.7047
Au 10.9211 17.095 19.669
Au 12.4076 19.3936 20.3625
Au 13.9971 21.5625 21.1295
Au 15.8214 23.7248 21.7964
Au 17.4478 25.9497 22.5969
Au 19.2186 27.9306 23.3467
Au 21.0399 30.0108 24.2854
Au 22.6814 32.0698 25.0881
Au 24.4806 33.8975 25.8804
Au 9.40628 11.6277 17.1425
Au 11.2151 13.5453 17.8978
Au 12.9417 15.4837 18.7168
Au 14.6714 17.6537 19.5402
Au 16.2804 19.8491 20.2767
Au 18.0281 22.1288 21.0916
Au 19.8219 24.4812 21.9624
Au 21.4748 26.497 22.7747
Au 23.2641 28.4865 23.4567
Au 25.0386 30.6858 24.1755
Au 26.5793 32.6237 24.9079
Au 11.7838 9.88948 15.8843
Au 13.2594 12.034 16.8415
Au 15.2815 13.946 17.8246
Au 16.8966 16.0694 18.5458
Au 18.5892 18.4094 19.2965
Au 20.3619 20.4081 19.9572
Au 22.233 22.6161 20.9169
Au 23.7688 24.8781 21.6376
Au 25.577 26.9261 22.6979
Au 27.3116 29.2099 23.209
Au 28.8718 31.2025 23.8812
Au 14.0459 8.37179 15.4395
Au 15.6043 10.2808 16.115
Au 17.3933 12.3822 16.8879
Au 19.0139 14.4101 17.8011
Au 21.0038 16.8436 18.4854
Au 22.8507 18.8966 19.2177
Au 24.4775 20.984 20.0791
Au 26.2746 23.2179 20.6765
Au 27.8523 25.4915 21.5283
Au 29.5184 27.7268 22.4441
Au 31.2424 29.6385 23.0551
Au 16.2835 7.30256 14.7966
Au 17.9656 9.10618 15.4676
Au 19.6283 11.3017 16.1164
Au 21.4489 13.2579 16.9143
Au 23.3211 15.2298 17.6352
Au 25.0612 17.1418 18.3584
Au 26.5667 19.3389 19.1008
Au 28.3867 21.626 19.8911
Au 30.1593 23.8189 20.6193
Au 31.7143 26.0532 21.4024
Au 33.2268 28.1778 22.0021
Au 20.1871 7.45678 14.4977
Au 21.9836 9.59833 15.3351
Au 23.9255 11.8327 16.0687
Au 25.7012 13.7894 16.5983
Au 27.5 15.8211 17.4276
Au 29.0411 17.7454 18.3252
Au 30.4845 19.9729 19.1363
Au 32.3611 22.1118 19.8513
Au 33.9466 24.5603 20.5462
Au 24.0504 8.36105 14.5984
Au 25.8147 10.0512 15.2623
Au 27.6154 12.1553 15.7112
Au 29.4456 14.1484 16.6332
Au 31.1794 16.3015 17.2558
Au 32.9181 18.4762 17.9831
Au 34.361 20.5255 18.7843
Au 6.27526 19.3261 18.7034
Au 7.90805 21.5524 19.361
Au 9.68327 23.4638 20.2348
Au 11.2493 25.7396 20.9556
Au 12.9738 27.6388 21.8384
Au 14.4789 29.8885 22.3606
Au 16.3528 31.8463 23.4844
Au 18.081 33.8645 24.1616
Au 6.77294 15.6175 17.237
Au 8.59269 17.555 18.0746
Au 10.2338 19.7333 18.6097
Au 11.9651 22.1077 19.3622
Au 13.5069 24.2261 20.0444
Au 15.1421 26.1997 20.9012
Au 16.9287 28.5457 21.7184
Au 18.7676 30.8896 22.4774
Au 20.4963 32.6941 23.5184
Au 22.3041 34.5351 24.173
Au 9.16206 14.1074 16.1098
Au 10.8134 16.2917 16.8734
Au 12.5728 18.4741 17.5953
Au 14.3727 20.4604 18.4885
Au 16.0435 22.489 19.1499
Au 17.8136 24.8832 20.1331
Au 19.352 27.0958 20.7867
Au 21.1579 29.1036 21.5468
Au 23.0313 31.2747 22.4586
Au 24.6328 33.3636 23.1566
Au 11.1653 12.3895 15.1596
Au 13.0994 14.5751 15.9439
Au 14.8 16.7151 16.7739
Au 16.4894 18.7995 17.682
Au 18.2101 20.9378 18.3156
Au 19.9165 23.0126 19.4373
Au 21.689 25.4551 19.9212
Au 23.5545 27.6064 20.8972
Au 25.2259 29.8555 21.5206
Au 26.9368 31.8627 22.2613
Au 13.509 11.0501 14.2356
Au 15.297 12.9429 14.9856
Au 16.8393 14.9959 15.965
Au 18.8696 17.1201 16.886
Au 20.6336 19.285 17.3248
Au 22.3688 21.5134 18.1521
Au 24.0712 23.8642 19.0423
Au 25.7885 25.9589 19.869
Au 27.4737 28.111 20.5104
Au 29.0926 30.3222 21.3712
Au 15.8092 9.40133 13.4175
Au 17.5256 11.4741 14.1558
Au 19.1308 13.6767 14.9801
Au 21.0076 15.821 15.8534
Au 22.9174 17.8464 16.5337
Au 24.5671 19.9979 17.1582
Au 26.1053 22.1771 18.0116
Au 27.9538 24.4145 18.7944
Au 29.6698 26.5136 19.6931
Au 31.2451 28.6867 20.3889
Au 18.2248 8.14815 12.852
Au 20.022 10.066 13.2874
Au 21.4414 12.2148 14.1265
Au 23.4056 14.342 14.9928
Au 25.175 16.3756 15.5631
Au 26.6366 18.449 16.5032
Au 28.4653 20.4976 17.1529
Au 29.9054 22.7168 17.9169
Au 31.7952 24.7377 18.6625
Au 33.3642 26.9097 19.5144
Au 22.0292 8.46692 12.5654
Au 23.6379 10.816 13.1618
Au 25.5202 12.707 13.9516
Au 27.5451 14.8248 14.672
Au 28.9274 16.9827 15.503
Au 30.7407 19.0274 16.2117
Au 32.35 21.2444 17.1861
Au 34.0659 23.3359 17.9496
Au 25.7387 9.30819 12.5761
Au 27.6068 11.0925 13.4017
Au 29.5303 13.3426 14.0503
Au 31.0819 15.7827 14.602
Au 32.7896 17.7157 15.3164
Au 34.4464 19.9623 16.104
Au 6.55994 18.0531 16.3414
Au 8.20939 20.3145 16.894
Au 9.88484 22.3646 17.5796
Au 11.2401 24.7446 18.3005
Au 12.944 26.9806 19.1592
Au 14.8128 28.8367 19.866
Au 16.493 31.3085 20.6985
Au 18.1887 33.2002 21.3051
Au 20.0493 34.8271 22.2032
Au 8.50163 16.4415 15.2258
Au 10.3586 18.6189 15.8089
Au 12.2772 21.0141 16.8091
Au 13.8343 23.2575 17.4362
Au 15.3222 25.4089 18.2168
Au 17.0871 27.3621 19.1673
Au 18.7731 29.7749 19.8712
Au 20.6688 31.9378 20.6166
Au 22.4801 33.9023 21.3969
Au 10.9502 15.0757 14.3894
Au 12.7299 17.4056 14.987
Au 14.3171 19.5834 15.5661
Au 16.0291 21.4457 16.5291
Au 17.7823 23.7867 17.5408
Au 19.4871 25.8698 18.2898
Au 21.2603 27.9256 18.878
Au 23.0495 30.0962 19.7639
Au 24.7015 32.428 20.4306
Au 13.1371 13.6011 13.2238
Au 14.6772 15.6321 14.0661
Au 16.5277 17.8203 14.7878
Au 18.1683 19.867 15.6127
Au 20.049 22.2197 16.5704
Au 21.8037 24.1255 17.5068
Au 23.6188 26.6744 18.1738
Au 25.2208 28.7171 18.782
Au 26.8624 30.742 19.4693
Au 15.5331 12.0726 12.4273
Au 17.0207 14.3023 13.1147
Au 18.813 16.2475 14.1842
Au 20.3507 18.435 14.7761
Au 22.2981 20.6293 15.4634
Au 24.0705 22.6506 16.2478
Au 25.7524 24.8479 17.0883
Au 27.5087 27.1452 17.9743
Au 29.1922 29.2923 18.7518
Au 17.6479 10.5357 11.3139
Au 19.2239 12.6889 12.4196
Au 21.13 14.7544 13.1601
Au 23.0485 16.8097 13.8445
Au 24.5068 19.0607 14.4665
Au 26.3232 21.134 15.2504
Au 27.7716 23.2867 16.1248
Au 29.6164 25.4327 16.8706
Au 31.3256 27.5472 17.6616
Au 19.9048 9.22263 10.6451
Au 21.5711 11.3124 11.354
Au 23.3738 13.4193 12.1695
Au 25.1773 15.3316 12.9436
Au 26.771 17.4907 13.6939
Au 28.6055 19.5266 14.4324
Au 30.1312 21.726 15.2687
Au 31.9662 23.8189 16.0695
Au 33.5443 25.9283 16.9785
Au 23.8723 9.76821 10.4059
Au 25.6423 11.8538 11.3119
Au 27.4737 13.7144 12.035
Au 29.0463 15.981 12.7799
Au 30.7 18.187 13.4493
Au 32.3241 20.2558 14.3688
Au 33.9046 22.3794 15.1786
Au 8.23258 19.189 14.3458
Au 10.0172 21.2525 15.1436
Au 11.6587 23.6763 15.8286
Au 13.1899 25.953 16.4962
Au 15.0781 28.0082 17.2835
Au 16.6922 30.1145 18.1863
Au 18.5329 32.2697 18.7719
Au 20.3663 34.1857 19.5758
Au 10.1793 17.4602 13.2853
Au 12.1921 19.9113 13.752
Au 13.8403 22.0742 14.7776
Au 15.6459 24.3279 15.7332
Au 17.0989 26.4558 16.5452
Au 18.9929 28.5376 17.2622
Au 20.8927 30.7287 18.0914
Au 22.68 32.6871 18.7943
Au 12.5558 16.1975 12.5355
Au 14.4058 18.2434 12.9183
Au 16.2495 20.5695 13.8228
Au 17.8998 22.727 14.7838
Au 19.652 24.8913 15.5294
Au 21.3192 26.8225 16.2872
Au 23.1803 29.05 16.9945
Au 25.0283 31.3858 17.7527
Au 14.8714 14.7955 11.4465
Au 16.662 16.7779 11.9716
Au 18.3044 18.8961 12.7637
Au 19.9784 20.9941 13.9749
Au 21.9041 23.3769 14.7291
Au 23.5822 25.5881 15.4833
Au 25.4049 27.7401 16.0541
Au 27.0268 29.7258 16.8386
Au 17.0617 13.1226 10.2393
Au 18.8328 15.0644 11.1936
Au 20.4888 17.2502 12.2076
Au 22.2737 19.3789 12.9605
Au 24.1453 21.6578 13.6919
Au 25.6973 23.8106 14.2589
Au 27.5291 26.1063 15.1079
Au 29.2358 28.2393 16.0735
Au 19.4412 11.6956 9.58933
Au 21.1516 13.8053 10.327
Au 23.0002 15.9817 11.2232
Au 24.6845 17.9537 11.9556
Au 26.5135 20.0482 12.5752
Au 28.0181 22.1813 13.4016
Au 29.7134 24.3197 14.3353
Au 31.4446 26.4964 15.2515
Au 21.7366 10.2351 9.06248
Au 23.4659 12.333 9.54369
Au 25.2563 14.5101 10.4686
Au 26.991 16.6197 11.0733
Au 28.7236 18.7695 11.5666
Au 30.2436 20.7188 12.5019
Au 32.0785 22.9822 13.3107
Au 33.4877 24.9939 14.404
Au 9.97629 20.1842 12.6628
Au 11.6798 22.6217 13.1552
Au 13.5952 24.7201 14.138
Au 15.1044 27.0125 14.5814
Au 16.9442 28.9278 15.3914
Au 18.6615 31.2185 16.2948
Au 20.5148 33.0045 16.9844
Au 12.0818 18.6976 11.216
Au 13.9506 20.9023 11.999
Au 15.7404 23.2366 13.0467
Au 17.3179 25.2817 13.7073
Au 18.9386 27.5211 14.4922
Au 20.7908 29.6323 15.3611
Au 22.8189 31.7415 16.0579
Au 14.4496 17.2964 10.4674
Au 16.161 19.5314 11.1155
Au 18.118 21.6139 11.9556
Au 19.7287 23.8352 12.9216
Au 21.4119 25.8796 13.6654
Au 23.1384 28.2045 14.5067
Au 24.9162 30.4081 14.9939
Au 16.7275 15.6477 9.51102
Au 18.2198 17.8623 10.1314
Au 20.2992 19.848 11.1
Au 21.766 22.1076 12.0838
Au 23.5184 24.3201 12.5054
Au 25.2678 26.4976 13.4547
Au 27.2885 28.6864 14.2383
Au 19.1494 14.1807 8.45643
Au 20.6935 16.562 9.48925
Au 22.4638 18.6119 10.2415
Au 24.1483 20.6903 10.8808
Au 25.8958 22.6039 11.638
Au 27.5407 24.8229 12.5543
Au 29.4711 27.2177 13.4172
Au 21.2605 12.8046 7.86571
Au 22.8715 15.2154 8.62521
Au 24.8066 17.0602 9.21964
Au 26.3936 19.3665 9.7434
Au 28.1148 21.5293 10.6346
Au 29.7004 23.4105 11.4345
Au 31.355 25.4814 12.642
Au 11.7173 21.4426 10.892
Au 13.4728 23.6809 11.2834
Au 15.1827 25.8674 12.0633
Au 16.9056 27.9304 12.6021
Au 18.6474 30.1589 13.6708
Au 20.5249 32.1299 14.3808
Au 14 19.7511 9.45017
Au 15.8429 22.2409 10.3215
Au 17.4111 24.3267 11.0776
Au 19.1232 26.5389 11.7824
Au 20.9983 28.367 12.7251
Au 22.6545 30.6816 13.418
Au 16.215 18.4069 8.53098
Au 18.0743 20.6169 9.37712
Au 19.701 22.8284 10.2215
Au 21.267 24.9351 10.97
Au 23.1155 27.0518 11.6655
Au 24.9665 29.1582 12.5576
Au 18.3703 16.7999 7.54495
Au 20.3658 18.9454 8.42518
Au 21.7575 21.2471 9.13617
Au 23.4822 23.3374 9.94257
Au 25.279 25.4873 10.8082
Au 27.0827 27.4992 11.783
Au 20.7119 15.6157 6.85597
Au 22.505 17.6435 7.21642
Au 23.949 19.5545 8.3541
Au 25.6976 21.7329 8.8984
Au 27.4028 24.0939 9.79437
Au 29.279 25.9958 10.9397
Au 13.4907 22.204 8.97468
Au 15.5324 24.8303 9.44277
Au 17.0646 26.9507 10.0002
Au 18.8294 29.1966 11.1216
Au 20.5569 31.0646 11.7788
Au 15.8784 21.1856 7.92279
Au 17.6126 23.1569 8.37331
Au 19.1538 25.5136 9.03464
Au 20.8447 27.494 10.186
Au 22.8758 29.6769 10.9809
Au 18.073 19.4658 6.79219
Au 19.5903 21.6263 7.46072
Au 21.3738 23.9108 8.17125
Au 23.0811 25.9676 9.139
Au 25.0308 28.239 10.0405
Au 20.316 18.2586 5.97973
Au 21.9678 20.3874 6.46248
Au 23.4617 22.2458 7.33094
Au 25.2273 24.5077 8.16729
Au 27.0323 26.5951 9.35117
Au 6.21112 21.1763 24.1074
Au 7.92501 23.2496 24.5967
Au 9.46759 25.3876 25.6072
Au 11.317 27.6163 26.5561
Au 13.0993 29.6508 27.4106
Au 15.034 31.5893 27.9179
Au 6.70837 17.7858 22.3864
Au 8.30421 19.8547 23.1459
Au 10.0589 21.8357 23.8188
Au 11.4554 23.9516 24.7833
Au 13.2663 25.8689 25.5039
Au 14.8509 28.0341 26.3906
Au 16.9187 29.9002 27.03
Au 18.5452 32.1229 27.8955
Au 7.30504 14.0948 20.615
Au 8.79508 16.2605 21.4061
Au 10.5135 18.2884 22.2186
Au 12.2765 20.3435 22.9726
Au 13.9463 22.486 23.7948
Au 15.6162 24.6099 24.5943
Au 17.3747 26.5328 25.3581
Au 19.2942 28.6025 26.0498
Au 20.9479 30.8317 26.9335
Au 22.4591 32.9582 27.7222
Au 9.22673 12.3287 19.7618
Au 10.9938 14.3396 20.6505
Au 12.9497 16.4545 21.5071
Au 14.6081 18.8241 22.1224
Au 16.1636 21.0174 22.9811
Au 17.8915 23.1517 23.6417
Au 19.6324 25.2926 24.4561
Au 21.6854 27.5275 25.4676
Au 23.3727 29.5268 26.3398
Au 24.8014 31.5907 27.0169
Au 11.5833 10.7337 18.7373
Au 13.111 12.7517 19.6405
Au 15.0964 14.8663 20.4543
Au 16.8228 17.3191 21.3451
Au 18.5931 19.5697 22.0619
Au 20.2863 21.6578 22.7536
Au 21.9071 23.7203 23.5566
Au 23.8634 25.7935 24.3314
Au 25.5185 28.217 25.2009
Au 27.0473 30.3004 25.9947
Au 13.7215 9.48462 18.0455
Au 15.4416 11.4954 18.9212
Au 17.3705 13.4969 19.838
Au 19.1545 15.8392 20.5774
Au 20.7759 17.9508 21.0614
Au 22.6578 20.0197 21.8101
Au 24.3704 22.1971 22.6741
Au 26.0891 24.348 23.4558
Au 27.8649 26.5843 24.421
Au 29.421 28.8569 25.1384
Au 15.9865 7.85684 17.4241
Au 17.6925 9.89806 18.0242
Au 19.7267 11.9654 18.8412
Au 21.3283 14.1146 19.5554
Au 23.1086 16.2039 20.3829
Au 24.9942 18.1101 21.0729
Au 26.614 20.6395 21.9682
Au 28.4907 22.6 22.6367
Au 30.0778 25.0894 23.4039
Au 31.5952 27.1657 24.3301
Au 18.4268 6.7531 16.4589
Au 20.1736 8.54932 17.4236
Au 22.1001 10.4054 17.976
Au 23.8449 12.6481 18.8604
Au 25.6682 14.4402 19.375
Au 27.1237 16.757 20.1426
Au 28.8266 18.9774 21.1414
Au 30.602 21.0714 21.6928
Au 32.3557 23.5895 22.4341
Au 33.7476 25.7487 23.2096
Au 22.2469 7.15203 16.3135
Au 24.2189 8.90655 17.2219
Au 25.8777 11.1644 17.8631
Au 27.7195 13.0548 18.5585
Au 29.349 15.1934 19.3522
Au 31.1408 17.2418 20.1485
Au 32.6577 19.3642 20.755
Au 34.2847 21.6854 21.5281
Au 6.75374 18.5734 25.4064
Au 8.36506 20.6658 25.6848
Au 9.88292 22.9081 26.7886
Au 11.5219 24.7538 27.4093
Au 13.3414 26.9111 28.4197
Au 15.2353 29.0636 28.9664
Au 16.9741 30.7092 29.5158
Au 7.39412 14.881 23.1999
Au 8.73407 17.1603 24.1321
Au 10.4968 19.1088 25.2018
Au 12.0729 21.2493 25.7799
Au 13.8986 23.3351 26.6466
Au 15.594 25.5717 27.364
Au 17.3927 27.3988 28.1351
Au 19.2517 29.4255 28.9882
Au 20.791 31.6896 29.4932
Au 9.22503 13.28 22.514
Au 10.6454 15.4381 23.1473
Au 12.5439 17.7718 24.0416
Au 14.5481 19.7997 24.8603
Au 16.1924 21.9511 25.613
Au 18.0264 24.0079 26.488
Au 19.8983 25.9961 27.4297
Au 21.6087 28.1021 28.1945
Au 22.9852 30.446 29.0072
Au 11.402 11.7811 21.4855
Au 13.2295 13.8069 22.3424
Au 15.0465 15.9629 23.1326
Au 16.859 18.3603 23.9785
Au 18.4808 20.3659 24.7861
Au 20.3638 22.4078 25.4978
Au 21.9834 24.6077 26.1721
Au 23.8227 26.8093 27.0096
Au 25.3688 28.8798 28.0883
Au 13.7958 10.3673 20.7121
Au 15.6912 12.3269 21.564
Au 17.1944 14.6705 22.314
Au 19.1083 16.7944 23.1291
Au 20.8105 19.0561 23.8415
Au 22.6581 20.8 24.6965
Au 24.1983 23.2166 25.3766
Au 26.1007 25.6459 26.2104
Au 27.6217 27.7809 26.9028
Au 15.8811 9.00401 19.9425
Au 17.7437 10.8356 20.7373
Au 19.6629 13.0889 21.4962
Au 21.5166 14.9683 22.2794
Au 22.9607 17.4433 22.8341
Au 24.7438 19.4415 23.5945
Au 26.5307 21.634 24.4535
Au 28.2664 23.9808 25.2999
Au 29.9072 25.8493 26.0743
Au 18.2755 7.36312 19.1611
Au 20.2515 9.31445 20.0674
Au 21.9981 11.3982 20.6709
Au 23.8757 13.6422 21.3014
Au 25.4305 15.6939 22.2766
Au 27.1813 17.955 22.9655
Au 29.0124 20.0737 23.9063
Au 30.575 22.1321 24.3167
Au 32.1399 24.5392 25.095
Au 20.5346 5.94068 18.156
Au 22.4105 7.68698 19.0547
Au 24.2787 9.96899 19.643
Au 26.0722 11.9977 20.5907
Au 27.6546 14.1317 21.2906
Au 29.4993 16.3173 21.9194
Au 31.0134 18.5284 22.764
Au 32.7058 20.5372 23.4198
Au 34.086 22.6491 24.2844
Au 7.61106 15.9029 26.0229
Au 8.70427 18.148 27.0776
Au 10.4395 20.1551 27.7284
Au 12.0309 22.055 28.4921
Au 13.825 24.19 29.2831
Au 15.4208 26.318 30.1444
Au 17.3362 28.1157 30.8741
Au 18.8518 30.0719 31.5462
Au 9.31412 14.0142 25.1108
Au 10.7276 16.2813 25.6893
Au 12.8071 18.6453 26.6477
Au 14.3466 20.8463 27.5871
Au 16.163 22.9948 28.3342
Au 18.0227 24.8661 29.4866
Au 19.6682 26.9329 30.1808
Au 21.3539 29.0175 30.9295
Au 11.4585 12.7874 24.1576
Au 13.0491 14.789 25.0378
Au 14.8827 16.9687 25.7907
Au 16.7053 19.1685 26.6104
Au 18.4008 21.2132 27.2982
Au 20.0585 23.3771 28.3285
Au 21.8865 25.5022 29.1828
Au 23.4935 27.7287 30.128
Au 13.5731 11.3027 23.3487
Au 15.3495 13.4026 24.1266
Au 17.0552 15.7116 24.9707
Au 19.0871 17.6572 25.6852
Au 20.8593 19.8518 26.634
Au 22.3432 22.0633 27.2789
Au 24.1302 24.1721 27.9776
Au 25.8661 26.3867 28.8109
Au 16.0591 9.69798 22.6586
Au 17.7806 11.965 23.2865
Au 19.3262 14.2602 23.9977
Au 21.3697 16.1671 24.9818
Au 23.1495 18.2216 25.6439
Au 24.7848 20.4503 26.258
Au 26.4507 22.993 26.9261
Au 28.2723 25.0476 27.9631
Au 18.2627 8.21455 21.6746
Au 20.0639 10.3809 22.5537
Au 21.7985 12.5005 23.267
Au 23.5776 14.5314 23.9558
Au 25.4858 16.795 24.8821
Au 27.0884 18.8487 25.5627
Au 28.5038 21.3238 26.1959
Au 30.4141 23.2738 26.9019
Au 20.5935 6.73102 20.9945
Au 22.5521 8.81689 21.5548
Au 24.2227 11.0031 22.1721
Au 25.9215 12.8852 23.2605
Au 27.497 15.205 23.7227
Au 29.1315 17.1756 24.5721
Au 31.0916 19.4663 25.372
Au 32.5543 21.8719 26.1052
Au 9.54855 15.5114 27.8266
Au 11.1828 17.4464 28.7201
Au 12.424 19.5864 29.4477
Au 14.397 21.8179 30.425
Au 16.1274 23.7757 31.0438
Au 17.8467 25.6499 32.0732
Au 19.6524 27.5739 32.7325
Au 11.4824 13.7909 26.8792
Au 13.1041 15.9111 27.5461
Au 14.7884 18.2416 28.5087
Au 16.5591 20.2859 29.2461
Au 18.296 22.1847 30.3981
Au 20.1407 24.1484 31.1069
Au 21.9742 26.3979 31.8845
Au 13.5059 12.1435 26.0266
Au 15.3308 14.0987 26.8592
Au 17.0731 16.5194 27.6641
Au 18.8402 18.5699 28.3203
Au 20.6134 20.5892 29.1726
Au 22.2636 22.9733 29.9345
Au 24.1287 24.8652 30.6533
Au 15.9767 11.0069 25.1835
Au 17.8845 12.9955 25.9817
Au 19.4185 15.3059 26.9387
Au 21.2202 17.2577 27.5319
Au 23.2485 19.3304 28.2333
Au 24.7265 21.6395 28.8932
Au 26.3979 23.612 29.8219
Au 18.137 9.098 24.4004
Au 20.0225 11.3624 25.1339
Au 21.7239 13.5846 26.0016
Au 23.5871 15.5211 26.559
Au 25.2948 17.6715 27.4984
Au 27.024 20.1622 28.0679
Au 28.5811 22.2861 28.8538
Au 20.6525 8.06505 23.3944
Au 22.4245 9.96403 24.3663
Au 24.0575 12.11 24.8307
Au 25.8261 14.1255 25.6811
Au 27.6158 16.3064 26.5687
Au 29.2251 18.4331 27.2396
Au 30.6419 20.6314 27.7887
Au 11.66 14.799 29.4508
Au 13.1196 16.7811 30.4385
Au 14.8241 19.1414 31.1369
Au 16.4442 21.0544 32.0258
Au 18.3415 23.1095 33.0323
Au 20.0571 25.0226 33.7809
Au 13.7253 13.1807 28.7481
Au 15.2526 15.4784 29.385
Au 16.9509 17.5788 30.3682
Au 18.8207 19.5762 31.175
Au 20.7928 21.6585 32.1041
Au 22.465 23.8497 32.5789
Au 15.7821 11.5925 27.8528
Au 17.5438 13.8429 28.7023
Au 19.4114 15.9402 29.5551
Au 21.2405 18.1196 30.067
Au 22.953 20.3496 30.8822
Au 24.6847 22.3511 31.863
Au 18.0559 10.2931 26.9491
Au 19.7696 12.3681 27.7512
Au 21.7059 14.6 28.5074
Au 23.5202 16.7478 29.1821
Au 25.3416 18.9189 30.1765
Au 27.0513 21.0752 30.7419
Au 20.2367 9.04665 26.0666
Au 22.1183 10.9269 26.9706
Au 23.9909 13.003 27.5696
Au 25.9077 15.129 28.373
Au 27.7161 17.53 29.0596
Au 29.1636 19.9487 29.7898
Au 13.6338 14.362 31.361
Au 15.2223 16.581 32.2253
Au 17.0741 18.3572 33.1122
Au 18.6809 20.472 33.7533
Au 20.6481 22.4862 34.5496
Au 15.6367 12.6668 30.5926
Au 17.3731 14.8644 31.3399
Au 19.3624 16.8801 32.0703
Au 21.0705 19.0339 32.751
Au 23.03 21.1588 33.6832
Au 17.9735 11.4565 29.6605
Au 19.9148 13.3394 30.3134
Au 21.8379 15.6592 31.2164
Au 23.5305 17.7607 31.8936
Au 25.3942 19.9049 32.72
Au 20.3085 10.0416 28.6985
Au 22.2108 11.8951 29.6304
Au 23.8917 14.1877 29.9956
Au 25.6634 16.2964 30.9354
Au 27.3419 18.3428 31.8626
Au 15.6657 13.6378 32.9124
Au 17.4677 15.6271 33.7553
Au 19.2695 17.8563 34.4665
Au 20.913 19.9489 35.1846
Au 18.0572 12.5016 32.1634
Au 19.9843 14.4435 33.0272
Au 21.6281 16.459 33.7983
Au 23.167 18.3974 34.337
Au 20.2473 10.9795 31.3015
Au 22.1587 13.1426 32.0499
Au 23.9576 15.1487 32.787
Au 25.6134 17.3784 33.57
