6
 Atoms. Timestep: 50000
Au 19.1017 19.7689 21.522
Au 19.4327 21.8979 20.4107
Au 19.4242 19.7445 19.0082
Au 21.4765 20.7882 21.7515
Au 21.5726 21.2443 19.3675
Au 21.3624 18.9261 20.31
