766
 Atoms. Timestep: 50000
Au 21.7802 14.2928 33.3199
Au 21.5708 15.5842 31.1439
Au 21.3137 16.7524 28.2975
Au 21.1296 17.8049 25.6664
Au 20.6763 19.0292 23.046
Au 20.6006 20.3949 20.378
Au 20.3545 21.5788 17.7858
Au 19.8534 22.6545 15.0088
Au 19.5346 24.0182 12.5829
Au 19.3057 25.2222 9.85085
Au 19.0849 26.4393 7.74818
Au 19.2785 15.0266 32.5096
Au 19.0897 16.1857 29.7776
Au 18.7765 17.5355 27.4286
Au 18.4659 18.6398 24.7344
Au 18.2027 19.7597 21.9515
Au 17.9703 20.9828 19.2621
Au 17.5248 22.1626 16.5214
Au 17.0755 23.3424 13.9826
Au 17.0177 24.5059 11.4141
Au 16.6854 25.8934 8.86482
Au 21 17.1204 33.2843
Au 20.6813 18.3188 30.6499
Au 20.4254 19.5233 27.9653
Au 20.2607 20.6661 25.3369
Au 19.9308 21.9099 22.6834
Au 19.5573 23.2359 20.1844
Au 19.2441 24.2881 17.4682
Au 18.8648 25.3336 14.7817
Au 18.7463 26.7641 12.4018
Au 18.4526 27.8078 9.83942
Au 23.7755 16.2223 32.6098
Au 23.3814 17.4012 30.0642
Au 23.2463 18.9256 27.4451
Au 22.7441 19.8401 24.7455
Au 22.5391 21.3195 22.1797
Au 22.423 22.3315 19.5286
Au 21.9332 23.6558 16.6573
Au 21.6471 24.9603 14.1894
Au 21.4591 26.0563 11.622
Au 21.2587 27.2181 9.04399
Au 23.759 13.6389 31.37
Au 23.3971 14.8971 28.9981
Au 22.8824 16.0012 26.4072
Au 22.7438 17.0145 23.497
Au 22.6062 18.4689 20.9211
Au 22.4002 19.685 18.1975
Au 21.8713 20.8449 15.5833
Au 21.6595 22.0129 12.9366
Au 21.4093 23.3975 10.5342
Au 21.2348 24.5447 8.04516
Au 20.797 12.7411 31.4039
Au 20.5905 13.9939 28.968
Au 20.064 15.1226 26.361
Au 19.9969 16.2942 23.5113
Au 19.6727 17.6151 20.7833
Au 19.6515 18.9708 18.3376
Au 19.0311 19.8265 15.3934
Au 18.9098 21.13 12.774
Au 18.7621 22.4614 10.2781
Au 18.3561 23.7485 7.7418
Au 16.8509 15.6074 31.2703
Au 16.2967 16.8472 28.936
Au 16.0195 18.0572 26.1857
Au 15.8234 19.1106 23.4686
Au 15.558 20.3984 20.6682
Au 15.413 21.7303 18.261
Au 14.7624 22.8001 15.5117
Au 14.5113 23.7984 12.8363
Au 14.6587 25.0435 10.4582
Au 18.4603 17.8609 32.1251
Au 18.2054 18.9424 29.7147
Au 17.7941 20.1819 26.9705
Au 17.5529 21.3024 24.3231
Au 17.312 22.6552 21.627
Au 17.0155 23.7889 18.9514
Au 16.6118 24.8431 16.3291
Au 16.1923 25.9803 13.6347
Au 16.224 27.293 11.1228
Au 20.2213 19.9434 32.934
Au 19.9243 21.0273 30.3451
Au 19.4947 22.3293 27.7299
Au 19.2643 23.458 25.0451
Au 19.0141 24.6932 22.5476
Au 18.9562 25.8995 19.6827
Au 18.5291 27.0991 16.9354
Au 18.1689 28.2417 14.5419
Au 18.0224 29.375 12.0354
Au 22.9501 18.8545 32.3156
Au 22.64 20.3072 29.8132
Au 22.3711 21.7473 27.1515
Au 22.2149 22.647 24.6054
Au 21.8589 23.9467 21.8424
Au 21.5382 25.0737 19.1386
Au 21.1343 26.3333 16.7009
Au 20.9482 27.555 14.0521
Au 20.7684 28.74 11.3758
Au 25.5719 17.9918 31.4991
Au 25.2959 19.453 29.1792
Au 24.8738 20.7 26.6075
Au 24.7242 21.8873 24.03
Au 24.4665 23.3294 21.2998
Au 24.1262 24.3544 18.6629
Au 23.8826 25.3892 15.9078
Au 23.7335 26.4146 13.1573
Au 23.6224 27.6571 10.6714
Au 25.7646 15.4605 30.5898
Au 25.2808 16.8694 28.228
Au 24.7906 17.835 25.4573
Au 24.55 19.2999 22.7419
Au 24.4329 20.4135 20.0414
Au 24.0361 21.6981 17.3332
Au 23.6925 22.7482 14.8241
Au 23.5368 23.9499 12.0574
Au 23.2931 25.1497 9.54506
Au 25.341 12.9711 29.2988
Au 25.0596 14.1839 26.8271
Au 24.6041 15.3535 24.0447
Au 24.542 16.7126 21.3528
Au 24.4813 17.7629 18.7415
Au 24.008 18.8878 15.9688
Au 23.7305 20.0983 13.5091
Au 23.5177 21.1522 10.7439
Au 23.1533 22.4179 8.58567
Au 22.5808 12.0554 29.3888
Au 22.4451 13.2968 26.9212
Au 21.903 14.2933 24.24
Au 21.874 15.7478 21.2108
Au 21.6577 16.8259 18.6538
Au 21.3546 18.0698 15.9075
Au 21.0199 19.2118 13.2175
Au 20.7557 20.3438 10.7479
Au 20.6757 21.58 8.3349
Au 19.8383 11.1999 29.1919
Au 19.6329 12.5173 26.762
Au 19.0022 13.6745 24.1991
Au 19.1064 14.9131 21.2974
Au 18.8707 16.127 18.5495
Au 18.4937 17.2389 15.8961
Au 18.1674 18.478 13.245
Au 17.7664 19.749 10.5115
Au 17.7075 20.887 8.26705
Au 18.2565 13.5178 30.2891
Au 17.821 14.5528 27.7759
Au 17.5654 16.0663 25.221
Au 17.4605 17.1509 22.2862
Au 17.3373 18.3515 19.7849
Au 16.8178 19.2746 17.1857
Au 16.6031 20.6267 14.3004
Au 16.317 21.8119 11.6716
Au 16.2298 23.0345 9.244
Au 14.1803 16.3324 30.3604
Au 13.7212 17.4805 27.8705
Au 13.6503 18.634 25.0913
Au 13.3814 19.8893 22.5757
Au 12.8693 20.9474 19.9204
Au 12.8283 22.0151 17.2559
Au 12.1724 23.2105 14.4962
Au 12.0085 24.498 11.9302
Au 15.8264 18.5029 31.1032
Au 15.5971 19.591 28.5238
Au 15.2257 20.7073 25.7932
Au 15.078 21.8228 23.2592
Au 14.6606 23.1123 20.6798
Au 14.439 24.343 17.9163
Au 14.0292 25.3847 15.18
Au 13.7451 26.5273 12.5803
Au 17.5966 20.4887 32.001
Au 17.3256 21.6978 29.3581
Au 16.7862 22.8391 26.6597
Au 16.6776 24.3227 23.905
Au 16.4706 25.2994 21.2449
Au 16.3091 26.5227 18.5462
Au 15.7033 27.5556 15.9141
Au 15.6898 28.8326 13.5044
Au 19.4338 22.6066 32.5038
Au 18.9218 23.8445 30.0885
Au 18.7098 25.0037 27.4267
Au 18.4184 26.1412 24.926
Au 18.12 27.4855 22.3164
Au 17.7133 28.4547 19.6661
Au 17.5368 29.6651 16.8289
Au 17.7059 30.9169 14.4571
Au 22.1339 21.7664 32.0847
Au 21.6332 22.9918 29.471
Au 21.4018 24.3688 26.885
Au 21.095 25.358 24.3346
Au 20.6859 26.6602 21.4523
Au 20.5569 27.9875 18.8799
Au 20.2952 29.2588 16.1874
Au 20.3141 30.2912 13.748
Au 24.8811 20.7891 31.4849
Au 24.5069 22.2283 29.1052
Au 24.3763 23.5051 26.3743
Au 24.0306 24.6264 23.8702
Au 23.4803 26.0034 20.9572
Au 23.3858 27.1741 18.2158
Au 23.102 28.255 15.7584
Au 22.8413 29.2545 13.0012
Au 27.4303 20.1975 30.7259
Au 27.0896 21.3963 28.2203
Au 26.9682 22.5867 25.606
Au 26.7145 24.1548 22.8727
Au 26.2341 25.0856 20.2641
Au 26.0364 26.3975 17.3971
Au 25.6559 27.4298 14.7633
Au 25.6317 28.5448 12.364
Au 27.501 17.4556 29.6265
Au 26.9449 18.7189 27.0993
Au 26.5843 20.0292 24.6508
Au 26.3994 21.1902 21.8206
Au 26.2013 22.4086 19.0724
Au 25.9525 23.6943 16.4518
Au 25.7675 24.6444 13.7476
Au 25.5507 25.6952 11.1433
Au 27.2951 14.782 28.2563
Au 26.826 15.9427 25.6425
Au 26.4936 17.3951 23.2273
Au 26.526 18.5345 20.7058
Au 25.9525 19.6668 17.8308
Au 25.9232 20.9313 15.1705
Au 25.6486 21.9989 12.5302
Au 25.5374 22.8985 9.7061
Au 27.2221 12.3465 27.0815
Au 26.9949 13.5631 24.6085
Au 26.6608 14.8351 22.1594
Au 26.4202 15.7677 19.5238
Au 26.2896 17.0397 16.6476
Au 25.8748 18.2293 13.9816
Au 25.5668 19.3865 11.504
Au 25.3154 20.2798 8.85238
Au 24.3951 11.5288 27.1988
Au 24.1882 12.6271 24.6008
Au 23.6955 13.8491 22.009
Au 23.747 15.0163 19.2936
Au 23.4993 16.2212 16.7097
Au 23.3339 17.2657 13.9337
Au 22.9372 18.5018 11.288
Au 22.3892 19.5836 8.4746
Au 21.7288 10.6337 27.1257
Au 21.4048 11.729 24.6062
Au 20.9989 13.0146 22.0268
Au 20.8981 14.1342 19.2453
Au 20.4184 15.329 16.4796
Au 20.3967 16.5966 13.6844
Au 19.7955 17.8525 11.0571
Au 19.9137 19.0149 8.56791
Au 18.8788 9.79584 26.797
Au 18.7325 11.0177 24.4758
Au 18.4307 12.1341 21.7738
Au 18.0242 13.5224 19.0299
Au 17.6422 14.6132 16.3527
Au 17.5231 15.7347 13.6746
Au 17.1939 16.8179 10.9737
Au 17.2064 18.0782 8.47854
Au 17.3404 11.7832 28.2847
Au 16.8459 13.0294 25.6789
Au 16.5766 14.2358 22.803
Au 16.4631 15.5838 20.065
Au 16.1772 16.7502 17.4445
Au 15.9093 17.9238 14.9241
Au 15.4848 19.2758 12.0753
Au 15.2019 20.3704 9.46343
Au 15.5133 14.0002 29.3587
Au 15.3588 15.2276 26.6545
Au 15.1312 16.4762 23.8863
Au 14.8038 17.6686 21.4664
Au 14.548 18.7021 18.7627
Au 14.3499 19.9808 15.955
Au 13.7713 21.1672 13.3886
Au 13.5998 22.2903 10.8193
Au 11.5207 16.8371 29.1309
Au 11.2766 18.1226 26.6594
Au 11.0268 19.1736 24.0843
Au 10.5825 20.1263 21.4926
Au 10.4189 21.4766 18.7353
Au 10.0173 22.4343 16.0697
Au 9.80849 23.9238 13.3717
Au 13.223 19.1034 29.9858
Au 12.9903 20.3833 27.5281
Au 12.6886 21.4116 24.9312
Au 12.3782 22.679 22.1638
Au 12.1174 23.6337 19.2987
Au 11.7433 24.8319 16.8566
Au 11.3722 26.0077 14.0399
Au 14.7504 21.2091 30.6867
Au 14.6312 22.4003 28.1489
Au 14.3731 23.46 25.6609
Au 14.203 24.6382 22.9722
Au 13.9156 25.7684 20.2569
Au 13.6002 27.0614 17.3866
Au 13.2929 28.1798 14.7971
Au 16.798 23.2233 31.5989
Au 16.2035 24.4064 29.0978
Au 15.9232 25.7576 26.2479
Au 15.7897 26.9735 23.6456
Au 15.459 27.9267 21.1027
Au 15.2553 29.2862 18.3388
Au 14.9442 30.2445 15.7667
Au 18.49 25.5384 32.3081
Au 17.9662 26.6278 29.8251
Au 17.8343 27.7938 27.0586
Au 17.694 29.046 24.5254
Au 17.1496 30.0701 21.8476
Au 16.8735 31.2968 19.3298
Au 16.7064 32.1109 16.7618
Au 21.259 24.6203 31.8064
Au 20.6865 25.8129 29.3604
Au 20.4469 27.0542 26.5408
Au 20.2392 28.1455 23.8823
Au 19.8016 29.4325 21.1757
Au 19.5892 30.6576 18.7252
Au 19.4426 31.7709 16.1383
Au 23.9525 23.6731 31.3662
Au 23.5554 24.7728 28.7004
Au 23.3524 26.1769 26.1697
Au 22.8281 27.2403 23.2436
Au 22.6325 28.5077 20.6795
Au 22.433 29.851 17.9778
Au 22.4662 31.0647 15.3182
Au 26.8636 22.8839 30.4881
Au 26.4919 24.2204 28.0149
Au 26.1027 25.6529 25.398
Au 25.6868 26.6312 22.5377
Au 25.438 27.8723 19.8545
Au 25.2269 29.1225 17.2888
Au 25.1407 30.0562 14.6318
Au 29.4122 22.0831 29.8424
Au 29.1514 23.3191 27.1674
Au 28.6251 24.6901 24.6175
Au 28.435 25.9814 21.9436
Au 28.0854 26.9573 19.308
Au 27.9216 28.3013 16.6397
Au 27.8545 29.2549 14.0691
Au 29.2036 19.5502 28.7089
Au 28.8413 20.658 26.1605
Au 28.6794 22.048 23.3468
Au 28.4077 23.0763 20.8374
Au 27.9692 24.3664 18.0143
Au 27.897 25.6829 15.2944
Au 27.5717 26.8413 12.6712
Au 28.8923 17.01 27.5012
Au 28.8069 18.0773 24.8343
Au 28.5272 19.1846 22.4612
Au 28.1213 20.3676 19.3911
Au 27.8738 21.582 16.9055
Au 27.8588 22.8904 14.0535
Au 27.4161 23.8401 11.5213
Au 29.0496 14.2161 26.2824
Au 28.856 15.3427 23.6856
Au 28.5657 16.6021 21.2659
Au 28.2418 17.5627 18.4047
Au 28.0176 18.9246 15.8707
Au 27.7848 20.071 13.1977
Au 27.4147 21.2375 10.4465
Au 28.86 11.6836 25.1009
Au 28.8266 12.9678 22.3821
Au 28.5348 13.9633 19.8819
Au 28.2085 15.0081 17.2349
Au 27.9712 16.2377 14.6286
Au 27.7672 17.3222 11.9361
Au 27.2166 18.5919 9.61126
Au 26.3271 10.9109 25.118
Au 25.8383 11.9371 22.4793
Au 25.6597 13.159 20.0471
Au 25.5419 14.2822 17.1251
Au 25.261 15.527 14.5382
Au 24.9152 16.7047 11.7849
Au 24.5214 17.6556 9.00807
Au 23.534 9.95113 24.7996
Au 23.3513 11.0191 22.4238
Au 23.0117 12.2818 19.819
Au 22.5766 13.5779 17.1368
Au 22.4271 14.7058 14.3679
Au 21.987 15.8652 11.5612
Au 21.7321 16.9824 9.05184
Au 20.8439 9.02555 24.9496
Au 20.5694 10.1922 22.2949
Au 20.1536 11.4486 19.6575
Au 19.8812 12.6336 17.0899
Au 19.5973 13.8358 14.269
Au 19.3294 15.0044 11.4627
Au 19.0946 16.2507 8.9239
Au 17.774 8.52138 24.5388
Au 17.7564 9.57311 22.1617
Au 17.454 10.7413 19.4657
Au 17.0904 11.7943 16.9424
Au 16.9538 12.9129 14.1511
Au 16.5407 14.1866 11.4833
Au 16.2329 15.397 9.0137
Au 16.1887 10.1769 26.0097
Au 16.1201 11.4594 23.3921
Au 15.7832 12.5776 20.6048
Au 15.3403 13.9196 18.0957
Au 15.1705 15.0708 15.2814
Au 14.9869 16.3412 12.6367
Au 14.6455 17.5034 9.90877
Au 14.8033 12.4156 27.2129
Au 14.4013 13.6658 24.5568
Au 14.0941 14.8572 21.8123
Au 14.0037 16.2492 19.217
Au 13.5729 17.2331 16.4611
Au 13.3192 18.4511 13.9374
Au 13.0407 19.5364 10.861
Au 13.2353 14.7476 28.1763
Au 12.8351 15.8929 25.5505
Au 12.438 16.9243 22.9568
Au 12.2346 18.2945 20.2785
Au 12.0406 19.3886 17.647
Au 11.5262 20.3898 15.0751
Au 11.2591 21.555 12.4819
Au 9.08907 17.3099 27.7882
Au 8.4751 18.427 25.5323
Au 8.26885 19.5097 23.1278
Au 8.02414 20.7063 20.2811
Au 7.79028 21.9448 17.7139
Au 7.45565 22.8314 15.1797
Au 10.6739 19.6079 28.8346
Au 10.2788 20.6819 26.2943
Au 10.1151 21.7534 23.5688
Au 9.5109 22.9087 20.9977
Au 9.32201 24.198 18.2611
Au 9.34616 25.1234 15.7447
Au 12.1753 21.7362 29.8901
Au 11.7098 23.0362 27.5009
Au 11.87 23.9475 24.4858
Au 11.5685 25.3769 21.8029
Au 11.3643 26.5034 18.7871
Au 10.9955 27.4892 16.2551
Au 13.9185 23.7772 30.6409
Au 13.6701 25.0652 27.9593
Au 13.44 26.1511 25.1576
Au 13.1162 27.3574 22.6125
Au 13.0521 28.5106 19.679
Au 12.769 29.6881 16.9896
Au 15.8678 25.9058 31.3916
Au 15.4392 27.3357 28.7288
Au 15.2153 28.5494 26.2095
Au 14.857 29.7408 23.6078
Au 14.5814 30.6418 20.8608
Au 14.3013 31.8714 18.2297
Au 17.6388 28.3783 31.9073
Au 17.3326 29.276 29.4536
Au 16.883 30.652 27.0347
Au 16.7378 31.6974 24.4376
Au 16.3958 32.7394 21.7033
Au 16.1407 33.6194 19.2609
Au 20.3451 27.2358 31.5682
Au 20.0872 28.5663 28.8247
Au 19.602 29.8652 26.203
Au 19.3168 31.1108 23.6847
Au 19.2556 32.1408 21.0586
Au 18.9451 33.2754 18.3211
Au 23.3169 26.3887 30.7736
Au 22.8282 27.6239 28.4455
Au 22.3377 28.7972 25.799
Au 22.0228 30.0148 22.9596
Au 21.8183 31.3953 20.3992
Au 21.7331 32.4745 17.677
Au 25.7599 25.4624 30.3212
Au 25.4595 26.849 27.98
Au 24.9681 27.9377 24.7816
Au 24.7221 29.2196 22.2119
Au 24.6224 30.5438 19.5858
Au 24.2031 31.7834 17.1399
Au 28.7592 24.8602 29.7222
Au 28.3351 26.2337 26.9907
Au 28.1151 27.4539 24.2615
Au 27.5736 28.6508 21.8051
Au 27.3414 29.7753 19.02
Au 27.105 31.0457 16.413
Au 31.0541 23.9902 28.7653
Au 31.0229 25.347 26.1594
Au 30.7215 26.6975 23.6657
Au 30.4377 27.8129 20.8287
Au 30.14 28.9453 18.5374
Au 29.7892 29.9795 15.829
Au 31.1776 21.443 27.6376
Au 30.778 22.6493 25.077
Au 30.4273 24.1508 22.4953
Au 30.1952 25.2727 19.8752
Au 29.9219 26.4601 17.1318
Au 29.6877 27.4331 14.3782
Au 30.892 18.8604 26.336
Au 30.7228 20.0145 23.9718
Au 30.3241 21.2753 21.246
Au 30.0327 22.4686 18.7382
Au 29.6969 23.7231 16.0375
Au 29.4333 24.9476 13.2137
Au 31.042 16.3561 25.3267
Au 30.735 17.4388 22.7232
Au 30.2004 18.5278 20.231
Au 30.0039 19.8164 17.4863
Au 29.8552 21.0472 14.9718
Au 29.4387 22.1868 12.1578
Au 30.983 13.6583 24.2043
Au 30.8028 14.7983 21.5638
Au 30.3324 16.0379 18.9782
Au 30.0307 16.9419 16.5047
Au 29.8045 17.9939 13.7125
Au 29.4724 19.2996 11.0364
Au 30.7736 11.2237 22.8567
Au 31.0033 12.249 20.4103
Au 30.4382 13.5695 17.8277
Au 30.1947 14.3 15.2725
Au 29.8313 15.5264 12.5713
Au 29.5943 16.5823 10.1984
Au 27.9284 10.2098 22.8018
Au 27.8106 11.3178 20.3512
Au 27.4654 12.4706 17.8871
Au 27.3853 13.6593 14.8394
Au 26.9915 14.7254 12.3316
Au 26.5927 15.6969 9.79033
Au 25.3092 9.19184 22.8532
Au 25.0454 10.4473 20.3552
Au 24.7389 11.5979 17.5966
Au 24.3788 12.8532 15.0922
Au 24.1664 14.0963 12.205
Au 23.781 15.0356 9.58894
Au 22.5901 8.41891 22.7635
Au 22.3223 9.44194 20.1078
Au 21.8868 10.8271 17.4889
Au 21.5931 11.9796 14.7915
Au 21.4465 13.214 12.1231
Au 20.9067 14.2047 9.44611
Au 19.9918 7.61061 22.686
Au 19.5812 8.74488 19.998
Au 19.108 9.96714 17.3774
Au 18.9116 11.0905 14.8765
Au 18.7846 12.2997 11.9626
Au 18.4266 13.5476 9.50474
Au 17.1426 6.99596 22.3219
Au 16.7091 8.07926 19.9533
Au 16.4057 9.09127 17.3124
Au 16.2092 10.1269 14.6109
Au 15.8946 11.5168 12.1423
Au 15.7221 12.51 9.58603
Au 15.1556 8.70588 23.8371
Au 15.0668 10.0553 21.2449
Au 14.7946 11.0892 18.5172
Au 14.6588 12.1372 15.8805
Au 14.3159 13.4596 13.1128
Au 13.9415 14.7107 10.5065
Au 13.7592 11.1264 25.0721
Au 13.5187 12.0847 22.423
Au 13.1905 13.4929 19.6457
Au 12.912 14.6205 17.0578
Au 12.6639 15.8597 14.3308
Au 12.556 16.8993 11.5569
Au 12.1911 13.2426 26.0192
Au 11.9073 14.1998 23.45
Au 11.6577 15.5985 20.6569
Au 11.4844 16.64 18.1367
Au 10.8851 17.7103 15.4057
Au 10.6886 18.8898 12.8307
Au 10.6746 15.1495 27.0083
Au 10.284 16.262 24.4486
Au 9.83272 17.6338 21.9929
Au 9.55767 18.5816 19.2089
Au 9.29256 19.7548 16.6695
Au 8.94844 21.0014 14.0223
Au 7.978 20.091 27.6561
Au 7.64296 21.3066 25.0944
Au 7.48775 22.5713 22.4713
Au 7.16621 23.5626 19.9815
Au 6.91541 24.5996 17.175
Au 9.43043 22.1921 28.849
Au 9.46081 23.5022 25.7591
Au 9.24907 24.5309 23.2779
Au 9.10647 25.7571 20.4302
Au 8.5599 26.6967 17.8584
Au 11.3963 24.4223 29.7518
Au 10.9848 25.5486 26.5891
Au 10.7575 26.8738 24.1522
Au 10.6528 27.8347 21.2735
Au 10.4952 28.9496 18.571
Au 13.2736 26.468 30.4157
Au 12.8887 27.8162 27.5746
Au 12.5685 28.8693 24.8961
Au 12.2926 30.0245 22.2692
Au 11.9337 31.0341 19.5435
Au 15.0553 28.6467 30.9424
Au 14.6557 30.078 28.6497
Au 14.3711 31.18 25.9622
Au 14.0645 32.3409 23.2698
Au 13.9464 33.303 20.5727
Au 19.5107 29.9242 31.0398
Au 19.0809 31.3316 28.7345
Au 19.0493 32.5718 26.1871
Au 18.6418 33.736 23.5121
Au 18.4858 34.6043 20.9939
Au 22.4082 29.0313 30.6562
Au 21.8149 30.5294 27.8746
Au 21.5706 31.6306 25.276
Au 21.1504 32.8733 22.6497
Au 21.1675 34.2335 20.016
Au 25.0778 28.2598 30.0693
Au 24.5532 29.554 27.2716
Au 24.1959 30.7071 24.6978
Au 23.8216 31.8717 22.2256
Au 23.6306 33.0611 19.7673
Au 27.6982 27.4679 29.4356
Au 27.0823 28.6569 26.5672
Au 26.7845 30.0808 24.0595
Au 26.6093 31.2019 21.4315
Au 26.5085 32.4992 18.572
Au 30.4774 26.5229 28.6785
Au 30.3751 27.9712 25.9396
Au 29.8111 29.3628 23.3705
Au 29.3615 30.4886 20.7594
Au 28.9864 31.3518 18.1111
Au 32.7498 23.3676 26.7813
Au 32.7223 24.647 24.2186
Au 32.4848 25.491 21.6136
Au 32.291 26.9053 18.6861
Au 31.7287 27.9877 16.2584
Au 32.8377 20.9305 25.6155
Au 32.4006 22.1128 22.8773
Au 32.3711 23.1301 20.2451
Au 31.9614 24.2382 17.8521
Au 31.8921 25.3845 15.3157
Au 32.8224 18.202 24.4284
Au 32.6103 19.4371 21.8432
Au 32.1978 20.5135 19.3557
Au 31.9465 21.9183 16.6189
Au 31.5792 22.7694 14.0922
Au 32.8541 15.748 23.148
Au 32.4575 16.8659 20.5658
Au 32.1918 18.1232 18.0878
Au 31.8103 18.9877 15.3564
Au 31.3766 20.1868 12.7387
Au 32.8342 13.1436 22.0576
Au 32.6117 14.1857 19.5531
Au 32.2962 15.4678 16.8442
Au 32.0099 16.2434 14.1154
Au 31.684 17.6039 11.6038
Au 29.8683 9.46181 20.8664
Au 29.6122 10.8646 18.2951
Au 29.177 11.7862 15.6373
Au 29.0767 12.9948 12.7604
Au 28.5478 14.1336 10.3816
Au 27.046 8.64654 20.9285
Au 26.754 9.86873 18.1138
Au 26.3876 10.842 15.4351
Au 26.0489 12.0549 12.8444
Au 25.9035 13.0786 10.1551
Au 24.4575 7.74018 20.7256
Au 24.0763 8.8917 18.0994
Au 23.6768 10.0573 15.3113
Au 23.3374 11.1702 12.9323
Au 23.1992 12.2461 10.3633
Au 21.5957 6.87781 20.7164
Au 21.1596 8.09187 17.9024
Au 21.0849 9.32978 15.1941
Au 20.5481 10.3732 12.7891
Au 20.5285 11.4578 10.0358
Au 18.9442 6.21712 20.4553
Au 18.6562 7.08792 17.8133
Au 18.3349 8.3573 15.238
Au 17.9248 9.66513 12.6762
Au 17.785 10.6362 10.1036
Au 14.4001 7.53205 21.4971
Au 14.0597 8.51358 18.8137
Au 13.8828 9.47771 16.14
Au 13.5707 10.8992 13.7402
Au 13.2866 12.086 11.1616
Au 12.8781 9.27779 22.8973
Au 12.7524 10.7603 20.0755
Au 12.2221 11.8037 17.39
Au 12.0176 12.9665 14.9037
Au 11.6593 14.1995 12.2106
Au 11.2492 11.4533 23.692
Au 10.9268 12.8357 20.9854
Au 10.5944 13.9439 18.3316
Au 10.2989 15.064 15.7265
Au 10.1374 16.2167 13.3061
Au 9.69586 13.4006 24.8266
Au 9.44661 14.8355 22.233
Au 9.11212 16.111 19.4788
Au 8.65807 16.9472 16.8022
Au 8.2739 18.3332 14.3068
Au 8.16254 15.6659 25.9473
Au 7.69161 16.7485 23.3181
Au 7.33051 17.9214 20.8067
Au 7.08311 19.3048 18.1936
Au 6.86422 20.3186 15.7192
Au 7.34357 22.9872 27.1807
Au 6.89232 23.7503 24.6707
Au 6.91932 25.2675 21.9848
Au 6.5554 26.112 19.5216
Au 9.04717 24.8102 28.2122
Au 8.35639 26.0015 25.5491
Au 8.35952 27.2899 22.9157
Au 8.03243 28.1876 20.1815
Au 10.8552 26.9085 28.95
Au 10.3947 28.1658 26.4893
Au 9.99078 29.3811 23.6474
Au 9.9044 30.4862 21.2476
Au 12.4183 29.0356 29.8683
Au 12.0889 30.4532 27.1802
Au 11.9041 31.3916 24.3352
Au 11.6869 32.504 21.99
Au 21.4378 31.6962 30.1788
Au 21.2886 33.1198 27.7116
Au 20.8898 34.4019 25.008
Au 20.3651 35.5082 22.6633
Au 24.1139 30.9364 29.4682
Au 23.6783 32.2639 26.9552
Au 23.4346 33.4177 24.4147
Au 23.1346 34.6373 22.0148
Au 26.6755 29.9488 28.7697
Au 26.4223 31.3768 26.3485
Au 26.0387 32.7974 23.7667
Au 25.9163 33.7796 21.1831
Au 29.2288 28.8922 28.1199
Au 28.9622 30.2845 25.7386
Au 28.4892 31.8743 23.2595
Au 28.2713 32.9166 20.3707
Au 34.4894 22.7979 24.7051
Au 34.3252 23.6849 22.0929
Au 34.1174 25.1225 19.4579
Au 33.9983 25.9866 17.0137
Au 34.5707 20.4208 23.2669
Au 34.4055 21.3008 20.8093
Au 34.2137 22.5054 18.3634
Au 33.8074 23.447 15.9641
Au 34.6043 17.8182 22.4233
Au 34.467 18.7472 19.6902
Au 33.931 20.0262 17.1996
Au 33.4341 20.8553 14.5051
Au 34.6506 15.4249 21.3002
Au 34.354 16.4331 18.3611
Au 33.8498 17.3071 15.8901
Au 33.4684 18.3525 13.3707
Au 28.6577 8.17574 18.9238
Au 28.4767 9.27273 16.3816
Au 28.1104 10.0866 13.4117
Au 27.6982 11.3601 11.0933
Au 25.7587 6.98276 18.5021
Au 25.7329 8.20685 15.971
Au 25.3272 9.2854 13.4283
Au 25.1498 10.3025 10.9421
Au 23.2155 6.3743 18.3592
Au 23.1351 7.42322 15.9448
Au 22.6295 8.36998 13.1074
Au 22.2076 9.73329 10.7468
Au 20.622 5.54966 18.2672
Au 20.5382 6.61672 15.6427
Au 19.8994 7.7416 13.1465
Au 19.5429 8.75399 10.7226
Au 12.1821 8.21191 20.566
Au 11.7495 9.1836 17.8007
Au 11.2515 10.1445 15.255
Au 11.183 11.4886 12.9185
Au 10.464 10.0638 21.5625
Au 10.0124 11.0368 18.9924
Au 9.71832 12.1974 16.1175
Au 9.59637 13.4028 13.5703
Au 8.72844 12.1399 22.483
Au 8.30201 13.2735 19.9343
Au 8.10334 14.2919 17.2852
Au 7.82088 15.6174 14.866
Au 7.28957 14.1882 23.6915
Au 7.01068 15.3162 21.0689
Au 6.68602 16.4177 18.5369
Au 6.23947 17.5633 16.1172
