7
 Atoms. Timestep: 50000
Au 19.1897 22.0602 20.8091
Au 18.9371 20.6201 18.7848
Au 20.6486 18.7127 19.0842
Au 19.4299 19.648 21.2406
Au 22.0877 19.377 20.9718
Au 21.4064 21.1083 19.5453
Au 21.0656 21.2388 22.3291
