80
 Atoms. Timestep: 50000
Au 20.5662 17.8536 25.7932
Au 20.5589 19.181 23.3514
Au 20.6283 20.3017 20.1683
Au 19.9149 21.4526 17.4005
Au 19.337 22.9264 15.0178
Au 18.2417 18.44 24.4485
Au 18.3683 19.6279 21.7657
Au 17.9572 20.9565 19.148
Au 17.4826 22.225 16.6219
Au 19.8289 20.4971 25.7844
Au 20.1118 21.9273 22.7223
Au 19.9116 23.3369 20.0156
Au 19.0954 24.2847 17.4409
Au 22.4624 19.6328 25.5912
Au 22.6844 20.7421 22.8709
Au 22.1641 22.6853 18.4584
Au 21.3324 23.7832 16.1831
Au 22.5053 17.0254 24.4086
Au 22.6653 18.1178 21.9017
Au 22.4062 20.2256 17.5274
Au 21.3377 21.3945 14.7902
Au 19.7398 16.4109 23.695
Au 20.0358 17.565 21.0796
Au 19.5594 18.8433 18.082
Au 18.8415 20.2636 15.1358
Au 15.9744 19.1862 23.1356
Au 15.7991 20.4636 20.7536
Au 15.5102 21.698 18.1518
Au 17.9261 21.1484 24.0642
Au 17.6067 22.6319 21.5175
Au 17.0754 23.5717 19.1098
Au 19.4043 23.1464 24.9333
Au 19.0903 24.6306 22.6789
Au 18.6942 25.842 19.8282
Au 21.9923 22.1095 25.2131
Au 22.3801 23.0466 21.1326
Au 21.3365 25.3527 18.4479
Au 24.6378 20.8907 25.3159
Au 24.8789 23.0508 20.8917
Au 23.633 24.429 17.1304
Au 24.5727 18.6635 24.1567
Au 23.6309 20.4466 20.2079
Au 23.6051 22.0536 15.9655
Au 24.6016 16.1286 23.1159
Au 24.736 18.0282 18.9047
Au 23.4919 19.713 14.8973
Au 21.6902 15.43 22.3416
Au 22.2534 17.7964 19.1248
Au 21.0116 18.7072 15.6608
Au 18.9846 15.2021 21.3323
Au 18.9897 16.1157 18.6885
Au 18.613 17.4722 15.9332
Au 17.4367 16.9333 22.3226
Au 17.2936 18.139 19.6477
Au 17.0071 19.4753 16.9264
Au 15.3074 21.8004 23.0223
Au 14.908 22.9426 20.7254
Au 16.9306 23.8248 23.9165
Au 16.5749 25.1573 21.4385
Au 21.4915 24.224 23.451
Au 21.2285 25.466 21.0132
Au 24.2668 23.0384 23.7258
Au 23.7589 25.107 19.6726
Au 25.4002 20.9858 22.5098
Au 24.8866 22.595 18.3512
Au 25.3147 18.3693 21.5571
Au 25.0251 20.0696 17.3211
Au 23.9366 15.9707 20.712
Au 23.4122 17.8508 16.6027
Au 21.3088 15.3547 19.776
Au 21.0344 16.3975 17.0797
Au 16.5827 15.625 20.0704
Au 16.4816 16.7408 17.5871
Au 15.0497 17.7474 21.2269
Au 14.978 19.0045 18.5608
Au 14.4407 24.1827 22.7748
Au 23.6256 25.3131 22.2325
Au 26.1207 20.5469 19.9477
Au 23.613 15.6034 18.1988
Au 14.3283 16.4793 19.1936
