807
 Atoms. Timestep: 50000
Au 6.0036 23.885 23.1154
Au 7.27315 25.8914 24.0705
Au 9.1962 27.7568 24.9803
Au 10.7404 29.7237 25.6828
Au 12.7095 31.7725 26.2423
Au 6.18296 20.2866 21.6005
Au 7.90604 22.1685 22.3489
Au 9.46939 24.5211 23.3266
Au 11.3533 26.4914 24.1454
Au 12.9294 28.5907 24.8486
Au 14.7625 30.5816 25.5781
Au 16.7198 32.7046 26.382
Au 6.65274 16.2692 19.9707
Au 8.23785 18.6648 20.6994
Au 10.1658 20.664 21.5461
Au 11.7737 22.6324 22.3435
Au 13.3754 24.999 23.0626
Au 15.2392 26.9549 23.8101
Au 17.0565 29.0571 24.5247
Au 18.9246 31.2456 25.3476
Au 20.7975 33.3191 26.3625
Au 7.41068 12.878 18.563
Au 8.96197 14.7992 19.1041
Au 10.7218 16.8039 19.9702
Au 12.4233 19.0609 20.5927
Au 14.2094 21.265 21.4089
Au 15.7501 23.4575 22.2091
Au 17.5916 25.7086 22.9161
Au 19.5234 27.5217 23.6183
Au 21.3255 29.6457 24.555
Au 22.7956 31.9353 25.2213
Au 24.513 33.6994 26.3676
Au 9.54362 11.2994 17.636
Au 11.1291 13.2251 18.3137
Au 12.8582 15.1734 19.1289
Au 14.7744 17.5477 19.849
Au 16.2927 19.7003 20.4621
Au 18.2319 21.9661 21.2156
Au 19.9703 24.2383 22.0677
Au 21.7563 26.287 22.715
Au 23.6094 28.2718 23.5343
Au 25.0959 30.6408 24.5003
Au 26.6762 32.5083 25.2194
Au 11.858 9.73776 16.7158
Au 13.3232 11.7593 17.2549
Au 15.1758 13.8983 18.1881
Au 16.9215 15.9323 18.9499
Au 18.531 18.1733 19.7679
Au 20.369 20.437 20.4024
Au 22.0553 22.6786 21.1834
Au 24.0158 24.5904 21.8198
Au 25.7397 27.0279 22.4955
Au 27.3539 29.179 23.5818
Au 29.1132 31.0565 24.4123
Au 13.9146 8.27074 15.7792
Au 15.5525 10.2212 16.5335
Au 17.2719 12.3687 17.1967
Au 19.0265 14.4816 17.98
Au 20.9311 16.8834 18.7951
Au 22.6825 18.9187 19.4287
Au 24.4527 21.1185 20.2171
Au 26.2081 23.2731 21.0243
Au 27.9469 25.6098 21.8426
Au 29.559 27.8045 22.6376
Au 31.319 29.9738 23.3414
Au 16.0891 7.02404 14.9989
Au 17.9549 8.86299 15.5533
Au 19.6351 10.9521 16.3166
Au 21.3842 13.2808 17.1476
Au 23.1673 15.3098 17.824
Au 25.0465 17.3805 18.5424
Au 26.8786 19.426 19.3176
Au 28.4133 21.7199 20.259
Au 29.8198 23.9464 20.8558
Au 31.6589 25.9953 21.6235
Au 33.0516 27.9137 22.5122
Au 20.3382 7.37852 14.5729
Au 22.0014 9.34193 15.3805
Au 23.7535 11.8606 16.3345
Au 25.4644 13.9258 16.9639
Au 27.2817 16.0909 17.6759
Au 28.9827 17.9926 18.3827
Au 30.5372 20.0581 19.1516
Au 32.4016 22.2039 19.8815
Au 33.9349 24.5117 20.6567
Au 24.251 7.90814 14.4401
Au 25.9721 10.14 15.3721
Au 27.7381 12.2178 15.9278
Au 29.4739 14.3449 16.5984
Au 31.277 16.4211 17.3277
Au 32.8552 18.6487 18.414
Au 34.4395 20.8931 18.927
Au 28.0293 8.80229 14.543
Au 29.8594 11.094 15.1739
Au 31.5684 13.1524 15.8564
Au 33.3926 15.272 16.3031
Au 34.8021 17.185 17.4407
Au 5.91976 22.8389 20.4226
Au 7.45807 25.0937 21.539
Au 9.22551 27.0256 22.249
Au 10.8206 29.2679 23.0257
Au 12.5667 31.1591 23.7569
Au 14.6077 33.0453 24.5419
Au 6.2807 19.0372 18.9297
Au 8.05 21.1495 19.7184
Au 9.67442 23.5319 20.6781
Au 11.3044 25.6449 21.3176
Au 13.0876 27.7292 22.1619
Au 14.8292 29.702 22.8899
Au 16.8325 31.5273 23.6111
Au 18.4961 33.7627 24.4557
Au 7.15161 15.571 17.2882
Au 8.56115 17.5849 18.2462
Au 10.4004 19.5423 18.8914
Au 12.0932 21.7721 19.6414
Au 13.5131 23.9773 20.5181
Au 15.4181 25.9675 21.1789
Au 17.0756 28.2279 21.9828
Au 19.0593 30.138 22.6752
Au 20.6637 32.3659 23.4901
Au 22.495 34.4027 24.4101
Au 8.96929 13.7573 16.3956
Au 10.7374 15.9273 17.2507
Au 12.6082 18.047 17.8212
Au 14.1248 20.1463 18.7946
Au 15.9253 22.5577 19.5351
Au 17.6225 24.4621 20.1833
Au 19.3594 26.5568 21.0839
Au 21.2101 28.8214 21.8106
Au 23.0244 30.9955 22.6598
Au 24.5429 33.2331 23.4465
Au 11.1211 12.3336 15.5982
Au 12.8425 14.4063 16.3164
Au 14.6116 16.6185 17.1599
Au 16.3868 18.7245 17.9532
Au 18.2316 20.8313 18.5672
Au 20.0199 23.1739 19.4171
Au 21.6439 25.1356 19.9935
Au 23.5169 27.3465 20.8825
Au 25.2227 29.598 21.643
Au 26.8797 31.6719 22.5318
Au 13.4134 10.7052 14.6678
Au 15.1707 12.9655 15.5151
Au 16.9641 15.0899 16.0166
Au 18.621 17.2724 16.9339
Au 20.4277 19.5523 17.7441
Au 22.2803 21.6401 18.4993
Au 23.9057 23.7005 19.1409
Au 25.712 25.9259 19.997
Au 27.5523 28.3735 20.8686
Au 29.1069 30.4706 21.7241
Au 15.7115 9.24835 13.7126
Au 17.4234 11.412 14.4688
Au 19.174 13.6365 15.2655
Au 20.8334 15.7408 16.0622
Au 22.6558 18.1004 16.7353
Au 24.3933 20.0979 17.505
Au 26.2219 22.0909 18.3781
Au 27.8854 24.6148 18.9166
Au 29.5617 26.6602 19.6882
Au 31.3121 28.6598 20.6423
Au 17.9381 7.8925 13.0419
Au 19.7378 9.82289 13.709
Au 21.5864 12.1213 14.6643
Au 23.2601 14.3266 15.0595
Au 24.9818 16.4496 15.9155
Au 26.6497 18.5784 16.6572
Au 28.4826 20.8402 17.3375
Au 30.2229 22.8082 18.2567
Au 31.7121 24.8676 19.0233
Au 33.3305 27.0789 19.7126
Au 22.1323 8.50168 12.6966
Au 23.8049 10.4409 13.5339
Au 25.5275 12.8722 14.1217
Au 27.3001 14.895 14.9924
Au 29.0873 17.0601 15.6391
Au 30.8195 19.1992 16.5082
Au 32.3105 21.3273 17.3571
Au 34.1426 23.4769 18.1254
Au 25.9752 9.26017 12.7067
Au 27.6312 11.3394 13.3935
Au 29.3589 13.581 13.8159
Au 31.1347 15.5622 14.7564
Au 32.9788 17.6345 15.3448
Au 34.1896 19.8907 16.3352
Au 6.22835 21.7814 17.9989
Au 7.83437 23.9997 18.8174
Au 9.4672 26.2982 19.3509
Au 11.151 28.3501 20.4254
Au 12.7328 30.4413 20.8673
Au 14.5699 32.2824 21.9935
Au 16.4278 34.1069 22.8771
Au 6.62846 18.4822 16.3616
Au 8.35627 20.2776 17.1096
Au 9.9789 22.4011 18.0224
Au 11.5717 24.4849 18.6843
Au 13.1814 26.854 19.3572
Au 14.8788 28.7343 20.1811
Au 16.732 30.8274 20.8569
Au 18.5692 32.7762 21.7734
Au 20.1047 34.8881 22.4488
Au 8.75295 16.6297 15.4319
Au 10.4294 18.8039 16.2061
Au 12.1155 20.8739 16.9979
Au 13.8888 23.0605 17.6474
Au 15.3414 25.1571 18.5661
Au 17.384 27.2728 19.2711
Au 18.9483 29.2834 19.9548
Au 20.769 31.3262 20.6268
Au 22.2596 33.505 21.7443
Au 10.9482 14.9641 14.5228
Au 12.4965 17.0498 15.149
Au 14.18 19.1918 15.9307
Au 15.987 21.3765 16.8129
Au 17.5672 23.4836 17.4284
Au 19.4656 25.6025 18.2473
Au 21.1685 27.9682 19.0782
Au 23.0854 29.9835 19.8931
Au 24.5929 32.074 20.7897
Au 13.2179 13.4077 13.8305
Au 14.797 15.4989 14.3424
Au 16.5363 17.9275 15.0995
Au 18.3044 19.8469 15.9169
Au 19.8792 22.0765 16.6826
Au 21.8208 24.2509 17.3228
Au 23.5406 26.4559 18.2222
Au 25.2884 28.6953 18.9727
Au 27.0133 30.6977 19.7198
Au 15.3165 11.8494 12.9373
Au 17.0954 13.9401 13.5231
Au 18.7795 16.1217 14.096
Au 20.3466 18.3044 14.9544
Au 22.0987 20.7544 15.5843
Au 23.9601 22.6304 16.5648
Au 25.979 24.8808 17.3902
Au 27.5065 27.2464 17.9642
Au 29.2653 29.365 18.7877
Au 17.59 10.3121 11.8948
Au 19.3765 12.4582 12.5608
Au 20.9877 14.6046 13.4783
Au 22.7 16.9905 14.1492
Au 24.5103 18.993 14.8508
Au 26.438 21.1455 15.5299
Au 28.0013 23.2806 16.3645
Au 29.6608 25.5885 17.1009
Au 31.1887 27.6184 17.9654
Au 19.7756 9.05638 11.041
Au 21.6875 11.0212 11.9248
Au 23.2233 13.3944 12.3731
Au 25.1965 15.5615 13.2
Au 26.9245 17.6539 13.8988
Au 28.7 19.7055 14.8204
Au 30.4504 21.9321 15.2637
Au 31.8244 24.1361 16.4067
Au 33.2895 25.9782 17.2529
Au 23.936 9.79543 10.8348
Au 25.527 11.8375 11.4577
Au 27.2283 13.9559 12.1405
Au 29.151 16.0639 12.9035
Au 30.9339 18.3045 13.8376
Au 32.5031 20.3736 14.2963
Au 33.9203 22.5604 15.5364
Au 6.38653 20.8506 15.2716
Au 7.87606 22.9183 16.1099
Au 9.34823 25.1393 16.8019
Au 10.9635 27.0619 17.4711
Au 12.8145 29.3671 18.2502
Au 14.5596 31.2835 18.9871
Au 16.2987 33.2532 20.0909
Au 18.1468 35.1214 20.6761
Au 8.32305 19.1653 14.319
Au 9.94066 21.3532 15.0297
Au 11.3724 23.5911 15.713
Au 13.2391 25.6361 16.716
Au 15.0324 27.8817 17.4246
Au 16.8095 29.7505 18.0521
Au 18.5409 32.1663 18.9273
Au 20.3084 34.0789 19.6463
Au 10.5136 17.7619 13.3871
Au 11.9622 19.7852 14.1513
Au 13.6741 21.8627 15.0733
Au 15.5791 24.0969 15.6827
Au 17.1297 26.3405 16.5684
Au 18.8649 28.2406 17.2429
Au 20.7494 30.6256 17.905
Au 22.4622 32.5704 18.9697
Au 12.7989 16.0115 12.5273
Au 14.2436 18.1073 13.1938
Au 15.8421 20.4627 14.0268
Au 17.7588 22.4325 14.6917
Au 19.5415 24.8261 15.5289
Au 21.1545 26.8641 16.2696
Au 22.9834 28.9553 17.1114
Au 24.6689 31.0598 18.0311
Au 14.9669 14.4888 11.8439
Au 16.5563 16.775 12.4136
Au 18.45 18.9526 13.148
Au 19.9858 21.0744 13.9288
Au 21.8382 23.2789 14.6473
Au 23.6278 25.3958 15.6429
Au 25.3544 27.6787 16.2101
Au 27.07 29.7351 17.0885
Au 17.168 12.944 10.8936
Au 18.6505 15.2114 11.4753
Au 20.6515 17.3669 12.2971
Au 22.369 19.5679 13.0121
Au 24.0956 21.6209 13.7061
Au 25.8042 23.7775 14.5946
Au 27.6167 26.1435 15.4408
Au 29.215 28.274 16.0315
Au 19.3812 11.5967 10.0913
Au 21.1239 13.6653 10.7058
Au 22.867 15.9997 11.4663
Au 24.7056 18.1749 12.1178
Au 26.5913 20.1615 12.8426
Au 28.0715 22.3814 13.6394
Au 29.8567 24.458 14.4267
Au 31.4412 26.7779 15.2554
Au 21.5668 10.3063 9.4131
Au 23.2533 12.3183 9.65503
Au 24.9689 14.4235 10.5139
Au 26.8904 16.5125 11.3581
Au 28.6982 18.7299 11.9666
Au 30.1819 20.8551 12.674
Au 32.27 23.1758 13.6371
Au 33.4701 25.4184 14.7298
Au 8.00109 21.9791 13.3227
Au 9.29055 24.2239 14.0977
Au 10.9851 26.1962 14.7482
Au 12.8722 28.3006 15.6424
Au 14.5391 30.3949 16.3325
Au 16.4826 32.3209 17.145
Au 17.9647 34.548 18.0911
Au 9.86867 20.3767 12.2203
Au 11.6854 22.5549 13.1172
Au 13.3072 24.6471 13.9366
Au 15.0411 26.792 14.8237
Au 16.8128 28.981 15.3358
Au 18.7468 30.9515 16.3236
Au 20.2605 33.3468 17.0889
Au 12.2474 18.7623 11.3378
Au 13.8195 20.855 12.1174
Au 15.4263 23.052 13.0901
Au 17.1181 25.2425 13.8858
Au 19.0631 27.4691 14.6235
Au 20.9111 29.6761 15.2914
Au 22.8148 31.9061 15.8968
Au 14.392 17.1806 10.6802
Au 16.0722 19.4131 11.3031
Au 17.8235 21.6316 12.0763
Au 19.6178 23.7661 13.0704
Au 21.3589 25.9371 13.7281
Au 23.0791 28.1533 14.5281
Au 24.7669 30.3012 15.4296
Au 16.6772 15.6829 9.87254
Au 18.4163 17.9478 10.4602
Au 20.0183 20.032 11.2091
Au 21.892 22.2396 11.9562
Au 23.8706 24.3099 12.9039
Au 25.4395 26.4483 13.8085
Au 27.0381 28.7551 14.362
Au 18.7729 14.1301 8.79169
Au 20.7513 16.2583 9.52823
Au 22.4719 18.5681 10.474
Au 24.3022 20.6584 11.0913
Au 26.0794 22.6817 11.787
Au 27.7255 24.9995 12.6013
Au 29.3367 27.074 13.5435
Au 21.0397 12.8568 8.20937
Au 22.8015 14.873 8.85424
Au 24.5759 17.1234 9.58316
Au 26.6368 19.1229 10.1919
Au 28.1733 21.19 10.6955
Au 29.8773 23.4163 11.8812
Au 31.4898 25.4334 12.6754
Au 9.49831 22.9281 11.36
Au 10.9878 25.0748 12.1963
Au 12.764 27.258 12.9977
Au 14.5834 29.4958 13.8437
Au 16.4279 31.5836 14.4236
Au 18.3099 33.5319 15.3046
Au 11.7855 21.3306 10.5079
Au 13.1898 23.5084 11.2528
Au 15.0582 25.6747 12.0934
Au 16.8068 27.8213 12.7602
Au 18.5714 30.1553 13.5158
Au 20.4089 32.2348 14.359
Au 14.0265 19.5416 9.42869
Au 15.4834 21.7711 10.2928
Au 17.4974 24.1788 11.3804
Au 19.2687 26.3457 12.1105
Au 21.0701 28.7505 12.701
Au 22.8629 30.8723 13.4388
Au 16.3186 18.0684 8.51557
Au 17.8642 20.359 9.22239
Au 19.6819 22.5823 10.3359
Au 21.4059 24.7909 11.1522
Au 23.1379 27.1429 11.8702
Au 24.8139 29.1387 12.7841
Au 18.6339 16.7795 7.84936
Au 20.2724 18.8222 8.63585
Au 21.9835 21.0757 9.42794
Au 23.8703 23.292 10.1089
Au 25.5447 25.355 11.066
Au 27.2517 27.7763 11.654
Au 20.9208 15.4819 6.94356
Au 22.5714 17.3483 7.59354
Au 24.3145 19.5898 8.53129
Au 25.9018 21.7684 9.17498
Au 27.8584 23.789 9.88844
Au 29.221 26.0228 10.7883
Au 11.2071 23.8983 9.57213
Au 13.0636 26.1171 10.3617
Au 14.6241 28.1699 11.2949
Au 16.2021 30.6502 11.8943
Au 18.3677 32.5016 12.7379
Au 13.4844 22.1006 8.41835
Au 15.1524 24.581 9.52657
Au 17.017 26.6289 10.1956
Au 18.8559 28.8497 11.096
Au 20.5303 31.3195 11.7243
Au 15.6642 20.7362 7.52986
Au 17.4047 23.0488 8.74977
Au 19.2877 25.3283 9.40908
Au 20.8809 27.473 10.242
Au 22.769 29.7799 10.9359
Au 17.9707 19.4256 6.63056
Au 19.9114 21.5651 7.64603
Au 21.4444 23.791 8.48404
Au 23.2865 25.9229 9.42482
Au 25.0646 28.0197 10.1142
Au 20.4033 17.9927 5.94427
Au 22.1377 19.8662 6.75114
Au 23.4191 22.1362 7.39563
Au 25.5393 24.4984 8.37696
Au 27.0754 26.6546 9.14886
Au 13.0537 25.029 7.9699
Au 14.961 27.3106 8.63865
Au 16.5028 29.2996 9.59995
Au 18.2333 31.2719 10.2531
Au 15.2584 23.5418 7.0901
Au 16.9796 25.6588 7.49716
Au 18.5668 27.9718 8.46217
Au 20.6287 29.9911 9.25662
Au 17.6719 21.9145 5.97475
Au 19.2267 24.1529 6.88858
Au 21.2592 26.3519 7.53443
Au 22.8238 28.5019 8.41066
Au 19.8998 20.4009 5.22762
Au 21.3606 22.8372 5.93584
Au 23.2255 24.7911 6.59312
Au 24.8307 26.8687 7.43135
Au 6.2644 21.1371 24.1649
Au 7.67504 23.3622 25.0836
Au 9.38982 25.3088 26.0476
Au 11.2681 27.3774 26.9147
Au 12.9589 29.6537 27.4982
Au 15.1395 31.5167 28.0953
Au 6.5675 17.3168 22.416
Au 8.28741 19.5157 23.4099
Au 9.86102 21.6404 24.3488
Au 11.7793 23.8702 24.9719
Au 13.5395 25.7846 25.8095
Au 15.1784 27.895 26.4281
Au 17.0522 29.9971 27.3418
Au 18.934 32.0739 28.1867
Au 7.22596 13.7968 21.0926
Au 8.71802 15.9125 21.7535
Au 10.5848 17.984 22.6457
Au 12.1525 20.1332 23.3897
Au 14.0322 22.2794 24.0957
Au 15.8241 24.3774 24.8846
Au 17.4911 26.5339 25.8338
Au 19.274 28.5945 26.1856
Au 20.9331 30.6646 27.2473
Au 22.5657 32.5621 28.195
Au 9.38752 12.1449 20.3036
Au 10.9496 14.2196 21.129
Au 12.7296 16.3387 21.7446
Au 14.5227 18.587 22.5423
Au 16.2673 20.692 23.2493
Au 18.0571 22.8837 23.8347
Au 19.9177 24.9264 24.6793
Au 21.6069 27.1528 25.5066
Au 23.4107 29.3532 26.3574
Au 24.9312 31.4335 27.3404
Au 11.4312 10.434 19.3924
Au 13.111 12.5127 19.963
Au 14.9967 14.8823 20.8067
Au 16.7466 17.0016 21.6319
Au 18.5258 19.261 22.321
Au 20.3453 21.4441 23.0762
Au 22.1691 23.6307 23.7654
Au 23.8145 25.6246 24.663
Au 25.6203 27.7997 25.6301
Au 27.142 29.9636 26.3642
Au 13.7436 9.06701 18.4642
Au 15.4282 11.1584 19.2593
Au 17.3406 13.2615 19.8844
Au 19.1277 15.643 20.6146
Au 20.7984 17.7549 21.4269
Au 22.6023 20.0159 22.2683
Au 24.4848 22.0856 23.1335
Au 26.1756 24.2665 23.7646
Au 27.8991 26.4688 24.5022
Au 29.4807 28.5431 25.2271
Au 16.2907 7.59885 17.6403
Au 17.9015 9.67762 18.2618
Au 19.5818 11.8664 19.015
Au 21.359 13.9563 19.8271
Au 23.1104 16.3842 20.6052
Au 24.8411 18.4187 21.323
Au 26.5972 20.5382 22.1611
Au 28.4074 22.7534 22.927
Au 30.1448 24.9486 23.8137
Au 31.7495 27.0026 24.504
Au 18.6254 6.44347 16.6493
Au 20.3561 8.31838 17.2936
Au 21.8746 10.6439 18.1065
Au 23.6539 12.6502 18.9084
Au 25.3542 14.7302 19.4695
Au 27.1408 16.6904 20.4519
Au 28.8196 18.8862 21.1792
Au 30.6445 21.1255 21.7335
Au 32.2367 23.3302 22.4843
Au 33.6985 25.3814 23.3923
Au 22.3928 6.89849 16.3333
Au 24.1304 8.99569 17.0696
Au 25.9818 11.0961 18.0036
Au 27.6146 13.3814 18.6202
Au 29.6325 15.3661 19.4138
Au 31.2904 17.379 20.4256
Au 32.8422 19.6698 21.1401
Au 34.5904 22.0308 21.7779
Au 26.3231 7.78004 16.4487
Au 28.3901 9.56837 17.2062
Au 30.0785 11.7272 17.7145
Au 31.7894 13.8577 18.4782
Au 33.3573 15.8636 19.3592
Au 35.0131 18.1403 20.0346
Au 6.85376 18.7232 25.4605
Au 8.16765 20.8054 26.2226
Au 9.84049 22.9117 27.0975
Au 11.6789 24.8996 27.4837
Au 13.5993 26.8247 28.3004
Au 15.0174 28.8974 29.2286
Au 17.0483 30.7819 29.8102
Au 7.17898 14.9167 23.8855
Au 8.67584 16.8632 24.6097
Au 10.3779 19.1845 25.1691
Au 11.977 21.1621 26.0902
Au 14.0099 23.1708 26.765
Au 15.7761 25.1437 27.6433
Au 17.3284 27.2801 28.4518
Au 19.3101 29.3282 28.9694
Au 20.9397 31.2118 30.0507
Au 9.05577 12.9254 23.0474
Au 10.9858 14.9994 23.7495
Au 12.6246 17.4777 24.3276
Au 14.2325 19.679 25.1313
Au 16.3676 21.8861 26.0299
Au 18.085 23.8573 26.5886
Au 19.7781 25.9609 27.4629
Au 21.5232 27.8953 28.0832
Au 23.1376 30.1142 28.9973
Au 11.5151 11.5785 21.9675
Au 13.3095 13.6463 22.7489
Au 15.0374 16.0405 23.623
Au 16.8403 18.1569 24.2737
Au 18.5883 20.2523 24.985
Au 20.3586 22.3683 25.7379
Au 21.9896 24.4765 26.6903
Au 24.0113 26.4774 27.383
Au 25.5856 28.696 28.3179
Au 13.7721 10.144 21.1069
Au 15.5288 12.2962 21.8206
Au 17.1704 14.4267 22.4729
Au 19.0533 16.6658 23.3843
Au 20.7419 18.8178 24.1118
Au 22.6866 20.971 25.0705
Au 24.3222 23.1021 25.8269
Au 26.2649 25.2233 26.5179
Au 27.9093 27.4462 27.3506
Au 16.088 8.69922 20.1918
Au 17.9129 10.7825 20.8996
Au 19.5078 12.9622 21.5521
Au 21.5753 15.2073 22.4476
Au 23.1183 17.29 23.387
Au 24.9054 19.4244 24.1433
Au 26.6324 21.5923 24.8178
Au 28.3172 23.7499 25.6711
Au 29.914 25.8166 26.3243
Au 18.3933 7.06908 19.5924
Au 20.0589 9.0986 20.0475
Au 21.8086 11.3316 20.7943
Au 23.7546 13.7346 21.5677
Au 25.5295 15.7871 22.4064
Au 26.9975 17.9518 23.2418
Au 28.7155 20.1125 23.8332
Au 30.6041 22.2973 24.5613
Au 32.2338 24.4328 25.4217
Au 20.6892 5.84996 18.3075
Au 22.4213 7.86566 19.0248
Au 24.2258 9.93941 19.8848
Au 25.908 12.1242 20.6642
Au 27.6573 14.1343 21.3838
Au 29.2744 16.2147 22.1819
Au 31.0105 18.3949 22.9112
Au 32.6559 20.5795 23.745
Au 34.1763 22.6888 24.2816
Au 24.4894 6.50841 18.0279
Au 26.4494 8.38367 19.1789
Au 28.0798 10.8747 19.641
Au 29.8557 12.8568 20.4622
Au 31.5411 14.8316 21.4908
Au 33.4597 16.9095 21.952
Au 34.7645 19.2506 22.7435
Au 7.38097 15.5556 26.4319
Au 8.80863 18.0916 27.1868
Au 10.1582 20.2609 28.0897
Au 12.0645 22.2097 28.7269
Au 13.6763 24.3045 29.4251
Au 15.5097 26.1661 30.3097
Au 17.1739 28.2283 31.111
Au 18.9666 30.0285 31.5625
Au 9.14979 14.0906 25.4443
Au 10.8913 16.1329 26.4809
Au 12.3859 18.5819 27.1938
Au 14.2286 20.6001 27.8855
Au 16.1899 22.7389 28.7613
Au 17.7792 24.7428 29.4922
Au 19.594 26.8916 30.0746
Au 21.4399 28.7694 30.9551
Au 11.4824 12.5958 24.7263
Au 12.9998 14.8253 25.4536
Au 14.8608 17.1615 26.0936
Au 16.6874 19.1471 26.9901
Au 18.4026 21.3985 27.8718
Au 20.1714 23.3503 28.5052
Au 22.1708 25.5493 29.3057
Au 24.0085 27.3682 30.116
Au 13.6216 11.0302 23.7667
Au 15.4755 13.5355 24.414
Au 17.1788 15.4601 25.4149
Au 18.8864 17.6212 26.0604
Au 20.6903 19.859 26.8472
Au 22.6265 21.9572 27.7992
Au 24.4769 24.0794 28.6727
Au 26.1487 26.1259 29.2129
Au 15.9425 9.64855 22.7781
Au 17.7698 11.6242 23.4353
Au 19.4337 13.9369 24.3998
Au 21.0351 16.0876 25.2516
Au 22.8907 18.3945 26.0235
Au 24.846 20.4173 26.7793
Au 26.7637 22.6286 27.4182
Au 28.4653 24.6958 28.4454
Au 18.2762 8.12644 22.1923
Au 19.9832 10.2434 22.6063
Au 21.6853 12.5559 23.3191
Au 23.5194 14.5631 24.2884
Au 25.2613 16.8342 25.1905
Au 27.3026 18.9431 25.9744
Au 28.8402 21.0579 26.6032
Au 30.4913 23.2919 27.5329
Au 20.6675 6.58331 21.0955
Au 22.257 8.67574 21.6677
Au 23.9938 10.7359 22.4269
Au 25.8428 13.0098 23.3092
Au 27.4693 15.2928 24.223
Au 29.2752 17.353 24.7602
Au 30.9711 19.5012 25.715
Au 32.527 21.732 26.3769
Au 22.9163 5.47835 19.8482
Au 24.6233 7.29254 20.7073
Au 26.309 9.52999 21.7169
Au 28.1797 11.6616 22.3734
Au 29.8802 13.83 23.1103
Au 31.4493 15.8977 23.894
Au 33.4199 17.8396 24.778
Au 34.7119 20.2778 25.3376
Au 9.38746 14.9168 28.1702
Au 10.7429 17.5157 28.9064
Au 12.1975 19.568 29.8497
Au 14.2049 21.4933 30.5738
Au 15.8499 23.4934 31.3835
Au 17.6574 25.7736 32.046
Au 19.6551 27.6031 32.5988
Au 11.2925 13.2658 27.2511
Au 13.1025 15.9756 28.1438
Au 14.7963 18.0135 28.795
Au 16.6776 20.0674 29.6328
Au 18.257 22.217 30.6504
Au 20.2386 24.2146 31.3582
Au 22.1175 26.2649 31.994
Au 13.7189 12.1131 26.4386
Au 15.17 14.292 27.0996
Au 16.8767 16.4663 28.1089
Au 18.8292 18.4801 28.7537
Au 20.7846 20.909 29.6358
Au 22.5703 22.9178 30.506
Au 24.4042 24.8785 31.1965
Au 15.7565 10.7139 25.4953
Au 17.6551 12.6909 26.278
Au 19.3414 14.9712 27.1182
Au 21.2488 17.1604 27.8574
Au 23.01 19.4162 28.6682
Au 24.8926 21.4467 29.415
Au 26.6409 23.3807 30.3545
Au 18.3054 9.06579 24.686
Au 19.9044 11.4011 25.1555
Au 21.7155 13.3653 26.2164
Au 23.4403 15.7319 26.7812
Au 25.2978 17.8883 27.6203
Au 27.0484 20.0783 28.502
Au 28.9413 21.9951 29.2377
Au 20.5615 7.58438 23.8096
Au 22.1923 9.73972 24.3391
Au 24.0486 11.8518 25.1626
Au 25.7502 14.1168 25.9938
Au 27.4982 16.301 26.7585
Au 29.3284 18.2243 27.6923
Au 31.158 20.4158 28.2987
Au 22.824 6.29126 22.7534
Au 24.4501 8.34803 23.5463
Au 26.2984 10.4272 24.4075
Au 28.0027 12.609 24.8155
Au 29.7384 14.7283 25.9024
Au 31.4733 16.8815 26.5427
Au 33.2939 19.1708 27.2848
Au 11.4437 14.9682 29.7207
Au 13.0109 16.899 30.6007
Au 14.7885 19.206 31.4909
Au 16.5674 21.0877 32.3215
Au 18.3919 23.113 33.1153
Au 19.9529 25.1361 33.731
Au 13.3724 13.2699 28.8798
Au 15.1188 15.1961 29.9176
Au 16.9306 17.5169 30.6704
Au 18.8241 19.7211 31.5584
Au 20.6959 21.5586 32.1383
Au 22.3565 23.7174 33.2227
Au 15.6439 11.4653 28.161
Au 17.5598 13.7203 29.0142
Au 19.361 15.9743 29.5135
Au 21.0718 18.1843 30.5605
Au 23.0173 20.1397 31.3454
Au 24.8652 22.1591 32.1527
Au 17.9027 10.0737 26.9888
Au 19.6927 12.0449 27.9646
Au 21.6703 14.6223 28.7764
Au 23.4182 16.6407 29.4669
Au 25.1193 18.8207 30.3756
Au 26.9975 20.8365 31.2445
Au 20.4495 8.81538 26.4325
Au 22.2073 10.8004 27.0035
Au 23.9985 13.0345 27.7707
Au 25.5783 15.0302 28.6351
Au 27.3197 17.3509 29.5121
Au 29.3416 19.4677 30.0851
Au 22.7467 7.20645 25.4271
Au 24.6058 9.14059 26.2028
Au 26.3103 11.5999 26.901
Au 27.8531 13.6164 27.5779
Au 29.7041 15.6049 28.5995
Au 31.3578 17.7981 29.0909
Au 13.3693 14.2936 31.689
Au 15.0427 16.7284 32.335
Au 16.9137 18.5093 33.2631
Au 18.7015 20.5697 34.2751
Au 20.5968 22.4326 34.7247
Au 15.4922 12.5389 30.572
Au 17.4143 14.9184 31.4511
Au 19.1154 16.9172 32.3087
Au 21.0389 19.08 33.1672
Au 23.0521 21.058 33.9443
Au 17.8914 10.9227 29.7379
Au 19.6739 13.321 30.5308
Au 21.5337 15.5045 31.5112
Au 23.3374 17.4734 32.1828
Au 25.3212 19.4717 33.0607
Au 20.0074 9.50052 29.0125
Au 22.0174 11.9305 29.4432
Au 23.749 13.9403 30.4355
Au 25.6165 15.9057 31.4047
Au 27.2046 17.9502 32.1604
Au 22.5719 8.4006 27.959
Au 24.4743 10.3506 28.8696
Au 26.14 12.4646 29.6111
Au 27.8573 14.4471 30.3254
Au 29.4374 16.7131 30.9448
Au 15.6265 14.0194 32.9543
Au 17.1401 15.9771 33.945
Au 19.2875 17.8335 34.9718
Au 20.9856 19.8852 35.6562
Au 17.8295 12.1222 32.1883
Au 19.458 14.381 33.0407
Au 21.3834 16.339 33.9612
Au 23.4066 18.582 34.573
Au 20.1499 10.8393 31.353
Au 21.8717 12.8095 32.2738
Au 23.6544 14.6958 33.2025
Au 25.2915 16.7763 33.9773
Au 22.2918 9.29586 30.2427
Au 23.878 11.2623 31.2959
Au 25.7774 13.3256 32.304
Au 27.7365 15.403 32.8955
