831
 Atoms. Timestep: 50000
Au 21.9205 14.3919 33.2824
Au 21.5033 15.6011 30.9897
Au 21.2776 16.9229 28.2731
Au 20.9766 18.0379 25.5131
Au 20.6059 19.2481 23.1536
Au 20.2669 20.4519 20.3707
Au 20.1943 21.4454 17.7221
Au 19.8608 22.7848 15.1529
Au 19.5248 23.9323 12.6026
Au 19.2399 25.0827 9.98126
Au 18.8629 26.1362 7.50951
Au 19.2175 15.1715 32.5541
Au 18.9046 16.1431 29.8036
Au 18.7188 17.4272 27.2029
Au 18.3371 18.6904 24.6494
Au 18.1463 19.7535 22.0042
Au 17.7614 20.9338 19.2679
Au 17.4699 22.1016 16.6521
Au 17.3583 23.3984 14.0725
Au 16.9421 24.4394 11.4548
Au 16.7712 25.5458 8.84894
Au 21.0167 17.0693 33.2183
Au 20.6024 18.2894 30.7337
Au 20.5335 19.5421 28.0393
Au 20.0904 20.706 25.5331
Au 19.7618 21.9707 22.7599
Au 19.4792 23.1529 19.9702
Au 19.2118 24.3006 17.359
Au 19.0461 25.5815 14.8164
Au 18.7917 26.7263 12.3207
Au 18.4554 27.8291 9.76924
Au 23.7565 16.3287 32.5782
Au 23.4121 17.6532 30.198
Au 23.2876 18.7893 27.2535
Au 22.8082 20.0692 24.8254
Au 22.5216 21.1576 22.3588
Au 22.3413 22.3201 19.4588
Au 22.0793 23.434 16.7116
Au 21.8189 24.9096 14.0575
Au 21.4754 25.8599 11.4901
Au 21.0289 27.0793 8.94826
Au 23.7396 13.8116 31.5383
Au 23.3369 15.2353 28.9933
Au 22.8917 16.1578 26.1605
Au 22.6413 17.2123 23.5503
Au 22.3728 18.5491 21.0615
Au 22.1528 19.7781 18.386
Au 21.7247 20.7328 15.433
Au 21.632 22.1916 13.1689
Au 21.3533 23.3191 10.5612
Au 21.1808 24.5744 8.0702
Au 20.6461 12.9838 31.3218
Au 20.3604 14.2254 28.7339
Au 20.2254 15.1169 25.9738
Au 20.02 16.2529 23.4443
Au 19.6629 17.6065 21.0063
Au 19.3416 18.7872 18.2299
Au 19.0732 19.8825 15.6026
Au 18.9413 21.1306 13.0952
Au 18.5442 22.3566 10.3764
Au 18.3338 23.4781 8.01027
Au 16.7766 15.5906 31.1829
Au 16.4538 16.7713 28.9958
Au 16.0605 17.7321 26.077
Au 15.655 18.9215 23.4464
Au 15.41 20.1314 20.7916
Au 15.1098 21.4935 18.1053
Au 14.8812 22.6419 15.4877
Au 14.7101 23.9224 12.8824
Au 14.5799 25.2012 10.5468
Au 18.4308 17.6306 32.0726
Au 18.1552 18.9719 29.6266
Au 17.6629 20.2873 27.0802
Au 17.5126 21.324 24.3164
Au 16.9651 22.6393 21.6939
Au 16.9066 23.4785 19.0054
Au 16.5311 24.7623 16.4201
Au 16.3714 25.9911 13.7351
Au 16.3795 27.0541 11.142
Au 19.9561 19.9135 32.7916
Au 20.0717 21.1254 30.4928
Au 19.648 22.2342 27.7966
Au 19.2018 23.5367 25.0169
Au 18.9498 24.8348 22.5249
Au 18.8256 25.6814 19.8166
Au 18.5294 27.0278 17.1581
Au 18.335 28.3585 14.526
Au 18.1392 29.318 12.226
Au 22.7428 19.0847 32.4656
Au 22.615 20.3079 29.7523
Au 22.329 21.6543 27.0545
Au 21.87 22.6852 24.5279
Au 21.6898 23.8263 21.7836
Au 21.4846 24.9952 19.1246
Au 21.1863 26.2034 16.4616
Au 20.971 27.4773 13.7675
Au 20.5718 28.6084 11.3967
Au 25.5954 18.6238 31.7132
Au 25.4368 19.5506 29.3798
Au 25.117 20.901 26.5228
Au 24.8374 22.0568 23.8539
Au 24.436 22.9809 21.2219
Au 24.1083 24.3827 18.2919
Au 23.8105 25.5634 15.6458
Au 23.7969 26.7482 12.9032
Au 23.3604 27.7947 10.5456
Au 25.5402 15.9157 30.6372
Au 25.2076 17.0613 27.8826
Au 25.0066 18.1099 25.2773
Au 24.6559 19.2756 22.8162
Au 24.4017 20.3969 20.1425
Au 24.1838 21.5947 17.4358
Au 23.6921 22.9124 14.6909
Au 23.6264 24.1186 12.0007
Au 23.2908 25.3572 9.53865
Au 25.2964 13.3234 29.2053
Au 25.0031 14.4976 26.719
Au 24.9483 15.6385 24.1362
Au 24.3851 16.5011 21.4266
Au 24.1343 17.8254 18.8935
Au 23.9591 19.0627 16.3058
Au 23.8589 20.2931 13.5643
Au 23.4088 21.4297 10.9959
Au 23.3557 22.8648 8.60396
Au 22.645 12.5001 29.4076
Au 22.3839 13.3844 26.7962
Au 22.1076 14.4042 24.081
Au 21.6265 15.5203 21.3268
Au 21.5645 16.9665 18.8686
Au 21.1989 18.18 15.9295
Au 20.975 19.2452 13.3763
Au 20.6276 20.543 10.7644
Au 20.5853 21.9247 8.23962
Au 19.9033 11.4717 29.1942
Au 19.5817 12.4731 26.5644
Au 19.228 13.5365 23.8989
Au 18.8906 14.7986 21.2038
Au 18.7854 15.9914 18.6558
Au 18.4181 17.0766 16.0031
Au 18.2949 18.3404 13.2941
Au 17.845 19.7132 10.7337
Au 17.5194 20.8597 8.30199
Au 18.1879 13.4793 30.2383
Au 17.8247 14.6519 27.6688
Au 17.7116 15.8284 25.0083
Au 17.4296 16.9454 22.5577
Au 17.1539 18.0245 19.6679
Au 16.6952 19.3456 17.1676
Au 16.4567 20.403 14.5677
Au 16.2642 21.7267 11.9114
Au 15.9198 22.9315 9.41402
Au 13.9571 16.1415 30.1727
Au 13.7869 17.1997 27.7791
Au 13.3983 18.3229 25.1615
Au 13.1128 19.7418 22.4842
Au 12.8842 20.6836 19.7866
Au 12.5348 22.0077 17.0903
Au 12.3431 23.3002 14.3454
Au 12.1563 24.3569 11.8346
Au 15.9157 18.3721 31.1801
Au 15.5552 19.5814 28.6686
Au 15.1544 20.5476 26.0342
Au 14.9124 21.766 23.405
Au 14.5056 22.8631 20.6144
Au 14.2807 24.1374 17.7643
Au 13.9652 25.606 15.2474
Au 13.8251 26.7432 12.7567
Au 17.6391 20.669 31.6989
Au 17.0849 21.96 29.4149
Au 16.9166 22.8344 26.656
Au 16.6774 23.962 24.0638
Au 16.5202 25.2404 21.2768
Au 16.2018 26.3331 18.7203
Au 15.9194 27.5035 16.1713
Au 15.8918 28.6746 13.5077
Au 19.1747 22.9138 32.7014
Au 19.0455 23.8386 30.2371
Au 18.6998 24.905 27.5619
Au 18.4965 26.2283 24.7099
Au 18.2691 27.4633 21.9887
Au 17.8969 28.4162 19.5123
Au 17.5861 29.8382 16.9388
Au 17.6955 30.9126 14.4301
Au 22.1632 21.8479 32.2646
Au 21.9223 22.9717 29.5168
Au 21.4421 24.2874 27.0065
Au 21.2071 25.3596 24.1283
Au 21.1106 26.4834 21.4346
Au 20.6142 27.6939 18.8942
Au 20.4703 28.9047 16.3582
Au 20.3082 30.3227 13.6511
Au 24.6586 21.1746 31.4815
Au 24.4793 22.3592 28.9348
Au 24.0854 23.6164 26.2744
Au 23.887 24.6 23.4306
Au 23.6802 25.7984 20.7868
Au 23.3149 27.0877 18.3433
Au 23.0289 28.194 15.5356
Au 22.9043 29.4368 13.0272
Au 27.535 20.6154 30.9333
Au 27.1424 21.4694 28.3874
Au 26.8652 22.7479 25.6458
Au 26.4982 23.8086 22.7174
Au 26.3466 25.1832 19.9861
Au 26.1179 26.2275 17.428
Au 25.8341 27.4428 14.9752
Au 25.4613 28.618 12.3471
Au 27.5186 17.808 29.7764
Au 27.2662 18.9222 27.1473
Au 26.8668 19.8759 24.4136
Au 26.5154 21.0899 21.7583
Au 26.3008 22.4526 19.0048
Au 25.8446 23.5395 16.4155
Au 25.6396 24.8423 13.7456
Au 25.6617 26.0513 11.0213
Au 27.1034 15.3563 28.4936
Au 27.2 16.4219 25.8329
Au 26.849 17.2825 23.014
Au 26.2073 18.47 20.6734
Au 26.1271 19.7925 18.0018
Au 25.8115 20.8907 15.363
Au 25.7828 22.3249 12.7972
Au 25.4605 23.4581 10.1433
Au 27.0081 12.6274 27.0453
Au 26.9069 13.5847 24.5796
Au 26.6871 14.6565 22.0062
Au 26.4181 15.841 19.352
Au 25.921 16.9734 16.9026
Au 25.7746 18.4455 13.9677
Au 25.6026 19.7104 11.1838
Au 25.2924 20.9578 8.82765
Au 24.4482 11.7181 27.1895
Au 24.1305 12.7283 24.5659
Au 23.9537 13.7698 21.927
Au 23.6287 14.9958 19.3387
Au 23.1662 16.1544 16.697
Au 23.0622 17.452 14.0297
Au 22.8145 18.8019 11.4124
Au 22.5323 20.0817 8.82096
Au 21.6449 10.6808 27.2657
Au 21.5128 11.6992 24.5041
Au 20.8036 12.8051 21.7641
Au 20.7577 14.0968 19.0855
Au 20.5574 15.3888 16.4513
Au 20.4121 16.4237 13.7665
Au 19.9636 17.8678 11.2625
Au 19.582 19.0672 8.72945
Au 18.7623 9.88211 27.119
Au 18.4925 10.7826 24.4137
Au 18.1362 11.9831 21.7788
Au 17.9337 13.2492 19.2604
Au 17.6914 14.32 16.5244
Au 17.8698 15.6088 13.7408
Au 17.107 17.0026 11.1538
Au 16.8826 18.0683 8.52728
Au 17.2564 11.8246 28.2156
Au 16.8272 13.0121 25.6379
Au 16.6398 14.1109 22.9593
Au 16.3439 15.3653 20.3635
Au 16.1698 16.5452 17.5367
Au 16.2066 17.6651 14.8257
Au 15.5874 19.1066 12.3855
Au 15.2243 20.2109 9.69266
Au 15.5645 13.8308 29.2896
Au 15.2944 15.0992 26.739
Au 14.9627 16.2913 24.1109
Au 14.88 17.4152 21.3527
Au 14.4946 18.546 18.625
Au 14.1788 19.7479 15.8149
Au 13.813 21.0827 13.4868
Au 13.5099 22.2879 10.8936
Au 11.4533 16.6874 29.0331
Au 11.0538 17.7527 26.4648
Au 10.9453 19.1274 24.0297
Au 10.5656 20.1785 21.3211
Au 10.3651 21.4334 18.6677
Au 9.99721 22.609 15.8747
Au 9.75722 23.489 13.2213
Au 13.1942 18.8954 30.0584
Au 12.7557 20.0091 27.4422
Au 12.5051 21.2219 24.9382
Au 12.3902 22.1883 22.1908
Au 12.0061 23.4915 19.411
Au 11.6034 24.885 16.6578
Au 11.3994 25.9274 14.242
Au 15.0025 21.1126 30.9335
Au 14.5543 22.2842 28.1967
Au 14.2986 23.2597 25.6049
Au 14.2734 24.6384 22.9599
Au 13.8218 25.693 20.237
Au 13.7517 27.0326 17.5778
Au 13.1835 28.1773 14.9445
Au 16.6094 23.4339 31.7254
Au 16.3728 24.6346 29.3337
Au 16.1019 25.578 26.5149
Au 16.0743 26.7274 23.6489
Au 15.5163 27.8945 21.1683
Au 15.3831 29.077 18.5041
Au 15.1581 30.1693 15.6954
Au 18.2918 25.4462 32.3987
Au 18.2309 26.4179 29.6792
Au 17.9056 27.6875 27.1022
Au 17.6583 28.9104 24.3808
Au 17.2108 30.1793 21.9036
Au 17.3172 31.2964 19.3353
Au 16.9698 32.4451 16.816
Au 21.2583 24.3806 31.9289
Au 21.0131 25.7353 29.2147
Au 20.6901 27.0492 26.5315
Au 20.3282 28.3081 23.8177
Au 20.1571 29.4755 21.2336
Au 20.1397 30.4622 18.6003
Au 19.7072 31.6911 16.1743
Au 23.9353 24.0102 31.4559
Au 23.6065 25.0859 28.7147
Au 23.405 26.1286 25.9018
Au 22.9948 27.3151 23.2904
Au 22.9302 28.6404 20.5966
Au 22.7704 29.7653 17.9489
Au 22.3277 30.8996 15.4433
Au 26.3735 23.0989 30.78
Au 26.3199 24.2699 27.8561
Au 25.997 25.2947 25.2645
Au 25.7594 26.4463 22.4624
Au 25.6167 27.6744 19.7864
Au 25.5326 29.0698 17.2729
Au 25.0034 30.1795 14.673
Au 29.0184 22.4949 29.9823
Au 28.9876 23.5739 27.4395
Au 28.7238 24.7697 24.6425
Au 28.5112 25.6949 21.9056
Au 28.397 26.9118 19.241
Au 28.0745 28.1868 16.6997
Au 27.6106 29.275 14.2444
Au 29.3817 19.6942 28.7948
Au 29.0155 20.8179 26.2358
Au 28.5596 21.8372 23.4648
Au 28.457 23.1544 20.7643
Au 28.3001 24.2871 18.1579
Au 27.993 25.3579 15.6624
Au 27.5264 26.5592 13.0248
Au 29.3318 17.0738 27.4897
Au 29.2017 18.2527 24.9144
Au 28.5146 19.3939 22.1705
Au 28.2328 20.355 19.6687
Au 28.2358 21.7194 16.9108
Au 28.0852 22.8856 14.4135
Au 27.5338 24.1011 11.8262
Au 28.9111 14.3142 26.4115
Au 28.8107 15.394 23.8905
Au 28.363 16.6674 21.0342
Au 28.2018 17.8953 18.3799
Au 28.0164 19.1538 15.7523
Au 27.4999 20.3116 13.209
Au 27.3574 21.5325 10.3765
Au 28.9883 11.8107 25.2237
Au 28.8634 12.8306 22.5885
Au 28.3864 13.9199 19.9409
Au 27.9485 15.2897 17.3583
Au 27.6383 16.3837 14.6745
Au 27.4605 17.5496 12.0532
Au 27.2826 18.7821 9.44075
Au 26.1972 10.7842 24.9978
Au 25.9823 11.848 22.5227
Au 25.6716 13.1272 19.7384
Au 25.271 14.2521 17.1165
Au 25.1471 15.6261 14.4655
Au 24.8032 16.8583 11.7449
Au 24.5056 18.0276 9.21996
Au 23.5203 9.99496 25.1566
Au 23.1721 11.0299 22.4854
Au 22.7216 12.1644 19.8175
Au 22.3944 13.4081 16.9306
Au 22.5099 14.5488 14.4529
Au 22.1672 15.9319 11.6293
Au 21.8747 17.1388 9.07757
Au 20.6789 9.08457 25.0461
Au 20.4116 10.2169 22.4954
Au 20.0617 11.3597 19.632
Au 19.8101 12.3402 16.9904
Au 19.7637 13.7009 14.1827
Au 19.3941 14.8062 11.4976
Au 19.1332 16.2726 9.05879
Au 17.7509 8.04733 24.8659
Au 17.5417 9.29333 22.2457
Au 17.2464 10.3513 19.5847
Au 17.0526 11.7797 17.0108
Au 16.961 12.8441 14.2319
Au 16.7322 14.1523 11.6774
Au 16.5118 15.3504 9.08828
Au 16.1323 10.1465 25.9509
Au 15.8252 11.3256 23.4512
Au 15.6208 12.5714 20.6773
Au 15.4371 14.0913 17.9623
Au 15.3883 15.0235 15.1828
Au 14.9068 16.3497 12.5199
Au 14.7063 17.5311 9.94059
Au 14.5419 12.4637 27.1105
Au 14.199 13.4099 24.5846
Au 14.1222 14.6313 22.0117
Au 13.9335 16.0374 19.1804
Au 13.5101 17.041 16.4849
Au 13.1447 18.1814 13.7865
Au 13.0509 19.3747 11.208
Au 12.9259 14.2635 28.368
Au 12.6593 15.5291 25.7889
Au 12.5563 16.8568 22.9862
Au 12.3047 18.0966 20.4004
Au 12.0714 19.1667 17.6381
Au 11.5429 20.5522 14.9582
Au 11.34 21.4645 12.3217
Au 8.88141 17.3678 28.1688
Au 8.56745 18.4893 25.4222
Au 8.24158 19.6422 22.764
Au 7.94467 20.8136 20.1868
Au 7.77812 21.9976 17.6009
Au 7.46297 22.8718 14.7447
Au 10.6433 19.4336 28.8826
Au 10.2443 20.6421 26.5386
Au 10.03 21.9486 23.6112
Au 9.75852 22.977 20.9511
Au 9.48919 24.172 18.2352
Au 9.02287 24.9778 15.6095
Au 12.4076 21.6589 29.7307
Au 11.8656 22.8646 27.3115
Au 11.8954 23.8526 24.5095
Au 11.7061 24.943 21.7869
Au 11.4349 26.2339 19.1881
Au 11.2415 27.4309 16.6405
Au 14.0564 23.7555 30.5965
Au 13.7635 24.9569 28.038
Au 13.5713 26.0144 25.3629
Au 13.2114 27.202 22.6856
Au 12.9572 28.5009 19.9575
Au 13.0726 29.7031 17.2084
Au 15.7857 26.0422 31.5691
Au 15.3972 27.1622 28.9138
Au 15.2175 28.1899 26.0289
Au 15.0393 29.4964 23.4217
Au 14.6562 30.6558 20.6905
Au 14.5205 31.7703 18.1075
Au 17.5265 28.0144 31.8461
Au 17.2929 29.1642 29.3024
Au 16.9482 30.4318 26.715
Au 16.7058 31.77 24.2823
Au 16.6935 32.9693 21.6166
Au 16.2384 33.8594 18.8601
Au 20.3354 27.2448 31.5431
Au 20.3843 28.3672 28.8026
Au 19.6899 29.5848 26.0809
Au 19.5334 30.8882 23.6251
Au 19.3857 32.0484 20.8988
Au 19.2053 33.1919 18.488
Au 22.9636 26.6544 31.0932
Au 22.8696 27.617 28.2322
Au 22.5706 28.9392 25.5559
Au 22.4539 30.0857 22.9963
Au 22.1594 31.3227 20.4307
Au 21.8106 32.4931 17.6417
Au 25.8203 25.6483 30.2362
Au 25.4828 26.9989 27.5877
Au 25.2613 28.1485 24.9587
Au 25.0121 29.2506 22.353
Au 24.8878 30.624 19.7071
Au 24.4216 31.7028 17.0481
Au 28.3763 25.1773 29.6119
Au 28.0781 26.2124 26.9142
Au 27.8164 27.5008 24.1975
Au 27.4841 28.4815 21.567
Au 27.5789 29.7677 18.9772
Au 27.1189 30.9968 16.5073
Au 31.0275 24.4488 28.984
Au 30.861 25.3959 26.4362
Au 30.474 26.7312 23.5339
Au 30.3647 27.993 21.0566
Au 30.271 28.9016 18.4792
Au 29.809 30.2576 16.1573
Au 30.8873 21.9165 27.987
Au 30.8358 22.7063 25.3129
Au 30.6277 23.7461 22.703
Au 30.3229 25.1026 19.9104
Au 30.2806 26.3781 17.0444
Au 29.7158 27.2949 14.6396
Au 31.129 19.0578 26.7773
Au 30.9522 20.2513 24.0808
Au 30.588 21.3869 21.3997
Au 30.16 22.3051 18.7487
Au 30.2616 23.612 15.7847
Au 29.7801 24.9152 13.3245
Au 30.9448 16.2173 25.5498
Au 30.565 17.5218 22.6083
Au 30.4083 18.6793 19.9722
Au 30.0748 19.6863 17.3631
Au 29.9606 20.9988 14.8117
Au 29.6291 22.2025 12.1814
Au 30.9301 13.5486 24.314
Au 30.4886 14.858 21.6475
Au 30.0759 16.0337 18.9609
Au 29.8499 17.1373 16.1593
Au 29.7216 18.378 13.6582
Au 29.0994 19.5043 11.2495
Au 30.7261 11.1878 23.0152
Au 30.6069 12.1464 20.2319
Au 30.1155 13.5215 17.6621
Au 29.6735 14.2935 15.0781
Au 29.778 15.7092 12.5516
Au 29.347 16.8191 10.1235
Au 28.0857 10.2948 22.9928
Au 27.6697 11.22 20.2851
Au 27.3759 12.4937 17.7147
Au 27.0712 13.68 14.9977
Au 26.7727 14.9311 12.2816
Au 26.6797 16.1369 9.7066
Au 25.297 9.19432 22.9096
Au 24.8531 10.3212 20.4595
Au 24.4464 11.6013 17.6747
Au 24.4403 12.7245 15.0189
Au 24.2947 13.905 12.3362
Au 23.8385 15.3444 9.47463
Au 22.3431 8.39815 22.8773
Au 22.1791 9.45529 20.2216
Au 21.7634 10.6492 17.6019
Au 21.6759 11.6364 14.9007
Au 21.4987 13.202 12.236
Au 21.2938 14.3233 9.5111
Au 19.6838 7.57695 22.9572
Au 19.4485 8.64258 20.2106
Au 19.0428 9.79552 17.5721
Au 18.9573 10.9947 14.9238
Au 18.6152 12.2019 12.1235
Au 18.4058 13.1994 9.5081
Au 16.7726 6.76093 22.4886
Au 16.3864 7.82215 20.0622
Au 16.4166 8.97887 17.28
Au 16.0737 10.2031 14.7765
Au 15.847 11.4015 12.0891
Au 15.6725 12.5076 9.45962
Au 15.1264 8.63343 23.8648
Au 14.845 9.74683 21.1289
Au 14.6377 11.3433 18.3291
Au 14.7656 12.3373 15.7373
Au 14.2584 13.4173 13.0069
Au 14.2546 14.643 10.4309
Au 13.5083 10.9074 24.9616
Au 13.3858 11.7749 22.2605
Au 13.1238 13.2769 19.7272
Au 12.9312 14.4491 16.8507
Au 12.4871 15.3547 14.1749
Au 12.4986 16.709 11.4161
Au 11.808 12.8191 26.1179
Au 11.7824 13.9589 23.4469
Au 11.5816 15.2463 20.8334
Au 11.3241 16.5545 18.1562
Au 11.0701 17.7016 15.4253
Au 10.6142 18.7805 12.7902
Au 10.1146 15.0562 27.0116
Au 10.1178 16.0679 24.4112
Au 9.94365 17.4962 21.8298
Au 9.77266 18.6414 19.0701
Au 9.39499 19.8918 16.3505
Au 9.04047 20.8352 13.7246
Au 6.3493 17.9101 26.8512
Au 5.98516 19.1346 24.2919
Au 5.7052 20.353 21.5854
Au 5.41694 21.2631 19.0975
Au 5.21254 22.22 16.602
Au 7.86693 19.9369 27.7454
Au 7.69829 21.1435 25.2329
Au 7.45819 22.5264 22.5188
Au 7.36777 23.5635 19.7946
Au 6.89659 24.6115 16.9569
Au 9.59621 22.0332 28.7414
Au 9.57115 23.3183 25.99
Au 9.17392 24.5573 23.3882
Au 9.18711 25.8045 20.6864
Au 8.85419 26.9698 18.0467
Au 11.5318 24.2188 29.5839
Au 11.1769 25.5472 26.7634
Au 10.7309 26.7026 24.2231
Au 10.8355 27.8754 21.4468
Au 10.5863 28.9838 18.7237
Au 13.2297 26.5628 30.2881
Au 12.8521 27.6299 27.4467
Au 12.5603 28.7767 24.8627
Au 12.4749 29.9436 22.2859
Au 12.1855 31.1497 19.6531
Au 14.9946 28.9405 31.0089
Au 14.7072 29.8969 28.2854
Au 14.401 31.004 25.7492
Au 14.304 32.1271 22.8458
Au 14.0381 33.4917 20.317
Au 16.7559 30.6834 31.4219
Au 16.6734 31.9424 29.0263
Au 16.0798 33.2824 26.8109
Au 16.06 34.4113 23.9988
Au 15.8735 35.4763 21.103
Au 19.7752 30.0404 31.0214
Au 19.4113 31.0845 28.5075
Au 19.0705 32.3926 25.9015
Au 19.0941 33.7718 23.2924
Au 18.5517 34.6802 20.6065
Au 22.3748 29.2418 30.5967
Au 22.0329 30.3574 27.8628
Au 21.8793 31.6661 25.2935
Au 21.5473 32.7916 22.5924
Au 21.1801 34.0413 19.9745
Au 24.9673 28.2936 29.9589
Au 24.8564 29.7202 27.2907
Au 24.5456 30.9272 24.8153
Au 24.36 32.0478 22.0602
Au 23.8592 33.1116 19.2975
Au 27.6744 27.8996 29.1258
Au 27.5458 29.2405 26.6551
Au 27.3066 30.4033 24.1209
Au 26.9566 31.3105 21.4152
Au 26.7878 32.4364 18.7423
Au 30.1752 26.9147 28.7685
Au 29.9826 28.1079 25.9049
Au 29.7387 29.5292 23.4399
Au 29.4708 30.3274 20.9022
Au 29.4816 31.7967 18.2155
Au 33.0096 26.032 27.7229
Au 33.0688 27.4579 25.4594
Au 32.4581 28.5679 22.9194
Au 32.3327 29.6689 20.5527
Au 32.0979 30.8375 18.0416
Au 32.9492 23.501 26.8833
Au 32.6596 24.9194 24.3024
Au 32.458 25.8732 21.8886
Au 32.2269 27.0907 18.9639
Au 31.9839 28.3906 16.3599
Au 32.9296 20.8235 25.9278
Au 32.8651 22.2334 23.0427
Au 32.4067 23.4145 20.4855
Au 32.106 24.4312 17.8694
Au 31.8724 25.7172 14.9154
Au 32.6506 18.1377 24.4583
Au 32.3773 19.5134 21.7379
Au 32.2319 20.5549 19.1704
Au 32.2041 21.7774 16.5982
Au 31.9148 23.1084 13.7787
Au 32.616 15.8224 23.4906
Au 32.3829 16.8048 20.6404
Au 32.0444 17.8464 17.7925
Au 31.9035 19.2071 15.4339
Au 31.6239 20.4379 12.8154
Au 32.631 13.0116 22.1585
Au 32.2322 14.296 19.3472
Au 31.9962 15.2465 16.6979
Au 31.7304 16.5761 14.041
Au 31.4163 17.8115 11.5516
Au 32.4218 10.5819 21.0544
Au 32.226 11.6133 18.0847
Au 32.0395 12.6965 15.427
Au 32.1344 13.8738 13.0641
Au 31.3749 15.2405 10.5746
Au 29.9232 9.57469 20.7601
Au 29.5233 10.6512 18.1487
Au 29.1605 11.6364 15.6302
Au 28.8579 12.9205 12.828
Au 28.6472 14.1686 10.1785
Au 27.0719 8.5273 20.8913
Au 26.6656 9.79316 18.1361
Au 26.3181 10.818 15.4252
Au 26.1716 12.1317 12.8639
Au 26.0196 13.4502 10.1625
Au 24.231 7.66177 20.6681
Au 23.799 8.65498 18.03
Au 23.6608 9.87802 15.5486
Au 23.4819 11.1533 12.846
Au 23.2924 12.4417 10.2347
Au 21.6488 6.75848 20.5562
Au 21.2315 7.80132 17.8296
Au 20.951 8.94744 15.3415
Au 20.7905 10.4177 12.6701
Au 20.4922 11.4993 10.1594
Au 18.6347 6.02201 20.6894
Au 18.4104 7.04412 17.9497
Au 18.2025 8.1939 15.1436
Au 17.8811 9.49188 12.6772
Au 17.6674 10.5312 9.98054
Au 16.0427 5.08119 20.2752
Au 15.7938 6.00749 17.6888
Au 15.4959 7.34199 15.0229
Au 15.1457 8.46237 12.7431
Au 15.1146 9.89791 10.2798
Au 14.2992 7.10617 21.6416
Au 14.0712 8.67059 18.7209
Au 13.6562 9.64632 16.1979
Au 13.401 10.8322 13.593
Au 13.2446 11.8488 10.9788
Au 12.5884 9.27443 22.6451
Au 12.4316 10.6139 20.1493
Au 12.1102 11.8644 17.3784
Au 11.9532 12.7233 14.8577
Au 11.778 13.9384 12.0494
Au 10.9513 11.4356 23.7646
Au 10.7302 12.5825 21.0377
Au 10.5864 13.8336 18.3727
Au 10.2845 14.9652 15.9686
Au 10.1689 16.2503 13.2762
Au 9.46437 13.3625 24.8491
Au 9.17017 14.8814 22.1084
Au 8.81642 16.0022 19.6013
Au 8.72737 17.096 16.9702
Au 8.42501 18.237 14.3091
Au 7.86345 15.7499 25.746
Au 7.50132 16.9336 23.2827
Au 7.26285 18.1584 20.6188
Au 6.92314 19.1673 17.9052
Au 6.64062 20.284 15.4421
Au 5.65324 20.8312 26.7551
Au 5.23127 21.7832 23.7676
Au 5.08378 22.9834 21.3059
Au 4.99064 23.9117 18.943
Au 7.40274 22.8187 27.6102
Au 6.97322 23.8047 24.8354
Au 6.66406 25.0984 22.2376
Au 6.70264 26.1164 19.6754
Au 9.14865 24.7031 28.3695
Au 8.63994 25.9139 25.945
Au 8.42493 27.2895 22.7394
Au 8.49399 28.5184 20.2394
Au 10.9672 26.802 29.0261
Au 10.5056 28.185 26.5097
Au 9.8494 29.3062 23.7424
Au 9.92553 30.3402 21.2148
Au 12.5883 29.257 29.7595
Au 12.2351 30.493 27.1759
Au 11.9812 31.3754 24.4375
Au 11.8548 32.6688 22.0501
Au 14.044 31.3182 30.3619
Au 13.9597 32.4279 28.0278
Au 13.8319 33.6008 25.1631
Au 13.4533 34.6678 22.843
Au 18.8218 32.5452 30.5479
Au 18.4687 33.8582 28.052
Au 18.4118 35.0535 25.4845
Au 17.8638 36.0075 22.8915
Au 21.5427 31.9123 30.1644
Au 21.2481 32.9898 27.5833
Au 20.9993 34.2348 24.9957
Au 20.9463 35.3615 22.3987
Au 24.2719 31.1978 29.4335
Au 24.0793 32.5228 27.0208
Au 23.536 33.5947 24.2449
Au 23.4403 34.4637 21.6143
Au 26.7669 30.53 28.8525
Au 26.6975 31.7592 26.3276
Au 26.3001 32.9738 23.819
Au 26.055 33.8278 21.2004
Au 29.392 29.7221 28.2136
Au 29.5475 30.9869 25.6775
Au 29.0255 32.3275 22.9243
Au 28.8092 33.0927 20.4388
Au 31.9266 28.7608 27.5337
Au 31.8872 30.1126 25.1934
Au 31.5314 31.2147 22.8078
Au 31.4119 32.2098 20.3525
Au 34.896 25.1676 25.6311
Au 34.7407 26.6595 23.4092
Au 34.2762 27.7039 20.8503
Au 33.9112 29.053 18.3526
Au 34.7533 22.7455 24.7592
Au 34.443 24.1989 22.2555
Au 34.3544 25.3365 19.6715
Au 33.9453 26.2681 16.9986
Au 34.3281 20.3596 23.3811
Au 34.2003 21.3057 20.6849
Au 34.126 22.7422 18.3789
Au 33.6333 23.7873 15.6585
Au 34.3803 17.7091 22.3934
Au 34.3048 18.6462 19.6934
Au 33.8502 19.7132 17.2566
Au 33.7079 21.096 14.6079
Au 34.2404 15.0163 21.0417
Au 34.1013 16.0693 18.5615
Au 33.7459 17.2023 15.8733
Au 33.5251 18.4477 13.1883
Au 33.9497 12.5232 19.8962
Au 33.8949 13.467 17.3043
Au 33.8655 14.6417 14.8493
Au 33.4154 16.0309 12.1324
Au 31.5329 9.08007 18.5028
Au 31.0435 9.92385 15.9391
Au 30.9149 11.2709 13.4332
Au 30.7071 12.7357 10.8185
Au 28.6712 8.02402 18.6074
Au 28.425 9.03168 15.9626
Au 28.1443 10.3134 13.4928
Au 27.9141 11.6203 10.5533
Au 25.9967 7.21031 18.6855
Au 25.7703 8.27226 15.9288
Au 25.4208 9.23134 13.275
Au 25.2614 10.7122 10.8199
Au 23.3443 6.06798 18.4108
Au 23.2065 7.15642 15.8308
Au 22.8768 8.39577 13.0836
Au 22.6336 9.74485 10.6751
Au 20.4905 5.31668 18.2504
Au 20.2689 6.35944 15.6592
Au 20.0914 7.66158 13.1755
Au 19.5025 8.63831 10.5782
Au 17.9108 4.54416 18.4202
Au 17.6351 5.57009 15.679
Au 17.4778 6.61441 13.16
Au 17.0948 7.95388 10.7397
Au 13.674 6.09118 19.3275
Au 13.2601 7.02958 16.7292
Au 12.6834 8.0946 14.1397
Au 12.5163 9.19383 11.6688
Au 11.8023 8.12927 20.099
Au 11.3659 9.28464 17.6879
Au 11.0246 10.0532 15.0952
Au 11.0048 11.4473 12.4726
Au 10.1447 9.97953 21.4409
Au 9.8701 11.2313 18.7883
Au 9.57787 12.0741 16.223
Au 9.65705 13.6032 13.8022
Au 8.54617 12.2285 22.5785
Au 8.0462 13.3815 20.0036
Au 8.0157 14.0323 17.5648
Au 7.8007 15.3321 14.9973
Au 6.83547 14.4185 23.6282
Au 6.55289 15.6654 21.0933
Au 6.51326 16.2702 18.2573
Au 6.45861 17.5027 15.8161
Au 5.37988 16.6164 24.7318
Au 4.88083 17.791 22.1204
Au 4.89979 18.3021 19.4959
Au 4.63412 19.6417 16.8885
