888
 Atoms. Timestep: 50000
Au 24.4363 12.0744 34.6822
Au 23.7591 13.3302 32.4616
Au 22.9873 14.6281 30.0695
Au 22.4385 16.034 27.5827
Au 21.8036 17.7752 25.2415
Au 21.0493 19.0908 22.8301
Au 20.4369 20.5677 20.4351
Au 19.8488 21.9834 18.033
Au 19.2436 23.21 15.5053
Au 18.4323 24.6378 13.0884
Au 17.7328 25.9983 10.5841
Au 16.8258 27.5045 8.32939
Au 16.5686 28.8887 6.12825
Au 21.7334 12.7544 34.0925
Au 20.7431 13.9609 31.8782
Au 20.2108 15.4362 29.4344
Au 19.7779 16.7527 27.0683
Au 18.9896 18.2428 24.7811
Au 18.3187 19.7572 22.368
Au 17.8055 21.0672 19.763
Au 17.1908 22.3961 17.2025
Au 16.4798 23.9095 14.7571
Au 15.581 25.2955 12.3304
Au 14.8384 26.4475 9.97133
Au 14.266 28.0834 7.49518
Au 23.585 14.7949 34.9133
Au 22.7456 15.9284 32.5786
Au 22.1518 17.4744 30.0012
Au 21.5279 18.8483 27.8648
Au 20.8696 20.435 25.3477
Au 20.2486 21.8998 22.9466
Au 19.5565 23.3074 20.6089
Au 18.8333 24.6713 18.2641
Au 18.1104 25.9974 15.6184
Au 17.4235 27.3006 13.1835
Au 16.8559 28.7407 10.9615
Au 16.552 30.2124 8.5286
Au 26.0928 14.1666 34.0862
Au 25.3636 15.3635 31.6283
Au 24.7604 16.5892 29.2064
Au 24.0977 18.1796 26.629
Au 23.5101 19.6561 24.1892
Au 22.7325 21.1083 21.8744
Au 22.044 22.6163 19.4836
Au 21.4195 23.9539 16.8835
Au 20.6723 25.3824 14.3785
Au 20.0103 26.9826 11.9488
Au 19.3913 28.2628 9.48768
Au 18.867 29.6711 7.24424
Au 25.8998 11.589 32.591
Au 25.2479 12.7324 30.1151
Au 24.5234 14.1282 27.6912
Au 23.829 15.4793 24.9966
Au 23.1351 17.1664 22.8866
Au 22.5149 18.5661 20.3064
Au 22.056 19.9293 17.8945
Au 21.3543 21.4477 15.734
Au 20.4011 22.8453 12.8999
Au 19.9212 24.1495 10.6876
Au 19.1429 25.7068 8.24924
Au 18.634 27.0574 6.06394
Au 23.1781 10.5718 32.7526
Au 22.4357 11.7796 30.2691
Au 21.7374 13.3577 27.8807
Au 21.2335 14.6886 25.5273
Au 20.4893 16.2311 23.1065
Au 19.8343 17.7158 20.7173
Au 19.3819 19.0554 18.394
Au 18.8256 20.4809 15.9981
Au 17.8371 21.8419 13.3821
Au 17.1773 23.144 10.8903
Au 16.6195 24.6964 8.28623
Au 15.7494 26.2366 6.00468
Au 18.698 13.1156 33.5729
Au 18.0883 14.5595 31.4038
Au 17.5947 16.0356 28.9332
Au 16.8242 17.2855 26.4656
Au 16.2804 18.8179 24.0345
Au 15.6347 20.1662 21.4952
Au 15.2154 21.564 19.12
Au 14.2857 23.0268 16.5376
Au 13.6011 24.3604 14.2012
Au 12.9705 25.8122 11.8175
Au 12.37 27.182 9.41717
Au 20.7125 15.2015 34.4242
Au 19.991 16.6535 32.0731
Au 19.4858 18.1198 29.7978
Au 18.8906 19.4969 27.1965
Au 18.2113 20.9521 24.8798
Au 17.5745 22.3716 22.2701
Au 16.8686 23.6974 19.818
Au 15.9717 24.8993 17.4802
Au 15.2569 26.4559 14.8635
Au 14.7314 27.9548 12.5694
Au 14.3445 29.2553 10.0242
Au 22.5199 17.1825 34.9461
Au 21.9652 18.5861 32.7971
Au 21.2252 20.1507 30.3951
Au 20.6127 21.5087 27.9169
Au 20.097 23.0985 25.603
Au 19.2505 24.5497 23.0039
Au 18.6634 25.9232 20.4893
Au 18.1393 27.5684 18.1186
Au 17.1492 28.7528 15.7189
Au 16.6453 30.0379 13.4084
Au 16.2182 31.3765 11.064
Au 25.2154 16.7862 34.1048
Au 24.4259 18.0401 31.708
Au 23.8812 19.6183 29.4592
Au 23.2225 20.9055 26.9302
Au 22.6222 22.3571 24.4783
Au 22.0439 23.8733 21.9773
Au 21.1948 25.2296 19.5444
Au 20.6293 26.8051 16.8785
Au 19.78 28.1122 14.6253
Au 19.3375 29.5691 12.2903
Au 18.7046 30.8985 9.8299
Au 27.6907 16.0548 32.9536
Au 26.8717 17.2774 30.6795
Au 26.4392 18.722 28.3018
Au 25.8727 20.3491 25.8283
Au 25.3092 21.6524 23.3955
Au 24.5738 23.1229 20.8419
Au 23.9186 24.5206 18.5408
Au 23.1855 25.8665 15.8644
Au 22.5229 27.3571 13.6706
Au 21.9316 28.7901 11.3034
Au 21.1337 30.0513 8.74055
Au 27.6533 13.5484 31.8143
Au 26.9986 14.6369 29.2482
Au 26.0821 16.198 26.6682
Au 25.6097 17.7394 24.131
Au 24.9853 19.1007 21.8068
Au 24.3393 20.6013 19.5906
Au 23.5552 22.1659 17.1828
Au 22.9192 23.3587 14.6512
Au 22.1647 24.8766 12.2618
Au 21.5189 26.363 9.67115
Au 20.9209 27.7604 7.24839
Au 27.4592 10.8806 30.1824
Au 26.743 12.285 27.8164
Au 25.991 13.7965 25.2149
Au 25.3683 15.2852 22.7478
Au 24.724 16.6949 20.4024
Au 24.0784 18.0888 17.8994
Au 23.4833 19.5939 15.7357
Au 22.6372 20.8677 13.0265
Au 22.091 22.3209 10.6765
Au 21.224 23.6336 8.25185
Au 20.8455 25.1337 5.97751
Au 24.7902 10.1641 30.5648
Au 23.9644 11.3561 28.0909
Au 23.2199 12.8021 25.4463
Au 22.4173 14.2534 22.8752
Au 21.8905 15.8926 20.629
Au 21.2928 17.091 18.1913
Au 20.63 18.4877 15.7688
Au 20.1233 20.097 13.466
Au 19.1379 21.4187 10.7913
Au 18.716 22.9084 8.4566
Au 18.1459 24.4138 5.86653
Au 21.8917 9.28533 30.5321
Au 21.2301 10.6648 27.9634
Au 20.4176 11.9878 25.6674
Au 19.818 13.2839 23.2699
Au 19.1564 14.838 20.878
Au 18.5974 16.0725 18.3921
Au 17.8391 17.6153 15.9249
Au 17.3924 19.1154 13.4899
Au 16.5454 20.3653 11.202
Au 15.8758 21.9609 8.71094
Au 15.4317 23.4656 6.30823
Au 20.3735 11.0333 32.1944
Au 19.7605 12.6405 29.7227
Au 19.0446 13.9742 27.2757
Au 18.4113 15.5214 24.914
Au 17.9182 16.9035 22.4646
Au 17.166 18.2434 20.0703
Au 16.5387 19.5167 17.5512
Au 15.8541 20.7324 15.2868
Au 15.0986 22.3898 12.8087
Au 14.4083 23.7592 10.1602
Au 13.8697 25.3295 7.73104
Au 16.0976 13.6957 33.0267
Au 15.4765 14.9487 30.6476
Au 14.8389 16.4384 28.4452
Au 14.2152 17.9739 25.8435
Au 13.7067 19.284 23.3509
Au 13.0214 20.6054 21.0206
Au 12.2537 22.0545 18.6396
Au 11.5924 23.6105 16.3171
Au 11.0208 24.8441 13.7565
Au 10.2807 26.2744 11.4372
Au 17.9495 15.7 33.9616
Au 17.2997 17.3424 31.4057
Au 16.6325 18.7392 28.9812
Au 16.084 20.0889 26.5421
Au 15.5945 21.4132 24.1954
Au 14.7708 22.9084 21.7172
Au 14.0547 24.2223 19.414
Au 13.33 25.7029 16.8166
Au 12.7168 27.1091 14.4196
Au 12.1643 28.5326 11.7755
Au 19.7351 17.9029 34.5442
Au 19.1621 19.3684 32.3162
Au 18.3806 20.8023 29.8623
Au 17.944 22.1587 27.3091
Au 17.2202 23.6552 24.9183
Au 16.446 24.8971 22.4611
Au 16.0669 26.4543 19.8872
Au 15.2057 27.7402 17.4682
Au 14.5263 29.2762 15.1897
Au 13.8675 30.6186 12.5924
Au 21.593 19.97 35.0199
Au 20.9672 21.6525 32.9703
Au 20.145 22.821 30.3784
Au 19.6886 24.4133 27.9775
Au 19.0341 25.8185 25.4638
Au 18.2081 27.1908 22.8928
Au 17.7656 28.723 20.73
Au 17.0359 30.0631 18.2538
Au 16.3138 31.4154 15.8621
Au 15.7314 32.6559 13.5838
Au 24.2925 19.4913 34.065
Au 23.445 20.8848 31.9069
Au 22.6914 22.3005 29.4194
Au 22.3338 23.738 26.9339
Au 21.703 25.0276 24.5325
Au 21.1223 26.5257 22.0651
Au 20.401 27.9601 19.5164
Au 19.7295 29.6317 17.1379
Au 18.9876 30.7892 14.8015
Au 18.3453 32.1029 12.3814
Au 27.0754 18.6417 33.1795
Au 26.1867 20.1702 30.9983
Au 25.6171 21.3765 28.3753
Au 24.8197 23.0546 25.8752
Au 24.4257 24.573 23.2572
Au 23.594 25.9428 20.7779
Au 23.0001 27.3911 18.4455
Au 22.2206 28.8807 16.0581
Au 21.5573 30.1701 13.882
Au 21.1254 31.3661 11.2632
Au 29.3717 18.0487 31.9658
Au 28.7797 19.4796 29.6524
Au 28.1975 20.9574 27.309
Au 27.4425 22.495 24.7511
Au 27.0347 23.7193 22.2705
Au 26.4142 25.2152 19.8155
Au 25.6607 26.5654 17.4456
Au 24.7535 27.9527 14.9721
Au 24.3381 29.5112 12.6133
Au 23.5473 30.7781 10.3413
Au 29.2421 15.5692 30.6167
Au 28.5136 16.9134 28.2738
Au 27.8648 18.4811 25.8533
Au 27.2195 19.8011 23.4079
Au 26.7584 21.2361 21.0399
Au 26.083 22.6552 18.5443
Au 25.4195 24.1266 16.2281
Au 24.6452 25.4176 13.69
Au 23.8052 26.8143 11.0956
Au 23.2357 28.3397 8.68216
Au 29.1091 12.8119 29.1574
Au 28.4111 14.4406 26.7309
Au 27.6857 15.8532 24.3128
Au 27.0929 17.2218 21.781
Au 26.6059 18.6752 19.3851
Au 25.6346 20.2971 17.1726
Au 25.091 21.6704 14.6489
Au 24.5279 22.9521 12.2884
Au 23.5869 24.3661 9.66479
Au 22.9486 25.7263 7.31888
Au 28.7228 10.3708 27.742
Au 28.3242 12.062 25.4695
Au 27.5687 13.3443 23.0128
Au 26.8131 14.6867 20.616
Au 26.2528 16.2712 18.0868
Au 25.5557 17.6187 15.6791
Au 24.8775 18.9883 13.2756
Au 24.3105 20.5195 10.8609
Au 23.4526 21.8513 8.34253
Au 23.0306 23.3376 6.11444
Au 26.224 9.59939 28.15
Au 25.5674 10.9751 25.757
Au 24.7891 12.4831 23.1913
Au 23.9693 13.8876 20.5825
Au 23.5294 15.238 18.1292
Au 22.762 16.6264 15.6675
Au 22.0437 18.0277 13.3848
Au 21.3881 19.4803 11.0822
Au 20.782 20.8152 8.54116
Au 20.188 22.3832 6.16979
Au 23.397 8.72321 28.2415
Au 22.645 10.0182 25.7026
Au 21.9795 11.5038 23.3106
Au 21.2041 12.965 20.7554
Au 20.6321 14.2205 18.3703
Au 20.0546 15.6602 15.9728
Au 19.4785 17.1564 13.5256
Au 18.7005 18.4984 11.0884
Au 17.8821 20.1762 8.72774
Au 17.2865 21.5771 6.31288
Au 20.672 7.93826 28.1809
Au 19.8842 9.17854 26.0273
Au 19.0515 10.5512 23.5888
Au 18.5499 12.023 21.08
Au 17.9302 13.5158 18.4455
Au 17.1945 14.8175 16.2845
Au 16.6881 16.4096 13.8746
Au 16.0114 17.5767 11.4968
Au 15.2485 19.0429 8.99095
Au 14.8204 20.4242 6.63254
Au 19.2026 9.82858 29.925
Au 18.5763 11.1507 27.4546
Au 17.7457 12.7269 25.1284
Au 17.209 14.1261 22.6241
Au 16.532 15.4822 20.1403
Au 15.8401 16.8922 17.7839
Au 15.0644 18.0725 15.4339
Au 14.4344 19.5437 13.0922
Au 13.8693 20.9843 10.3676
Au 13.1646 22.5217 8.0695
Au 17.7013 11.7836 31.5975
Au 17.0628 13.1997 29.0312
Au 16.2532 14.5313 26.6106
Au 15.6473 16.104 24.2069
Au 14.9962 17.3716 21.6359
Au 14.4592 18.7332 19.2414
Au 13.7106 20.2505 17.1371
Au 13.1304 21.4345 14.4892
Au 12.3719 22.9916 11.9532
Au 11.6441 24.4665 9.63644
Au 13.4272 14.2929 32.4066
Au 12.7298 15.5417 29.8915
Au 12.2793 16.9958 27.5455
Au 11.5432 18.5109 24.9972
Au 10.8846 19.787 22.6195
Au 10.1582 21.0142 20.2774
Au 9.61472 22.7092 17.9224
Au 9.01102 24.1237 15.4091
Au 8.28639 25.5696 13.1722
Au 15.2195 16.4273 33.137
Au 14.5998 17.6836 30.8464
Au 14.0631 19.2738 28.2467
Au 13.4737 20.6233 25.8141
Au 12.6539 22.0538 23.4614
Au 12.0516 23.3804 21.3019
Au 11.4184 24.8194 18.7431
Au 10.7049 26.3303 16.2317
Au 10.0434 27.9627 13.6932
Au 17.0271 18.4718 33.9112
Au 16.3237 20.1632 31.7598
Au 15.5798 21.3397 29.2043
Au 15.2376 22.7785 26.701
Au 14.4325 24.1341 24.2993
Au 13.8456 25.6538 21.9296
Au 13.2867 26.8585 19.3917
Au 12.5486 28.4505 16.9916
Au 11.9972 29.639 14.3289
Au 18.8925 20.6564 34.895
Au 18.1538 22.1844 32.3397
Au 17.5726 23.5647 29.7909
Au 16.9756 24.9665 27.3709
Au 16.2131 26.2851 24.951
Au 15.6771 27.6817 22.727
Au 15.0942 29.121 20.1587
Au 14.2225 30.5982 17.8393
Au 13.5914 31.8735 15.0834
Au 20.8594 23.0737 35.242
Au 20.0711 24.4604 33.0185
Au 19.4346 25.7567 30.4539
Au 18.7791 27.1604 27.935
Au 18.0068 28.4288 25.4144
Au 17.4997 30.1144 23.228
Au 16.8551 31.4789 20.8855
Au 16.0114 32.7218 18.4056
Au 15.5181 34.052 16.1181
Au 23.2168 22.3005 34.3492
Au 22.5905 23.7155 31.9137
Au 22.0005 24.9938 29.3687
Au 21.4485 26.4683 26.995
Au 20.6383 27.7915 24.5446
Au 20.2229 29.133 22.0427
Au 19.4811 30.7158 19.6349
Au 18.626 32.1196 17.2807
Au 18.1208 33.5089 14.8567
Au 25.7956 21.5826 33.2132
Au 25.2939 22.9498 30.8582
Au 24.6103 24.3521 28.489
Au 24.079 25.7122 25.9273
Au 23.476 27.1486 23.4595
Au 22.7866 28.644 21.0943
Au 22.2217 30.045 18.6934
Au 21.2671 31.753 16.0176
Au 20.6582 32.8448 13.6606
Au 28.4382 20.7684 32.2327
Au 27.8673 22.2071 29.8353
Au 27.1724 23.6736 27.3421
Au 26.7323 25.1753 24.7965
Au 26.1957 26.5716 22.2915
Au 25.1849 27.9404 20.0448
Au 24.713 29.2119 17.5796
Au 24.0769 30.8278 15.2565
Au 23.3953 32.1303 12.7589
Au 31.0231 20.0879 30.9357
Au 30.5795 21.5811 28.5993
Au 29.8629 23.1004 26.2546
Au 29.3631 24.5579 23.7743
Au 28.8758 25.9993 21.3337
Au 27.9908 27.314 18.9204
Au 27.2902 28.7276 16.6421
Au 26.7163 29.9697 14.3499
Au 26.0016 31.5622 11.845
Au 30.905 17.5629 29.7042
Au 30.3225 18.8502 27.3464
Au 29.5618 20.4623 24.8838
Au 29.1401 21.9152 22.4685
Au 28.6328 23.2936 19.8653
Au 27.8378 24.773 17.4095
Au 26.9311 26.1797 15.0839
Au 26.1914 27.6458 12.6142
Au 25.4595 28.8493 10.1896
Au 30.7214 14.9996 28.1844
Au 30.2169 16.342 25.775
Au 29.4771 17.9214 23.5659
Au 28.9063 19.4624 21.005
Au 28.2129 20.6445 18.5168
Au 27.5159 21.9905 16.0094
Au 26.925 23.4302 13.7049
Au 25.9351 25.13 11.1619
Au 25.3996 26.4663 8.82089
Au 30.5554 12.4501 26.9685
Au 30.0434 13.8282 24.3872
Au 29.2959 15.3815 21.8899
Au 28.6376 16.7716 19.6791
Au 27.9824 18.1972 17.0969
Au 27.2539 19.7539 14.7394
Au 26.5879 21.0923 12.2568
Au 25.7713 22.7324 9.71778
Au 25.2328 24.0284 7.31518
Au 30.3169 10.1878 25.3129
Au 29.9272 11.4148 23.0051
Au 29.1378 12.9233 20.5247
Au 28.4253 14.3197 18.0852
Au 27.7678 15.6258 15.604
Au 27.0867 17.1932 13.2692
Au 26.38 18.6243 10.9511
Au 25.7715 20.032 8.4831
Au 24.97 21.2118 6.23942
Au 27.6672 8.97731 25.6387
Au 27.0251 10.638 23.437
Au 26.2704 11.9908 20.8063
Au 25.6575 13.422 18.2786
Au 25.0545 14.8208 15.7874
Au 24.3803 16.2143 13.3501
Au 23.71 17.7858 11.0191
Au 23.0048 19.0709 8.707
Au 22.2921 20.6827 6.23145
Au 24.9233 8.34545 26.0098
Au 24.1986 9.75639 23.3599
Au 23.4341 11.1031 20.7736
Au 22.896 12.4734 18.3275
Au 22.0699 13.8524 16.0076
Au 21.5911 15.1693 13.5139
Au 20.778 16.5404 11.1646
Au 20.2459 18.0683 8.71735
Au 19.4943 19.6428 6.40504
Au 22.3162 7.34175 26.1033
Au 21.3292 8.69749 23.6849
Au 20.6122 10.2796 21.2317
Au 20.0293 11.4628 18.7795
Au 19.4626 12.8509 16.2289
Au 18.8118 14.3966 13.7159
Au 18.0217 15.8002 11.3885
Au 17.4869 17.2635 8.89342
Au 16.7345 18.6713 6.58063
Au 19.4968 6.47966 26.1632
Au 18.5767 7.83846 23.9586
Au 18.0535 9.18117 21.3736
Au 17.2643 10.4364 18.897
Au 16.512 11.9566 16.4925
Au 15.9081 13.3375 14.1429
Au 15.3534 14.6913 11.6248
Au 14.8208 16.1408 9.35044
Au 14.1906 17.6836 6.92414
Au 17.6924 8.43718 27.936
Au 17.1236 9.93318 25.4296
Au 16.4992 11.1894 22.889
Au 15.9679 12.5329 20.4108
Au 15.0751 14.0446 18.1846
Au 14.6007 15.2147 15.7265
Au 13.9725 16.7231 13.3292
Au 13.2391 18.1771 10.7999
Au 12.5939 19.607 8.2584
Au 16.676 10.481 29.2907
Au 15.7933 11.7772 27.0013
Au 15.1983 13.1646 24.3996
Au 14.5513 14.6294 21.9099
Au 13.6222 16.027 19.4103
Au 12.9951 17.2233 17.1251
Au 12.3863 18.7616 14.9066
Au 11.7884 20.3237 12.2903
Au 11.2117 21.3999 9.83902
Au 14.944 12.2512 30.7428
Au 14.1924 13.6795 28.4614
Au 13.6573 15.1839 26.0488
Au 13.0736 16.468 23.5566
Au 12.2878 17.9506 21.0771
Au 11.6333 19.1548 18.6792
Au 10.9602 20.9242 16.3778
Au 10.3075 22.1964 13.8596
Au 9.6996 23.728 11.4696
Au 10.5733 15.1419 31.554
Au 9.88334 16.3597 29.2599
Au 9.52022 17.5131 26.7929
Au 8.7387 18.958 24.4424
Au 8.01085 20.3724 22.0534
Au 7.56732 21.8248 19.8422
Au 6.76395 23.1788 17.5412
Au 6.39077 24.6725 14.8897
Au 12.3414 16.868 32.4469
Au 11.9174 18.3407 29.9947
Au 11.3496 19.8405 27.5147
Au 10.6267 21.2134 25.0919
Au 9.94026 22.5299 22.803
Au 9.48235 23.9525 20.5904
Au 8.58369 25.3595 18.0488
Au 8.02905 26.7297 15.6449
Au 14.2905 18.9673 33.47
Au 13.6738 20.3348 30.9178
Au 12.9723 21.8392 28.3856
Au 12.2464 23.3876 25.9778
Au 11.6601 24.9153 23.5705
Au 11.2689 26.2937 21.1229
Au 10.3895 27.3647 18.8264
Au 9.90349 28.9773 16.259
Au 16.2179 21.3897 34.2348
Au 15.4929 22.6297 31.6819
Au 14.7951 24.1168 29.1476
Au 13.9461 25.4039 26.7601
Au 13.4169 26.924 24.5687
Au 12.8323 28.2368 22.1675
Au 12.2304 29.6287 19.7248
Au 11.7801 31.07 17.0868
Au 18.2128 23.21 34.9079
Au 17.5083 24.641 32.2139
Au 16.6593 26.3015 29.9062
Au 15.9415 27.5491 27.4871
Au 15.2986 28.969 25.0675
Au 14.5567 30.2527 22.8079
Au 14.0186 31.6311 20.4196
Au 13.3964 33.3894 17.6428
Au 19.8879 25.7686 35.2871
Au 19.3377 27.199 33.0401
Au 18.6171 28.4454 30.5122
Au 17.8447 29.6141 28.1703
Au 17.2111 31.1721 25.89
Au 16.4867 32.3646 23.5879
Au 15.8865 33.9689 21.1599
Au 15.4307 35.3668 18.4248
Au 22.6554 25.0685 34.3229
Au 21.9347 26.423 31.8694
Au 21.2403 27.9067 29.6143
Au 20.4562 29.15 26.9261
Au 19.9391 30.5437 24.7582
Au 19.2856 31.8501 22.3013
Au 18.5123 33.3035 19.7808
Au 17.9896 34.9032 17.4176
Au 25.0147 24.3143 33.3704
Au 24.4309 25.7721 30.9033
Au 23.5835 27.0477 28.3967
Au 23.1153 28.5268 25.9721
Au 22.5569 29.8922 23.7781
Au 21.9177 31.399 21.1411
Au 21.0462 32.7546 18.7186
Au 20.5326 34.309 16.4305
Au 27.701 23.5801 32.2219
Au 26.9494 24.9136 29.891
Au 26.3964 26.3453 27.4684
Au 26.0022 27.8416 25.0702
Au 25.3462 29.2299 22.5034
Au 24.4853 30.7045 19.9887
Au 23.5972 32.1182 17.7279
Au 23.1029 33.488 15.2591
Au 30.2245 22.778 31.1275
Au 29.4285 24.3129 28.6908
Au 29.0631 25.716 26.2222
Au 28.6 27.1384 23.8542
Au 27.8066 28.768 21.4143
Au 27.162 30.0609 19.1348
Au 26.2919 31.4056 16.817
Au 25.8406 32.7376 14.2906
Au 32.6921 22.1057 29.8097
Au 32.2374 23.7878 27.7594
Au 31.6734 25.1202 25.3315
Au 31.36 26.7111 22.8866
Au 30.5239 27.9111 20.1902
Au 29.8467 29.4064 18.0623
Au 29.2386 30.6012 15.8018
Au 28.2731 31.9308 13.4336
Au 32.7156 19.5473 28.5449
Au 31.8984 21.0826 26.1771
Au 31.4244 22.5024 23.7602
Au 30.9631 23.8171 21.2663
Au 30.1258 25.3274 19.0639
Au 29.5495 26.9401 16.6725
Au 28.7163 27.9638 14.1184
Au 27.888 29.5868 11.8193
Au 32.4305 17.0479 27.3513
Au 31.9473 18.5444 24.9052
Au 31.321 19.9051 22.3841
Au 30.6866 21.347 20.051
Au 29.8408 22.5997 17.4958
Au 29.1904 24.3725 15.0546
Au 28.5248 25.6022 12.5877
Au 27.7547 27.1614 10.4008
Au 32.5222 14.7119 25.9281
Au 31.7705 16.0529 23.4753
Au 31.0091 17.5777 20.9232
Au 30.3656 18.9541 18.5755
Au 29.8244 20.2034 16.0456
Au 29.1207 21.7026 13.4733
Au 28.289 23.2734 11.2886
Au 27.4578 24.7078 9.01378
Au 32.1329 12.1862 24.4502
Au 31.4835 13.5843 21.8549
Au 30.8097 14.9593 19.5426
Au 30.1006 16.432 17.1538
Au 29.4841 17.7549 14.5687
Au 28.8505 19.2288 12.2855
Au 27.9358 20.815 10.0307
Au 27.3566 22.2051 7.63951
Au 31.849 9.61034 23.1487
Au 31.1521 10.8313 20.6549
Au 30.4294 12.5877 17.9237
Au 29.8487 13.8747 15.6216
Au 29.2733 14.9953 13.1269
Au 28.4122 16.5431 11.0145
Au 27.8559 18.1037 8.65899
Au 27.2213 19.515 6.3516
Au 28.9409 8.7395 23.3202
Au 28.4101 10.4087 21.0191
Au 27.9055 11.6041 18.4255
Au 27.1741 12.803 15.9509
Au 26.3742 14.3833 13.4747
Au 25.7591 15.5735 10.9023
Au 25.0492 17.2156 8.56443
Au 24.4465 18.5808 6.11871
Au 26.2353 7.85404 23.6184
Au 25.7615 9.37118 21.0699
Au 25.0862 10.5776 18.4307
Au 24.3324 12.0857 15.9868
Au 23.7204 13.4404 13.5579
Au 23.0895 14.8406 11.2074
Au 22.4769 16.2612 8.59801
Au 21.823 17.8071 6.40127
Au 23.4599 7.13659 23.605
Au 23.052 8.29744 21.0611
Au 22.351 9.65602 18.658
Au 21.5111 10.8883 16.2573
Au 20.9551 12.4505 13.8346
Au 20.2641 13.777 11.4601
Au 19.5448 15.4804 8.95402
Au 19.0085 16.9656 6.57973
Au 20.9912 6.04274 23.7469
Au 20.1999 7.52653 21.4398
Au 19.526 8.62317 19.0948
Au 18.742 10.1485 16.592
Au 18.3499 11.4405 14.1931
Au 17.6168 12.9194 11.7952
Au 17.0509 14.3444 9.2936
Au 16.3544 15.7925 6.75228
Au 18.3139 5.29023 24.194
Au 17.3575 6.58537 21.7846
Au 16.6187 7.76411 19.2679
Au 16.0587 9.24519 16.7607
Au 15.4655 10.4217 14.2161
Au 14.9722 11.8766 11.8487
Au 14.2385 13.2995 9.49788
Au 13.6959 14.8856 7.40474
Au 16.5091 7.0809 25.9172
Au 15.8478 8.46518 23.3702
Au 15.2379 9.87214 20.7552
Au 14.5563 11.2305 18.2943
Au 13.7887 12.5388 16.0535
Au 13.4078 14.0117 13.5417
Au 12.7332 15.4579 11.0447
Au 12.0137 16.6372 8.57144
Au 14.947 9.06215 27.4502
Au 14.4854 10.5066 24.7122
Au 13.8331 11.7807 22.2558
Au 13.044 13.1509 19.8472
Au 12.287 14.392 17.5543
Au 11.7637 15.8273 15.0172
Au 11.2407 17.3337 12.7193
Au 10.5555 18.8044 10.0876
Au 13.4963 11.0438 28.7012
Au 12.9912 12.4214 26.0724
Au 12.3197 13.7384 23.662
Au 11.6652 15.0568 21.1905
Au 10.6379 16.4509 18.9974
Au 10.1667 17.847 16.6019
Au 9.84152 19.3581 14.3811
Au 9.22733 20.9597 11.479
Au 12.0502 12.7402 30.3257
Au 11.5416 14.313 27.7419
Au 10.9326 15.6223 25.2834
Au 10.306 16.9006 22.9177
Au 9.50882 18.33 20.6055
Au 8.94088 19.9421 18.0532
Au 8.32062 21.5367 15.7425
Au 7.66132 22.8969 13.1036
Au 10.0163 17.8463 31.7487
Au 9.45146 19.1644 29.429
Au 8.78567 20.2836 26.8562
Au 7.94365 21.6625 24.505
Au 7.41022 23.3511 22.0729
Au 6.80744 24.7316 19.8566
Au 6.22118 25.8714 17.188
Au 11.7237 19.7116 32.5866
Au 11.1195 21.1681 30.1488
Au 10.3541 22.4236 27.6605
Au 9.41622 23.7384 25.3952
Au 9.13329 25.2694 22.9444
Au 8.46495 26.7496 20.7244
Au 7.90252 27.9766 18.2163
Au 13.7213 21.6366 33.3701
Au 12.8554 23.184 31.2101
Au 12.1111 24.4041 28.4819
Au 11.1914 25.9301 25.9593
Au 10.6032 27.4746 23.5813
Au 10.009 28.8654 21.2602
Au 9.82486 30.0057 18.6729
Au 15.4149 24.1209 33.9355
Au 14.9238 25.325 31.6849
Au 13.8867 26.5308 29.2956
Au 13.3385 28.2761 27.0538
Au 12.3732 29.5871 24.6785
Au 12.0217 31.0619 22.2732
Au 11.5504 32.2306 19.5977
Au 17.4278 25.8359 34.5926
Au 16.7346 27.3208 32.3465
Au 15.5177 28.7287 30.022
Au 15.1376 30.1158 27.657
Au 14.427 31.4857 25.2914
Au 13.8821 32.8796 22.6275
Au 13.583 34.2949 19.8735
Au 21.7402 27.6233 34.2844
Au 21.2435 29.1098 32.0928
Au 20.199 30.2149 29.5722
Au 19.4728 31.8131 27.1869
Au 19.2063 33.0675 24.8287
Au 18.3795 34.2563 22.5802
Au 17.7095 35.7655 20.1886
Au 24.2415 27.2809 33.2494
Au 23.6961 28.5697 30.9549
Au 22.8023 29.8857 28.4229
Au 22.2215 31.2456 26.179
Au 21.7235 32.6137 23.6773
Au 20.821 33.9661 21.4054
Au 20.2528 35.3252 19.0501
Au 26.7427 26.2256 32.2002
Au 26.0378 27.7516 29.8554
Au 25.3564 28.9629 27.6372
Au 24.9987 30.3156 24.9438
Au 24.2804 31.6634 22.6549
Au 23.4972 33.3491 20.1815
Au 22.9131 34.6654 17.7736
Au 29.2116 25.5588 31.2639
Au 28.8609 26.9658 28.6964
Au 28.0031 28.5555 26.5694
Au 27.5546 30.0519 23.9199
Au 26.7727 31.4314 21.6237
Au 26.0979 32.7059 19.1945
Au 25.3793 33.8697 16.7507
Au 31.7416 24.8088 29.9014
Au 31.1092 26.3686 27.7071
Au 30.6503 27.8541 25.4721
Au 30.2095 28.9712 22.8379
Au 29.4412 30.5834 20.4861
Au 28.6453 31.8743 18.3086
Au 27.9191 33.0975 16.0235
Au 34.0633 21.6214 27.5366
Au 33.6579 22.9607 25.2819
Au 33.0392 24.4194 22.762
Au 32.3552 25.8734 20.3927
Au 31.7412 27.3591 17.8813
Au 31.0753 28.5702 15.3684
Au 30.1608 30.0843 13.3555
Au 34.1145 19.185 26.2465
Au 33.5518 20.4904 23.9161
Au 33.1924 21.9469 21.4659
Au 32.4316 23.2415 19.0459
Au 31.258 24.7072 16.6909
Au 30.83 26.3104 14.1412
Au 30.2377 27.6293 11.8312
Au 33.8776 16.91 24.7721
Au 33.391 18.1454 22.1411
Au 32.8105 19.6166 19.8939
Au 31.9472 20.8982 17.6323
Au 31.1633 22.2684 15.1582
Au 30.7301 23.7087 12.4413
Au 29.9657 25.1269 10.1713
Au 33.649 14.1272 23.5518
Au 33.202 15.5969 21.0848
Au 32.5355 16.9624 18.6881
Au 31.752 18.2909 16.3643
Au 31.0249 19.9308 13.5383
Au 30.6999 21.361 11.2867
Au 29.8014 22.6627 9.18544
Au 33.4247 11.734 22.065
Au 32.6235 12.8479 19.5258
Au 32.0824 14.5125 17.2376
Au 31.4633 16.1332 14.9173
Au 30.7484 17.2583 12.2327
Au 30.0499 18.7908 10.1051
Au 29.1773 20.2159 7.78619
Au 30.4802 8.2971 21.0667
Au 29.6119 9.73367 18.5348
Au 29.1267 11.1243 15.9393
Au 28.3969 12.404 13.5325
Au 27.7755 13.8372 11.1563
Au 27.1533 15.4389 8.59692
Au 26.5367 16.9071 6.39032
Au 27.8142 7.58793 21.0668
Au 27.0673 8.79947 18.7441
Au 26.5573 10.2531 16.1063
Au 25.6997 11.7625 13.7108
Au 24.9738 12.9855 11.3006
Au 24.5421 14.4318 8.76947
Au 23.7675 15.8671 6.40247
Au 25.2232 6.71007 21.2052
Au 24.5882 7.87778 18.8455
Au 23.8084 9.14233 16.4337
Au 23.2203 10.5933 14.1202
Au 22.3683 11.9707 11.5446
Au 21.6402 13.7274 9.10055
Au 21.0806 15.2096 6.73194
Au 22.3332 5.80557 21.4019
Au 21.7482 7.01274 18.7756
Au 20.7569 8.22202 16.5191
Au 20.3477 9.56626 14.0139
Au 19.8709 10.9776 11.6795
Au 19.1073 12.4713 9.31465
Au 18.5379 14.0263 7.10987
Au 19.6779 4.93778 21.6976
Au 19.0096 6.05012 19.2474
Au 18.1769 7.5771 17.1656
Au 17.8605 8.85398 14.6914
Au 17.2029 10.2136 12.0592
Au 16.5735 11.6735 9.54502
Au 15.7167 13.3213 7.2246
Au 15.426 5.91184 23.8371
Au 14.6383 7.2738 21.2005
Au 14.1441 8.6171 18.6232
Au 13.5174 9.72992 16.1963
Au 12.9017 11.2586 13.7229
Au 12.2128 12.6428 11.4754
Au 11.702 14.0216 9.08624
Au 13.8936 7.72163 25.0836
Au 13.3538 8.92777 22.6671
Au 12.6938 10.303 20.0589
Au 11.6385 11.7378 17.6993
Au 11.2631 13.2088 15.0345
Au 10.5557 14.5798 12.6446
Au 10.1819 16.2801 10.6163
Au 12.5733 9.83787 26.2942
Au 11.6877 11.1371 24.1678
Au 11.2707 12.3079 21.5889
Au 10.179 13.7034 19.3596
Au 9.56871 15.0145 16.8672
Au 9.13784 16.3875 14.4386
Au 8.88577 18.3159 12.0447
Au 11.0218 11.574 27.6217
Au 10.1325 13.0236 25.4475
Au 9.60171 14.1096 22.8255
Au 8.77276 15.6266 20.7581
Au 8.13917 17.1158 18.4158
Au 7.54622 18.5574 15.8653
Au 7.34703 20.1398 13.6108
Au 9.69802 13.6676 29.5793
Au 8.91186 14.9149 26.994
Au 8.27876 15.9384 24.689
Au 7.69251 17.564 22.3723
Au 6.94647 19.1007 19.6518
Au 6.2434 20.4497 17.3768
Au 5.86677 22.0731 15.0568
