887
 Atoms. Timestep: 50000
Au 23.0662 13.8084 34.4521
Au 22.6607 15.068 31.991
Au 22.1605 16.2737 29.3336
Au 21.7456 17.4655 26.7802
Au 21.2857 18.7502 24.3661
Au 20.572 19.6911 21.7919
Au 20.2295 21.1812 19.1931
Au 19.811 22.3302 16.4245
Au 19.2059 23.4252 13.9337
Au 18.638 24.5315 11.3683
Au 18.4072 25.6807 8.74227
Au 17.7832 26.9231 6.40233
Au 20.6281 14.5477 33.5922
Au 19.9375 15.7695 31.1979
Au 19.4565 16.8149 28.6455
Au 19.0322 17.9911 26.0029
Au 18.6364 19.3635 23.6552
Au 18.1342 20.5167 20.7908
Au 17.4339 21.6326 18.2645
Au 17.1532 22.7991 15.7832
Au 16.5221 23.911 13.1818
Au 16.0875 25.1885 10.6269
Au 15.8303 26.3155 8.07014
Au 22.3825 16.4591 34.2697
Au 21.8291 17.7988 31.9369
Au 21.4248 18.8995 29.3439
Au 20.8477 20.3649 26.6946
Au 20.3914 21.4359 24.0758
Au 19.7643 22.5213 21.653
Au 19.2636 23.809 18.836
Au 18.9049 24.9433 16.3172
Au 18.3263 26.2629 13.6318
Au 17.7729 27.3226 11.303
Au 17.5671 28.3663 8.65867
Au 24.9218 15.6411 33.4318
Au 24.4246 16.9156 30.932
Au 23.9998 18.1531 28.2759
Au 23.4576 19.5591 25.9243
Au 22.9672 20.5928 23.2735
Au 22.4894 21.8392 20.6777
Au 22.1582 22.8994 17.8728
Au 21.5942 24.2487 15.2875
Au 20.9093 25.4633 12.6788
Au 20.4114 26.5354 10.2478
Au 19.977 27.4523 7.84216
Au 24.5923 13.0773 32.3194
Au 24.1582 14.2846 29.8145
Au 23.9174 15.5341 27.1212
Au 23.3953 16.7514 24.5355
Au 22.8357 17.919 21.9704
Au 22.2668 19.1725 19.5021
Au 21.8225 20.042 16.8548
Au 21.3186 21.3794 14.2272
Au 20.7861 22.666 11.7126
Au 20.3412 23.6077 9.02962
Au 19.8532 24.8688 6.42073
Au 21.9566 12.4003 32.3527
Au 21.5621 13.545 29.9613
Au 20.9581 14.7797 27.2491
Au 20.5324 15.9862 24.8715
Au 20.1574 17.1153 22.2695
Au 19.5307 18.3612 19.5674
Au 19.1173 19.4485 17.1369
Au 18.5527 20.6862 14.4398
Au 17.956 21.8854 11.9123
Au 17.5593 23.0365 9.35791
Au 17.0797 24.2902 6.88946
Au 17.7188 15.2102 32.857
Au 17.2741 16.3324 30.3716
Au 16.7021 17.3996 27.7141
Au 16.3089 18.7128 25.2104
Au 15.7857 19.86 22.6935
Au 15.3729 21.0105 20.1844
Au 14.7997 22.2424 17.5834
Au 14.3394 23.4077 15.1146
Au 13.8672 24.6419 12.4805
Au 13.5154 25.766 9.97077
Au 19.7124 17.2442 33.6169
Au 19.2615 18.3334 31.0893
Au 18.719 19.5205 28.5427
Au 18.043 20.8723 25.8167
Au 17.6787 22.0301 23.3437
Au 17.1266 23.1739 20.7135
Au 16.4697 24.5254 17.9586
Au 16.1535 25.5196 15.3568
Au 15.4578 26.8033 12.9135
Au 15.3276 27.807 10.3027
Au 21.6826 19.3814 34.1143
Au 21.2761 20.548 31.6363
Au 20.4892 21.6441 29.1903
Au 20.0222 22.9072 26.475
Au 19.4811 24.2584 23.8028
Au 19.1298 25.3292 21.2274
Au 18.6172 26.419 18.6384
Au 17.9975 27.8262 16.1189
Au 17.6162 29.0305 13.598
Au 17.0588 29.9333 11.0468
Au 24.1762 18.4017 33.2937
Au 23.744 19.6065 30.8548
Au 23.1441 20.9974 28.4173
Au 22.8911 22.2904 25.7107
Au 22.2003 23.5186 22.9578
Au 21.5847 24.4909 20.2192
Au 21.1948 25.699 17.716
Au 20.6945 26.8094 15.1665
Au 20.1728 28.1325 12.6793
Au 19.6815 29.2153 10.1275
Au 26.6891 17.5805 32.1019
Au 26.4703 18.855 29.7596
Au 25.9889 19.9962 27.1077
Au 25.4408 21.2713 24.6691
Au 24.8265 22.384 22.0144
Au 24.2842 23.633 19.4439
Au 23.9276 24.8953 16.6538
Au 23.3847 26.0915 14.1975
Au 22.8712 27.1565 11.606
Au 22.2672 28.1886 9.27821
Au 26.5489 14.8898 31.1166
Au 26.2375 16.2746 28.755
Au 25.811 17.356 26.1375
Au 25.0727 18.6551 23.4565
Au 24.4934 19.7749 20.8941
Au 24.0692 20.9552 18.2204
Au 23.5419 22.1741 15.5827
Au 23.0637 23.5159 13.0981
Au 22.6568 24.5687 10.4363
Au 22.1034 25.5502 7.97178
Au 26.062 12.479 29.9491
Au 25.9481 13.6151 27.5193
Au 25.3717 14.7906 24.8175
Au 25.0327 15.9083 22.3797
Au 24.3705 17.1048 19.6625
Au 23.8802 18.2953 17.18
Au 23.4169 19.3216 14.5504
Au 22.7364 20.7387 11.8664
Au 22.3982 21.8424 9.2327
Au 21.766 22.9407 6.83718
Au 23.44 11.5412 30.3185
Au 23.1588 12.8481 27.5801
Au 22.4653 13.9738 25.1403
Au 22.2098 15.1763 22.4353
Au 21.6513 16.3171 19.9087
Au 21.0706 17.3247 17.366
Au 20.5417 18.7196 14.7366
Au 19.9566 19.9601 12.1687
Au 19.5386 20.9549 9.66887
Au 18.9772 22.2716 7.10226
Au 20.6736 11.0548 30.5614
Au 20.2542 12.2589 28.009
Au 19.8598 13.2679 25.2722
Au 19.1852 14.3757 22.868
Au 18.7522 15.6567 20.1274
Au 18.1904 16.6569 17.474
Au 17.8025 17.9615 15.0476
Au 17.2607 19.1109 12.4675
Au 16.7574 20.2787 9.78753
Au 16.2457 21.6135 7.3472
Au 19.1281 13.1422 31.628
Au 18.5191 14.1635 28.9887
Au 18.1799 15.3579 26.4397
Au 17.7951 16.5849 23.8782
Au 17.3669 17.7893 21.4705
Au 16.8345 18.7976 18.8836
Au 16.357 20.096 16.2986
Au 15.7585 21.1079 13.6906
Au 15.1768 22.3941 10.9908
Au 14.9587 23.5813 8.6325
Au 14.9969 15.7781 31.9044
Au 14.3684 16.8493 29.4132
Au 14.1469 17.9313 26.9334
Au 13.6554 19.1616 24.3789
Au 13.0405 20.3428 21.9477
Au 12.59 21.6366 19.2727
Au 12.0865 22.8892 16.7438
Au 11.714 23.8915 14.2749
Au 11.4835 25.0956 11.8395
Au 16.944 17.8609 32.6033
Au 16.352 18.9224 30.0974
Au 15.9571 20.1742 27.5962
Au 15.5256 21.3793 25.1021
Au 14.9339 22.3889 22.4249
Au 14.3394 23.8452 19.8865
Au 13.8999 25.0151 17.3382
Au 13.3195 26.1675 14.7626
Au 12.7879 27.4927 12.205
Au 19.0692 19.9793 33.3281
Au 18.3629 20.9764 30.8486
Au 17.5956 22.1768 28.3092
Au 17.2692 23.5888 25.6294
Au 16.8702 24.5526 23.0783
Au 16.4676 25.8812 20.371
Au 15.891 27.0747 17.7934
Au 15.4027 28.4889 15.1853
Au 14.805 29.6622 12.6309
Au 20.6588 21.9452 33.9764
Au 20.0356 23.2146 31.549
Au 19.7107 24.2529 29.0175
Au 19.1182 25.6661 26.1942
Au 18.574 26.8709 23.7396
Au 18.2047 28.057 21.035
Au 17.971 29.2481 18.5049
Au 17.4434 30.5464 15.8724
Au 16.6748 31.5513 13.3575
Au 23.5674 21.3186 33.2609
Au 22.8477 22.6243 30.7739
Au 22.3327 23.6565 28.0614
Au 21.7818 24.7984 25.4212
Au 21.1977 26.0779 22.7132
Au 20.9167 27.2952 20.0803
Au 20.3902 28.4259 17.5282
Au 20.0265 29.7034 15.0148
Au 19.2872 30.8897 12.5562
Au 26.1074 20.3633 32.129
Au 25.4971 21.6095 29.5574
Au 25.2705 22.7768 27.0626
Au 24.6281 23.995 24.2919
Au 24.0134 25.1591 21.8886
Au 23.5543 26.4721 19.1873
Au 23.1456 27.6853 16.6829
Au 22.6277 28.8485 13.9341
Au 21.9824 29.843 11.5957
Au 28.6666 19.426 31.1956
Au 28.2165 20.7199 28.7376
Au 27.8554 21.9957 26.1523
Au 27.2927 23.2495 23.6572
Au 26.7085 24.2684 20.9789
Au 26.2084 25.5577 18.2964
Au 25.862 26.7298 15.814
Au 25.2931 27.9642 13.0239
Au 24.6601 29.0754 10.6914
Au 28.5819 16.8532 30.2263
Au 28.1426 18.1186 27.4962
Au 27.5405 19.2851 24.9492
Au 26.7847 20.5203 22.3613
Au 26.2934 21.7163 19.663
Au 25.9525 22.9162 17.0966
Au 25.6127 24.2808 14.4891
Au 24.9684 25.3259 11.9154
Au 24.5644 26.5673 9.49538
Au 28.3389 14.326 29.0032
Au 27.9625 15.5113 26.5992
Au 27.3206 16.7136 23.7689
Au 26.7735 17.8683 21.1843
Au 26.3395 19.134 18.5147
Au 25.6599 20.3077 15.8682
Au 25.1139 21.508 13.3574
Au 24.7387 22.6494 10.8525
Au 24.223 23.671 8.26185
Au 27.9217 11.8278 27.7641
Au 27.6694 12.7445 25.3759
Au 27.0113 14.0594 22.766
Au 26.5061 14.9248 19.9648
Au 25.9391 16.3333 17.5567
Au 25.4203 17.5121 14.8738
Au 24.9223 18.7554 12.3887
Au 24.4847 19.811 9.75101
Au 23.9565 21.1213 7.2648
Au 25.0284 10.6558 28.1167
Au 24.7021 11.9873 25.3863
Au 24.0599 13.1554 22.9087
Au 23.7215 14.4204 20.1908
Au 23.2438 15.6471 17.6455
Au 22.7117 16.7232 15.1132
Au 22.1129 17.8488 12.468
Au 21.6145 19.1491 9.76292
Au 20.9829 20.256 7.43481
Au 22.2286 10.2025 28.2319
Au 21.7907 11.256 25.6601
Au 21.3801 12.3552 23.1351
Au 20.608 13.6054 20.5669
Au 20.2863 14.64 17.9648
Au 19.8979 16.0337 15.2856
Au 19.4587 17.098 12.7618
Au 18.8203 18.3089 10.1004
Au 18.3623 19.606 7.62563
Au 19.5541 9.70251 28.2459
Au 18.8438 10.4682 25.7757
Au 18.5822 11.7114 23.161
Au 17.9404 12.9751 20.582
Au 17.6533 14.0083 18.0063
Au 17.109 15.0994 15.4116
Au 16.4657 16.3707 12.7511
Au 16.0663 17.4914 10.3559
Au 15.4753 18.8825 7.94048
Au 17.8466 11.6181 29.4841
Au 17.4795 12.598 26.9723
Au 16.971 13.6728 24.3436
Au 16.5283 15.0253 21.9202
Au 16.1125 16.1571 19.2461
Au 15.6278 17.3964 16.7767
Au 15.0122 18.5387 13.9752
Au 14.5565 19.6192 11.5001
Au 13.9703 21.0272 8.9349
Au 16.4741 13.5535 30.856
Au 15.9453 14.6744 28.3661
Au 15.54 15.8354 25.5302
Au 15.1435 17.1419 23.1147
Au 14.4878 18.4212 20.5678
Au 14.1329 19.6558 18.1237
Au 13.5699 20.6795 15.4021
Au 13.0953 21.6997 12.8209
Au 12.8748 23.0479 10.4109
Au 12.4495 16.264 31.2249
Au 11.9179 17.3564 28.722
Au 11.2383 18.5976 26.3906
Au 10.668 19.945 23.6675
Au 10.3274 21.122 21.1527
Au 9.84379 22.2401 18.6674
Au 9.3729 23.3175 16.0654
Au 9.20771 24.5451 13.5424
Au 14.2237 18.3713 31.9129
Au 13.6906 19.6381 29.4092
Au 13.2798 20.5398 26.8425
Au 12.7289 21.9895 24.1532
Au 11.9957 23.0425 21.6627
Au 11.7192 24.3547 19.0443
Au 11.2717 25.7907 16.5581
Au 10.6636 26.7407 13.8776
Au 16.0676 20.4338 32.4543
Au 15.5029 21.7125 29.9792
Au 15.1461 22.7567 27.4247
Au 14.5354 24.0688 24.8394
Au 14.1721 25.0606 22.2997
Au 13.7625 26.6039 19.5357
Au 13.3795 27.8468 17.0342
Au 12.7319 28.8417 14.5511
Au 17.887 22.5567 33.2127
Au 17.3738 23.8268 30.7363
Au 17.1015 24.8877 28.1697
Au 16.4388 26.2876 25.5374
Au 15.9203 27.5375 22.7224
Au 15.6542 28.7609 20.1743
Au 15.0708 29.8963 17.459
Au 14.4824 31.1531 14.9726
Au 19.9454 24.843 33.842
Au 19.3463 25.9699 31.367
Au 18.8131 27.1378 28.5931
Au 18.3284 28.4291 26.1083
Au 17.7844 29.641 23.389
Au 17.4417 30.954 20.9712
Au 17.1 31.9475 18.3233
Au 16.4409 33.0412 15.8468
Au 22.4671 24.0848 32.9748
Au 21.9557 25.2411 30.4303
Au 21.465 26.3198 27.756
Au 20.8716 27.3803 25.1895
Au 20.4065 28.7745 22.6465
Au 20.0829 29.9344 19.9277
Au 19.7541 31.1663 17.3278
Au 19.264 32.5072 14.752
Au 25.2591 22.9064 31.8804
Au 24.5971 24.3333 29.5667
Au 24.2491 25.3366 26.8265
Au 23.6138 26.4408 24.2713
Au 23.1923 27.852 21.6781
Au 22.9161 29.0881 18.9686
Au 22.4395 30.4513 16.4094
Au 21.8094 31.4928 13.9403
Au 27.8073 22.0381 31.0565
Au 27.4968 23.4632 28.593
Au 27.1391 24.558 25.9793
Au 26.4465 25.7854 23.2456
Au 25.807 26.9215 20.7235
Au 25.5403 28.2809 18.1427
Au 24.9816 29.5082 15.4941
Au 24.2422 30.8163 12.702
Au 30.4881 21.5143 30.1283
Au 30.0406 22.6707 27.6312
Au 29.7311 23.8448 25.0364
Au 29.2531 25.0861 22.4839
Au 28.444 26.2439 19.9051
Au 28.3101 27.5383 17.4
Au 27.7395 28.6953 14.8009
Au 27.0533 29.7307 12.177
Au 30.3256 18.8941 29.1455
Au 30.0274 19.9889 26.4463
Au 29.2759 21.3194 23.7349
Au 28.6946 22.5212 21.303
Au 28.2577 23.6244 18.6837
Au 27.8181 24.8186 16.0785
Au 27.443 26.2088 13.3851
Au 26.967 27.2354 10.7383
Au 30.2729 16.2098 27.8878
Au 29.7156 17.3379 25.2546
Au 29.0358 18.5463 22.5534
Au 28.6651 19.814 20.0892
Au 27.8632 21.0813 17.3167
Au 27.6333 22.2318 14.8467
Au 27.0454 23.4385 12.265
Au 26.4944 24.5598 9.75274
Au 29.9514 13.6067 26.8135
Au 29.4565 14.8013 24.2091
Au 28.9095 15.8442 21.4519
Au 28.2984 17.1413 18.9139
Au 27.758 18.1756 16.3677
Au 27.3443 19.5298 13.7169
Au 26.7599 20.7316 10.967
Au 26.2644 21.7701 8.57168
Au 29.6512 10.9402 25.7001
Au 29.1385 12.1108 22.8897
Au 28.5618 13.1595 20.3758
Au 28.1009 14.3635 17.6924
Au 27.4203 15.4471 15.3028
Au 26.9923 16.74 12.7293
Au 26.4259 17.8746 9.95853
Au 25.9989 19.0851 7.60209
Au 26.8141 10.2274 25.9555
Au 26.1547 11.3725 23.2133
Au 25.8097 12.4104 20.545
Au 25.2726 13.6225 17.9316
Au 24.7409 14.7402 15.398
Au 24.0911 15.9712 12.8645
Au 23.5695 17.1838 10.1183
Au 23.3855 18.3887 7.71873
Au 24.066 9.41624 26.1871
Au 23.428 10.1907 23.6519
Au 22.8416 11.6835 20.88
Au 22.2933 12.8449 18.1982
Au 21.8594 13.9537 15.7303
Au 21.3888 15.2133 13.0174
Au 20.8221 16.429 10.2943
Au 20.4862 17.5991 7.77972
Au 21.2136 8.4953 26.3209
Au 20.4714 9.62963 23.7933
Au 20.0367 10.7903 21.0081
Au 19.4682 11.7569 18.5713
Au 19.1392 13.2494 15.7838
Au 18.6828 14.2878 13.2281
Au 18.0634 15.5247 10.5326
Au 17.6575 16.7042 8.06427
Au 18.4182 7.80304 26.133
Au 17.7532 9.08584 23.5179
Au 17.3409 10.3158 21.0346
Au 16.6755 11.364 18.4274
Au 16.2385 12.2827 15.7929
Au 15.8249 13.5791 13.3994
Au 15.3573 14.6878 10.7448
Au 15.0107 15.9316 8.17273
Au 16.6418 9.96888 27.5316
Au 16.0557 11.1066 24.9348
Au 15.6861 12.1484 22.3905
Au 15.5202 13.3751 19.7898
Au 14.8713 14.632 17.1154
Au 14.4602 15.9054 14.6964
Au 13.8022 16.8341 12.0367
Au 13.5023 18.1808 9.44731
Au 15.1906 12.047 28.7711
Au 14.7477 13.0684 26.1185
Au 14.2138 14.5001 23.6917
Au 13.9183 15.7022 21.0853
Au 13.4416 16.8293 18.5604
Au 12.9976 18.0154 15.9782
Au 12.3764 19.124 13.0959
Au 11.89 20.2347 10.576
Au 13.7617 14.0064 30.0939
Au 13.324 15.1369 27.427
Au 12.7336 16.7496 25.0051
Au 12.4152 17.7297 22.4649
Au 11.9012 18.9892 19.8243
Au 11.4217 20.1494 17.2539
Au 10.9377 21.3599 14.5145
Au 10.6949 22.5027 12.0377
Au 9.86289 17.0443 30.4967
Au 9.12199 18.0813 28.1861
Au 8.47285 19.2654 25.5412
Au 7.86972 20.5837 22.906
Au 7.61258 21.7459 20.3852
Au 7.13184 22.8723 17.8795
Au 6.86473 24.038 15.1907
Au 11.6507 18.8861 31.2572
Au 10.9075 20.2157 28.6633
Au 10.4253 21.2858 26.1184
Au 10.0151 22.7097 23.6595
Au 9.46727 23.842 20.9478
Au 9.03498 25.0051 18.2001
Au 8.71275 26.08 15.7735
Au 13.5654 21.0978 31.8347
Au 12.8559 22.3796 29.1955
Au 12.6109 23.2328 26.6096
Au 11.9972 24.7499 24.0688
Au 11.5165 25.8391 21.5541
Au 11.1255 27.2246 18.9414
Au 10.5019 28.3567 16.4353
Au 15.3735 23.0977 32.4298
Au 14.7749 24.4014 29.9213
Au 14.5555 25.6232 27.2309
Au 14.0883 26.7877 24.5348
Au 13.414 27.9812 21.9767
Au 12.9043 29.3738 19.3308
Au 12.3815 30.5817 16.8105
Au 17.3752 25.3283 33.1842
Au 16.6255 26.4198 30.5246
Au 16.2992 27.8008 27.8495
Au 15.6463 29.0653 25.2706
Au 15.0203 30.3025 22.5424
Au 14.7412 31.5227 20.0287
Au 14.2909 32.4544 17.3325
Au 19.284 27.4656 33.5999
Au 18.5623 28.8236 30.9543
Au 18.0082 30.1409 28.4293
Au 17.6231 31.1853 25.7941
Au 17.113 32.4516 23.5425
Au 16.6438 33.7314 20.775
Au 16.2165 34.3345 18.2561
Au 21.7622 26.6645 32.6165
Au 21.1364 28.0225 30.1478
Au 20.7097 29.0665 27.4881
Au 20.2562 30.4241 25.0285
Au 19.5543 31.7773 22.5762
Au 19.2032 32.628 19.9188
Au 18.8455 33.8147 17.1223
Au 24.4083 25.7415 31.7333
Au 23.8157 26.899 29.1928
Au 23.2143 28.0078 26.5012
Au 22.6989 29.218 24.0235
Au 22.2721 30.5637 21.409
Au 21.895 31.6627 18.7182
Au 21.7013 33.1327 16.322
Au 27.0933 24.9428 30.7116
Au 26.6012 26.1459 28.4162
Au 25.8452 27.2667 25.6805
Au 25.5471 28.4453 23.1046
Au 25.0518 29.6065 20.5834
Au 24.6127 31.03 17.921
Au 24.1774 32.158 15.2437
Au 29.7678 24.0534 29.9778
Au 29.3369 25.4141 27.5593
Au 28.7234 26.541 24.7642
Au 28.4149 27.6598 22.1632
Au 27.791 29.0181 19.7049
Au 27.246 30.1579 17.0937
Au 26.5592 31.2819 14.4753
Au 32.2494 23.2494 28.9548
Au 32.0727 24.6382 26.5288
Au 31.5687 25.7696 24.1444
Au 31.1127 26.7608 21.4282
Au 30.6121 27.9472 18.9083
Au 29.9913 29.5468 16.3644
Au 29.2441 30.4737 13.8665
Au 32.1224 20.6983 28.0563
Au 31.7145 21.9398 25.2838
Au 31.163 23.1606 22.7532
Au 30.6442 24.4083 20.1396
Au 30.2089 25.4392 17.5956
Au 29.7186 26.6171 14.9605
Au 29.1631 28.0437 12.0987
Au 31.9609 18.0536 26.6938
Au 31.4609 19.3369 24.1823
Au 30.8905 20.5299 21.5988
Au 30.4447 21.727 18.9323
Au 30.0609 22.7471 16.3406
Au 29.2096 24.1031 13.636
Au 28.9083 25.3863 10.9169
Au 31.7963 15.4336 25.6661
Au 31.0761 16.6941 23.0073
Au 30.5875 17.7905 20.2323
Au 30.1175 19.1509 17.7105
Au 29.5059 20.1907 15.0695
Au 29.129 21.3339 12.3905
Au 28.6609 22.7282 9.90454
Au 31.3298 12.7198 24.4481
Au 30.9309 13.88 21.8994
Au 30.4136 15.2276 19.1112
Au 29.8476 16.2341 16.4755
Au 29.2868 17.4959 13.8263
Au 28.7564 18.5487 11.4121
Au 28.2235 19.9022 8.88622
Au 30.95 10.1726 23.2001
Au 30.6196 11.2805 20.5305
Au 30.176 12.4569 17.9073
Au 29.8342 13.387 15.4195
Au 29.1167 14.7562 13.0679
Au 28.5765 15.976 10.3577
Au 27.9852 17.1848 7.9396
Au 28.3538 9.6346 23.5866
Au 27.7997 10.6139 20.985
Au 27.3013 11.4853 18.2378
Au 26.9115 12.6434 15.6722
Au 26.4221 13.8729 13.2632
Au 25.8627 15.0822 10.5752
Au 25.201 16.4561 7.8729
Au 25.5379 8.68099 23.8578
Au 25.0221 9.70317 21.2713
Au 24.4451 10.9609 18.6042
Au 23.9076 12.1023 16.017
Au 23.4796 13.2555 13.3585
Au 22.8854 14.6022 10.7454
Au 22.5193 15.7445 8.08072
Au 22.7522 7.78661 24.0073
Au 22.0684 8.89438 21.422
Au 21.7611 9.99561 18.7447
Au 21.1325 11.178 16.2187
Au 20.8307 12.3911 13.4752
Au 20.2269 13.7402 10.8143
Au 19.7361 14.8635 8.32736
Au 19.7672 7.05124 23.9984
Au 19.4081 8.12931 21.5392
Au 18.6045 9.12352 18.8307
Au 18.4268 10.4896 16.3372
Au 17.7611 11.6783 13.5616
Au 17.4503 12.8916 11.11
Au 16.9463 13.8182 8.26332
Au 17.1345 6.59813 23.9486
Au 16.5293 7.38998 21.3736
Au 15.9558 8.49064 18.831
Au 15.5812 9.6124 16.3398
Au 14.9976 10.7908 13.6709
Au 14.6408 12.0875 11.2421
Au 14.3425 13.175 8.93783
Au 15.6443 8.53801 25.4004
Au 14.9835 9.47905 22.6734
Au 14.6642 10.5477 20.2095
Au 14.0393 11.8352 17.6091
Au 13.8331 12.9545 15.1057
Au 13.1846 14.3887 12.479
Au 12.7982 15.5838 9.78482
Au 14.0567 10.3917 26.7386
Au 13.5225 11.8346 24.1561
Au 13.0747 12.9278 21.5315
Au 12.7523 14.0939 19.1539
Au 12.3834 15.3627 16.4254
Au 11.6368 16.5194 13.7199
Au 11.268 17.6608 11.1198
Au 12.4453 12.5439 27.9113
Au 12.0426 13.7169 25.5226
Au 11.5977 14.9996 22.9181
Au 11.1406 16.2443 20.3089
Au 10.6598 17.4722 17.713
Au 10.5054 18.6747 15.1191
Au 9.78763 19.7859 12.5052
Au 11.1992 14.6321 29.2873
Au 10.4654 15.994 26.7127
Au 9.94444 17.2444 24.1319
Au 9.52565 18.3878 21.3993
Au 9.255 19.4946 18.9554
Au 8.7245 20.7839 16.4588
Au 8.37015 21.848 13.7606
Au 8.91205 19.6321 30.4579
Au 8.15946 20.8202 27.6632
Au 7.76929 22.3597 25.2589
Au 7.4456 23.3041 22.7061
Au 6.86613 24.6063 20.0351
Au 6.59266 25.7816 17.6837
Au 10.9241 21.8844 30.9962
Au 10.1491 23.0578 28.3235
Au 9.92403 24.3085 25.8157
Au 9.30114 25.5658 23.349
Au 8.83582 26.5667 20.6441
Au 8.60672 27.8037 18.0674
Au 12.6654 23.8818 31.8469
Au 12.1882 25.008 28.8041
Au 11.6447 26.2951 26.5876
Au 11.0194 27.4922 24.0018
Au 10.7071 28.5867 21.3283
Au 10.3546 30.0459 18.7556
Au 14.5539 25.8394 32.2526
Au 14.2272 27.1411 29.5739
Au 13.5859 28.3181 26.941
Au 12.9349 29.4142 24.2551
Au 12.5484 30.7863 21.7801
Au 12.1706 32.0594 19.1431
Au 16.4288 27.7126 32.6538
Au 15.9089 29.4176 30.3489
Au 15.4212 30.47 27.6895
Au 15.0657 31.676 24.9878
Au 14.6229 33.2616 22.3626
Au 13.9747 34.026 19.8258
Au 20.898 29.3661 32.3688
Au 20.4209 30.6842 29.8843
Au 20.04 31.7774 27.4099
Au 19.5812 33.0988 25.004
Au 19.0664 34.3583 22.1531
Au 18.5357 35.1239 19.464
Au 23.5328 28.5263 31.7368
Au 23.0579 29.4901 29.1005
Au 22.5853 30.8073 26.4187
Au 22.0751 32.0245 23.8779
Au 21.5943 33.2593 21.2921
Au 21.1935 34.4809 18.6697
Au 26.0706 27.6575 30.6795
Au 25.6787 28.7372 28.0773
Au 24.9975 30.0649 25.4606
Au 24.8758 31.2151 22.8526
Au 24.0262 32.3447 20.2727
Au 23.7144 33.7884 17.9663
Au 28.9205 26.7835 29.9506
Au 28.2269 27.8998 27.0303
Au 27.5701 29.2393 24.7134
Au 27.3159 30.3984 22.0217
Au 26.7028 31.6562 19.5493
Au 26.4458 32.7804 16.928
Au 31.4546 26.3091 28.9016
Au 31.0505 27.2497 26.4239
Au 30.7788 28.3467 23.675
Au 30.0762 29.7363 21.2912
Au 29.6232 30.7261 18.8193
Au 28.9016 31.9436 16.0535
Au 33.8365 22.4701 26.8748
Au 33.6921 23.5819 24.1849
Au 33.0448 24.8377 21.7651
Au 32.5166 25.9876 19.1341
Au 31.7918 27.278 16.4742
Au 31.1934 28.7296 14.0609
Au 33.7078 20.0066 25.7599
Au 33.2417 21.1047 23.0297
Au 32.863 22.469 20.4706
Au 32.2727 23.5763 17.7319
Au 31.5114 24.7213 15.1136
Au 30.9524 26.026 12.5056
Au 33.3821 17.4139 24.3454
Au 32.8606 18.6003 21.6022
Au 32.5096 19.7359 19.0984
Au 32.0307 20.8127 16.4916
Au 31.3092 21.9438 13.9413
Au 30.858 23.2166 11.4827
Au 33.0368 14.7145 23.287
Au 32.4398 16.0269 20.7219
Au 32.2502 17.0373 18.0556
Au 31.5581 18.2335 15.3998
Au 31.1175 19.3321 12.7026
Au 30.5751 20.6309 10.2128
Au 32.7583 11.9754 22.2521
Au 32.2466 13.2553 19.5827
Au 32.0907 14.5058 16.929
Au 31.4195 15.5685 14.3116
Au 31.0251 16.6462 11.6875
Au 30.4479 17.9232 9.47644
Au 29.5969 8.62812 21.1592
Au 29.2525 9.70604 18.6382
Au 29.0262 10.7401 16.1053
Au 28.4316 12.0771 13.4122
Au 27.9335 13.272 10.9289
Au 27.2739 14.6947 8.48936
Au 27.1944 7.76526 21.6729
Au 26.6435 8.89321 18.8769
Au 25.9164 9.92726 16.2847
Au 25.4182 11.4162 13.8119
Au 24.9431 12.557 11.167
Au 24.4607 13.8222 8.42805
Au 24.2363 7.06613 21.6737
Au 23.7788 8.0362 19.1242
Au 23.2264 9.13774 16.6201
Au 22.7704 10.3813 14.0454
Au 22.3161 11.8387 11.2588
Au 21.937 12.9621 8.74624
Au 21.6701 6.37952 21.8959
Au 21.0014 7.46205 19.3286
Au 20.4038 8.47376 16.6737
Au 19.9579 9.6373 14.207
Au 19.4888 11.0593 11.4864
Au 19.2476 12.2004 8.7862
Au 18.6891 5.77851 21.8225
Au 18.1528 6.53197 19.356
Au 17.5484 7.65331 16.6654
Au 17.2032 9.12929 14.1583
Au 16.7161 10.1007 11.495
Au 16.4868 11.19 9.2045
Au 14.4467 7.04178 23.1827
Au 13.7941 7.91092 20.5304
Au 13.2378 8.995 17.9371
Au 12.7822 10.4613 15.5544
Au 12.4281 11.5705 12.9795
Au 12.079 13.0383 10.4195
Au 12.953 9.10217 24.5622
Au 12.3307 10.2645 22.0312
Au 11.8767 11.2911 19.3746
Au 11.3399 12.5224 16.9092
Au 11.1775 13.8238 14.295
Au 10.6347 15.055 11.4272
Au 11.1858 11.0618 25.8562
Au 10.8225 12.2899 23.4256
Au 10.4584 13.4993 20.6733
Au 10.0825 14.8456 18.0545
Au 9.54664 15.9213 15.5484
Au 9.11489 16.953 13.092
Au 9.84738 13.355 27.2373
Au 9.41331 14.5846 24.6823
Au 9.13899 15.5599 22.0461
Au 8.55168 16.8053 19.3389
Au 8.09013 18.0389 16.6953
Au 7.67812 19.1658 14.2372
Au 8.54001 15.4749 28.5514
Au 7.84669 16.7433 26.0236
Au 7.53786 17.8925 23.2542
Au 6.94903 19.038 20.6747
Au 6.49642 20.1 18.0092
Au 6.18866 21.1769 15.5814
Au 8.49135 22.2652 30.133
Au 7.75789 23.7022 27.7666
Au 7.46604 25.0057 25.2021
Au 6.85301 26.0376 22.3579
Au 6.53204 27.3884 20.039
Au 10.0503 24.3616 30.5277
Au 9.55717 25.8656 28.4207
Au 9.0275 26.9394 25.7884
Au 8.4166 28.1399 23.3044
Au 8.2073 29.2455 20.6108
Au 12.0786 26.3898 31.0203
Au 11.6016 27.7239 28.8136
Au 10.9532 28.9466 26.2643
Au 10.433 30.0811 23.503
Au 10.1059 31.1833 21.1576
Au 13.951 28.385 31.8993
Au 13.4111 29.6844 29.3125
Au 13.091 30.8894 26.6199
Au 12.4933 32.0219 24.0931
Au 11.952 33.254 21.6639
Au 22.8356 31.037 31.1306
Au 22.3767 32.2575 28.8203
Au 21.9366 33.4618 26.199
Au 21.284 34.6111 23.5874
Au 20.8183 35.835 20.988
Au 25.5057 30.3347 30.4016
Au 24.8475 31.4564 27.9028
Au 24.4579 32.6049 25.1623
Au 23.9784 33.7699 22.8292
Au 23.5407 35.2317 20.3591
Au 27.9914 29.4521 29.5775
Au 27.4457 30.8197 26.9594
Au 26.992 31.9204 24.3715
Au 26.4491 33.2473 21.8693
Au 25.941 34.1773 19.2792
Au 30.2636 28.6357 28.734
Au 30.1258 29.6159 26.0658
Au 29.6243 30.8765 23.6657
Au 28.9113 32.4121 21.2247
Au 28.6598 33.0382 18.4339
Au 35.529 21.6986 24.1458
Au 35.0678 23.106 21.8777
Au 34.4947 24.1745 19.164
Au 33.9278 25.3493 16.6673
Au 32.909 26.6514 14.1907
Au 35.0932 19.1975 23.1093
Au 34.7526 20.4381 20.652
Au 34.2368 21.7613 17.8417
Au 33.5219 22.7278 15.2971
Au 32.9057 24.0431 12.8081
Au 34.6592 16.6259 22.1012
Au 34.4214 17.9524 19.6067
Au 34.1056 19.0247 16.814
Au 33.3668 20.0506 14.1827
Au 32.8964 21.519 11.9537
Au 34.3272 14.0276 21.1679
Au 34.0592 15.2677 18.7349
Au 33.7215 16.6763 15.7886
Au 33.0993 17.6388 13.1922
Au 32.647 18.6745 10.8084
Au 28.5767 6.97808 19.4512
Au 28.1704 8.1697 16.6963
Au 27.5376 9.66677 14.1863
Au 26.8295 10.8258 11.3219
Au 26.5304 12.1129 8.99439
Au 26.0061 6.47741 19.6692
Au 25.3254 7.3072 16.9299
Au 24.9024 8.56064 14.2261
Au 24.2561 9.71413 11.9426
Au 24.0485 10.95 9.29396
Au 23.0278 5.49286 19.3976
Au 22.4289 6.46138 17.1085
Au 22.3149 7.80024 14.4632
Au 21.5782 9.29097 11.7828
Au 21.2427 10.3705 9.45567
Au 20.3574 5.05398 19.6862
Au 19.7446 5.92699 17.1216
Au 19.2612 6.95002 14.6896
Au 18.624 8.45275 12.0845
Au 18.5235 9.54033 9.43515
Au 12.073 7.50676 22.4799
Au 11.3064 8.56981 19.9826
Au 10.667 10.0769 17.2878
Au 10.2912 11.3174 14.8105
Au 10.0253 12.6107 12.2954
Au 10.4989 9.46056 23.6052
Au 9.84207 10.818 21.099
Au 9.11289 12.2008 18.754
Au 8.83868 13.2929 16.1798
Au 8.41189 14.2977 13.5941
Au 8.81225 12.0113 25.1865
Au 8.45182 13.1539 22.5661
Au 7.69204 14.2812 19.9089
Au 7.3493 15.2842 17.2793
Au 7.04929 16.4979 14.9657
Au 7.4672 14.0265 26.1306
Au 6.87831 15.2005 23.8134
Au 6.61394 16.5436 21.1601
Au 6.09269 17.3589 18.511
Au 5.64883 18.5573 16.2053
