891
 Atoms. Timestep: 50000
Au 1.41188 17.5699 21.0264
Au 2.93454 19.5522 21.9081
Au 4.16487 21.8 22.9184
Au 5.94091 23.8232 23.3523
Au 7.75527 25.9716 23.9909
Au 9.28542 28.1374 24.6129
Au 10.9972 29.8615 25.5368
Au 12.5356 31.7919 26.7289
Au 14.145 33.9149 27.1124
Au 16.091 35.5043 27.5692
Au 17.7831 37.2776 28.5242
Au 3.20551 15.7929 19.9653
Au 4.72251 17.8643 20.9006
Au 5.95314 20.156 21.7836
Au 7.68743 22.2737 22.2553
Au 9.5205 24.3417 23.1235
Au 11.1989 26.3948 24.0636
Au 13.1483 28.6111 24.7131
Au 14.6901 30.8795 25.5782
Au 16.6198 32.8973 26.3636
Au 18.6593 34.7771 27.2386
Au 20.1164 36.5595 28.3502
Au 5.2899 14.3295 18.9258
Au 6.80673 16.2286 19.8815
Au 8.28259 18.6144 20.8356
Au 10.0531 20.78 21.5239
Au 11.9542 22.8577 22.308
Au 13.5423 24.9149 22.8573
Au 15.3319 26.9887 23.6642
Au 16.8916 29.1227 24.646
Au 18.7448 31.4751 25.5323
Au 20.6601 33.3745 26.0844
Au 22.2605 35.18 27.0953
Au 7.37953 12.8697 18.1741
Au 8.84462 14.7086 18.9802
Au 10.3777 16.6576 19.8344
Au 12.2464 19.2567 20.7113
Au 14.0374 21.2142 21.3425
Au 15.7901 23.3235 22.1807
Au 17.5069 25.4471 23.0429
Au 19.3349 27.811 23.8344
Au 21.0139 29.9375 24.6036
Au 22.8966 31.9814 25.1894
Au 24.4969 33.967 26.0066
Au 9.42653 11.2509 17.5201
Au 11.1424 13.2219 18.0201
Au 12.6133 15.3305 18.9756
Au 14.5224 17.4568 19.8309
Au 16.3199 19.8511 20.5634
Au 18.0619 22.0048 21.4555
Au 19.8829 24.1718 22.3141
Au 21.6336 26.2587 22.9203
Au 23.3117 28.3781 23.7316
Au 25.0054 30.6137 24.5101
Au 26.7041 32.5975 25.0365
Au 11.8177 9.86907 16.7668
Au 13.4323 11.8989 17.3903
Au 14.9473 13.9864 18.096
Au 16.9401 15.9975 18.709
Au 18.5906 18.2006 19.5816
Au 20.16 20.4836 20.4983
Au 22.0282 22.5894 21.2351
Au 23.8605 24.8128 22.1523
Au 25.6628 26.8749 22.8599
Au 27.402 29.0606 23.634
Au 28.7296 31.1625 24.1669
Au 13.6262 8.1059 15.8429
Au 15.6357 10.1622 16.5471
Au 17.3978 12.1896 17.1949
Au 19.1135 14.4012 17.9215
Au 20.9444 16.7233 18.7375
Au 22.502 19.0572 19.4554
Au 24.3256 21.1038 20.3283
Au 26.1668 23.3251 21.0207
Au 27.8202 25.4444 21.8648
Au 29.4744 27.5903 22.7388
Au 30.9798 29.6509 23.627
Au 15.7617 6.86721 14.9614
Au 17.6528 8.42635 15.6299
Au 19.4211 10.631 16.0412
Au 21.206 12.7954 16.8765
Au 23.1018 15.0437 17.752
Au 24.8279 17.437 18.5984
Au 26.5297 19.5583 19.3085
Au 28.4861 21.8417 20.1715
Au 30.2517 23.9535 21.1276
Au 31.9173 26.1052 21.7419
Au 33.2965 28.2411 22.4715
Au 18.2157 5.46508 14.2801
Au 19.9953 7.32503 14.7688
Au 22.0289 9.49921 15.2991
Au 23.6471 11.5566 15.9922
Au 25.2715 13.6101 16.989
Au 27.0959 15.7201 17.5377
Au 29.022 17.8045 18.5109
Au 30.9622 19.9314 19.2075
Au 32.4778 22.3302 20.0227
Au 34.1321 24.6847 20.9217
Au 35.4249 26.7358 21.6528
Au 20.4506 4.18928 13.2734
Au 22.2771 6.00544 13.9244
Au 24.3162 7.85616 14.3417
Au 25.895 10.2122 15.2648
Au 27.7443 12.3137 15.9521
Au 29.403 14.4142 16.5532
Au 31.3069 16.5424 17.358
Au 33.0307 18.5623 18.1266
Au 34.7244 20.8517 19.0068
Au 36.1619 23.2584 19.7136
Au 37.5723 25.3201 20.6766
Au 22.8204 3.40081 12.2726
Au 24.673 4.88805 13.0314
Au 26.5818 6.79256 13.4945
Au 28.0556 8.7186 14.617
Au 29.9935 11.0472 15.1289
Au 31.5571 13.0439 15.9254
Au 33.399 14.9485 16.7281
Au 35.106 17.2052 17.4521
Au 36.6516 19.3509 18.0033
Au 38.0577 21.441 18.8586
Au 39.4066 23.5597 19.644
Au 2.80324 18.546 19.1296
Au 4.22785 20.7713 19.9363
Au 5.64134 22.7914 20.775
Au 7.38961 24.8161 21.4802
Au 9.31475 27.0172 22.0926
Au 11.1113 29.395 22.9793
Au 12.6085 31.3268 23.7963
Au 14.2054 33.3244 24.4456
Au 16.0711 35.3564 24.9475
Au 17.7076 37.0013 25.9429
Au 4.54494 16.9349 17.9913
Au 6.2322 19.0931 18.8617
Au 7.76066 21.1935 19.7032
Au 9.71363 23.3159 20.3978
Au 11.2714 25.5311 21.1065
Au 13.0237 27.5699 22.0355
Au 14.8663 29.8304 22.736
Au 16.4188 31.8311 23.6394
Au 18.3182 33.9646 24.4003
Au 20.2349 36.1091 25.5134
Au 6.76264 15.142 16.8555
Au 8.23354 17.3312 17.9267
Au 10.0333 19.3804 18.7982
Au 11.8881 21.6731 19.3852
Au 13.6239 23.9969 20.287
Au 15.3301 26.1232 21.1246
Au 16.8912 28.3178 21.9808
Au 18.7379 30.345 22.6833
Au 20.786 32.5411 23.45
Au 22.4176 34.5848 24.2883
Au 8.95146 13.7076 16.2222
Au 10.6606 15.8549 16.908
Au 12.3066 18.0263 18.046
Au 14.1604 20.1128 18.7552
Au 15.9706 22.3179 19.4097
Au 17.5765 24.7624 20.404
Au 19.19 26.7801 21.125
Au 21.023 28.7511 22.0345
Au 22.8801 30.8335 22.5021
Au 24.5427 33.1228 23.2074
Au 11.3576 12.3738 15.4531
Au 12.8644 14.6065 16.2387
Au 14.6728 16.6241 17.0693
Au 16.3568 18.6925 17.7586
Au 17.9489 20.9526 18.5746
Au 19.6964 22.9478 19.4966
Au 21.5423 25.1742 20.3595
Au 23.4173 27.2538 21.045
Au 25.0995 29.4837 21.7339
Au 26.8528 31.6149 22.4817
Au 13.388 10.807 14.7253
Au 15.1552 12.9329 15.338
Au 16.8798 14.9658 16.0985
Au 18.7379 17.1882 16.7659
Au 20.2225 19.5486 17.8209
Au 22.0391 21.5315 18.5665
Au 23.9479 23.7138 19.3687
Au 25.6706 25.8824 20.1273
Au 27.3992 28.1623 20.8439
Au 29.2098 30.2297 21.604
Au 15.2764 9.17724 13.9161
Au 17.1388 11.2425 14.5388
Au 19.0027 13.348 15.155
Au 20.8487 15.4621 16.0592
Au 22.5082 17.8429 16.8205
Au 24.4054 19.9729 17.4514
Au 26.0876 22.2586 18.3557
Au 28.0498 24.5973 19.2952
Au 29.7654 26.7066 19.9379
Au 31.3089 28.8116 20.8105
Au 17.5105 7.7575 13.1644
Au 19.4005 9.617 13.4453
Au 21.387 11.874 14.1561
Au 23.0292 14.1065 15.1115
Au 24.9964 16.2913 15.9134
Au 26.6855 18.4566 16.7428
Au 28.6565 20.4885 17.6062
Au 30.2411 22.8335 18.4183
Au 31.9319 25.0396 19.0209
Au 33.4973 27.3686 19.8356
Au 19.904 6.63158 12.0962
Au 21.7895 8.48071 12.6957
Au 23.7716 10.5939 13.2288
Au 25.5099 12.7948 14.1897
Au 27.1119 14.8418 14.8717
Au 29.0818 17.0767 15.6566
Au 30.9345 19.1028 16.3557
Au 32.5348 21.4833 17.3606
Au 34.1359 23.5803 18.0721
Au 35.4596 25.9899 18.7579
Au 22.1922 5.56647 11.1871
Au 24.077 7.23651 11.6551
Au 26.1477 9.23128 12.4652
Au 27.66 11.2095 13.4303
Au 29.5433 13.5197 13.9675
Au 31.3824 15.4506 14.841
Au 33.1442 17.5466 15.4001
Au 34.6469 19.8436 16.2069
Au 36.2632 22.0342 16.8909
Au 37.6952 24.4605 18.0085
Au 4.24585 19.7861 17.2355
Au 5.79532 21.9207 17.9833
Au 7.51187 23.8089 18.7288
Au 9.21739 25.9899 19.4541
Au 11.0443 28.2172 20.1746
Au 12.5629 30.5807 21.0893
Au 14.3999 32.3726 21.7726
Au 16.1537 34.4377 22.6098
Au 18.1048 36.4549 23.3051
Au 6.18176 18.1462 16.0675
Au 8.01598 20.0669 17.0453
Au 9.65501 22.3647 17.7435
Au 11.2955 24.4949 18.4401
Au 13.2333 26.7527 19.2433
Au 14.8539 28.7822 19.9277
Au 16.6278 30.949 20.9315
Au 18.2722 32.9981 21.7328
Au 20.0997 34.9872 22.5875
Au 8.49875 16.6769 15.2678
Au 10.0388 18.5922 16.0348
Au 11.7292 20.6513 16.8015
Au 13.6523 22.834 17.7419
Au 15.5422 25.1548 18.4096
Au 17.277 27.2152 19.3569
Au 18.899 29.3762 20.235
Au 20.7484 31.5825 20.7823
Au 22.5801 33.7143 21.6584
Au 10.8321 15.0383 14.3933
Au 12.4622 17.1702 15.1575
Au 14.1265 19.3855 16.0691
Au 15.8192 21.5049 16.8806
Au 17.6812 23.5484 17.5681
Au 19.4364 25.4969 18.3303
Au 21.1241 27.9009 19.2627
Au 23.0321 29.9999 19.8397
Au 24.6567 32.1675 20.6685
Au 13.0352 13.48 13.5601
Au 14.6659 15.5258 14.2083
Au 16.4373 17.6816 15.0714
Au 18.0796 19.7417 15.9415
Au 19.7729 22.1149 16.7068
Au 21.7906 24.3032 17.6881
Au 23.4876 26.4849 18.4461
Au 25.2394 28.6326 19.0237
Au 27.0455 30.8495 19.8145
Au 14.9188 11.7741 12.7347
Au 16.9191 14.0308 13.2885
Au 18.5222 15.9976 14.0966
Au 20.5331 18.3009 14.9768
Au 22.3045 20.4115 15.8996
Au 23.8566 22.736 16.8868
Au 25.9195 24.9699 17.4759
Au 27.7061 27.1497 18.0997
Au 29.3189 29.4538 18.867
Au 17.0517 10.4409 11.8029
Au 19.0282 12.1978 12.5988
Au 20.903 14.5139 13.2416
Au 22.8831 16.7861 14.2157
Au 24.6333 18.8635 15.0723
Au 26.374 21.2134 15.8549
Au 28.1084 23.2589 16.7551
Au 29.6991 25.6214 17.3056
Au 31.4651 27.8318 17.8985
Au 19.3634 9.13928 10.8634
Au 21.6138 10.8755 11.4647
Au 23.1513 13.1837 12.251
Au 25.0389 15.2066 12.976
Au 26.8766 17.5021 13.9302
Au 28.5461 19.6021 14.7632
Au 30.2133 21.7008 15.5616
Au 31.8245 24.1173 16.4701
Au 33.4918 26.2734 16.8594
Au 21.7176 8.06813 10.1297
Au 23.8374 9.65819 10.5967
Au 25.7174 11.7935 11.5618
Au 27.4759 13.7963 12.324
Au 29.1265 16.1067 13.0699
Au 30.9469 18.1319 13.7964
Au 32.4528 20.3724 14.5073
Au 34.2453 22.6146 15.3531
Au 35.6832 24.8659 16.14
Au 6.07572 20.871 15.3125
Au 7.43337 22.8873 16.0032
Au 9.13936 24.9002 16.8093
Au 11.0999 27.0971 17.5625
Au 12.7171 29.2423 18.3443
Au 14.5451 31.4094 19.1723
Au 16.1158 33.483 19.7976
Au 17.96 35.3276 20.7017
Au 7.93922 19.2135 14.2472
Au 9.56516 21.4081 14.9496
Au 11.6424 23.4727 16.0368
Au 13.3827 25.6666 16.6946
Au 14.8852 27.7659 17.2945
Au 16.833 29.7997 18.2105
Au 18.4664 32.0534 18.956
Au 20.1946 34.0207 19.707
Au 10.3524 17.639 13.4464
Au 12.0997 19.8179 14.1897
Au 13.8248 22.0118 14.9586
Au 15.4737 24.2858 15.7999
Au 17.3722 26.2404 16.6807
Au 19.0473 28.3601 17.4854
Au 20.79 30.3742 18.2197
Au 22.5798 32.7224 19.0175
Au 12.4173 16.1185 12.533
Au 14.2449 18.1971 13.1846
Au 15.9802 20.4839 14.0246
Au 17.7437 22.6485 14.7458
Au 19.5496 24.6887 15.6189
Au 21.2855 26.8347 16.6003
Au 23.1926 28.9991 17.1927
Au 24.9444 31.3551 18.1059
Au 14.7857 14.7298 11.6156
Au 16.503 16.6301 12.2973
Au 18.2489 18.7136 13.3633
Au 19.86 21.0136 14.2419
Au 21.7796 23.2276 14.9729
Au 23.6705 25.3297 15.6671
Au 25.4328 27.5021 16.548
Au 26.9873 29.8293 17.2132
Au 16.9334 13.0861 10.7795
Au 18.9577 15.132 11.5725
Au 20.7283 17.1785 12.5544
Au 22.3824 19.5739 13.1903
Au 24.1065 21.5987 14.1905
Au 25.8632 23.7189 14.8721
Au 27.7146 25.8854 15.5736
Au 29.1689 28.2676 16.1327
Au 19.1298 11.532 9.92845
Au 21.0174 13.4993 10.4067
Au 22.9455 15.8086 11.3938
Au 24.6968 17.9168 12.2178
Au 26.2874 20.0244 12.9898
Au 28.1262 22.1686 13.5373
Au 29.866 24.5379 14.5776
Au 31.4371 26.5864 15.2285
Au 21.6087 10.2843 8.95957
Au 23.4909 12.1657 9.4318
Au 25.317 14.2381 10.4804
Au 27.073 16.4866 11.3861
Au 28.7967 18.6984 12.2905
Au 30.5247 20.8264 12.8459
Au 31.9186 22.9785 13.7943
Au 33.4447 25.1009 14.4315
Au 7.67377 21.7038 13.1167
Au 9.34981 23.8557 14.2785
Au 11.0016 26.042 14.9026
Au 12.7675 28.2898 15.6934
Au 14.5567 30.2993 16.4115
Au 16.2716 32.3958 17.0905
Au 17.8669 34.4462 17.9838
Au 9.89049 20.3181 12.3349
Au 11.635 22.5463 13.342
Au 13.4254 24.6487 13.8947
Au 15.0195 26.7287 14.6682
Au 16.7601 28.9351 15.516
Au 18.5554 30.848 16.4228
Au 20.2373 32.9472 17.2601
Au 12.1805 18.9358 11.5469
Au 13.8896 21.0458 12.2906
Au 15.5787 23.2249 12.9697
Au 17.3577 25.3603 13.7785
Au 19.11 27.3841 14.8358
Au 20.9759 29.474 15.5625
Au 22.7171 31.7101 16.5177
Au 14.241 17.1332 10.6224
Au 16.2323 19.1395 11.4402
Au 17.8386 21.5071 12.2373
Au 19.7989 23.5825 13.0361
Au 21.3798 25.98 13.8211
Au 23.34 27.9768 14.7699
Au 24.961 30.3642 15.6161
Au 16.6662 15.5827 9.58566
Au 18.605 17.6235 10.6915
Au 20.1201 19.7585 11.6145
Au 21.9576 22.1559 12.1209
Au 23.648 24.2705 13.0341
Au 25.5232 26.5151 13.79
Au 27.1149 28.5081 14.6659
Au 18.7938 14.1121 8.81577
Au 20.7996 16.1079 9.52211
Au 22.4304 18.3149 10.473
Au 24.2136 20.5302 11.3532
Au 25.8892 22.6836 12.0841
Au 27.6001 24.9875 12.7748
Au 29.2468 27.2182 13.6683
Au 21.308 12.5824 7.8538
Au 23.0286 14.7377 8.77292
Au 24.8636 16.7383 9.6464
Au 26.6767 19.0381 10.4982
Au 28.139 21.4106 10.9578
Au 29.7934 23.5851 11.76
Au 31.5635 25.5499 12.6507
Au 9.4645 22.8508 11.6947
Au 11.2442 25.0154 12.3929
Au 12.7502 27.3068 13.1122
Au 14.6071 29.3434 13.7303
Au 16.3498 31.5066 14.5923
Au 18.1081 33.3499 15.6094
Au 11.7443 21.4291 10.4991
Au 13.5917 23.5131 11.2987
Au 15.1606 25.896 11.9372
Au 16.8281 28.0777 12.9465
Au 18.5377 30.0192 13.5919
Au 20.5033 32.0318 14.497
Au 14.0852 19.7093 9.73256
Au 15.7337 21.9579 10.3259
Au 17.7436 24.0972 11.3483
Au 19.315 26.1536 11.9903
Au 20.9394 28.5451 12.859
Au 22.7979 30.6846 13.8108
Au 16.3529 18.2925 8.87011
Au 18.1427 20.2406 9.59528
Au 19.8456 22.2691 10.4693
Au 21.5487 24.8414 11.2849
Au 23.2568 27.0577 12.0678
Au 24.9672 29.2816 12.8678
Au 18.7561 16.8651 8.00713
Au 20.3319 18.9039 8.7059
Au 22.174 21.0674 9.36126
Au 23.8537 23.2603 10.3191
Au 25.5293 25.5986 11.1732
Au 27.3853 27.8408 11.7458
Au 20.7846 15.2362 7.05977
Au 22.8506 17.3591 7.9086
Au 24.5007 19.4157 8.80642
Au 25.9523 21.7967 9.4309
Au 27.5684 23.8791 10.0667
Au 29.3572 26.1742 10.9875
Au 11.5703 24.0813 9.88092
Au 12.8917 26.3517 10.6211
Au 14.624 28.5306 11.1636
Au 16.2531 30.6119 11.8819
Au 18.3083 32.4776 12.8743
Au 13.6365 22.4367 8.60579
Au 15.4782 24.594 9.48976
Au 17.0439 26.703 10.4305
Au 18.7706 28.9879 11.0918
Au 20.475 31.0566 11.8658
Au 16.1499 20.8989 7.71435
Au 17.6011 22.9387 8.58156
Au 19.2424 25.2805 9.30655
Au 21.0643 27.6269 10.3486
Au 22.9279 29.7365 11.0436
Au 18.2565 19.287 6.78989
Au 19.917 21.4706 7.64431
Au 21.6747 23.6405 8.52681
Au 23.4224 25.9692 9.34798
Au 25.094 28.2376 10.0239
Au 20.7686 17.8814 6.1282
Au 22.363 19.8951 7.01112
Au 24.1139 22.3708 7.58548
Au 25.5721 24.5356 8.53984
Au 27.2626 26.5875 9.54583
Au 13.4113 24.8955 7.98385
Au 14.9078 27.3228 8.65011
Au 16.6352 29.4557 9.39951
Au 18.216 31.6552 10.4397
Au 15.55 23.4955 6.77386
Au 17.0818 25.8364 7.54645
Au 18.8439 28.0956 8.52857
Au 20.7241 30.255 9.55118
Au 17.7158 21.9137 5.98056
Au 19.6577 24.2085 6.82253
Au 21.3387 26.3969 7.54528
Au 23.0024 28.5604 8.46975
Au 20.1413 20.4131 5.23496
Au 21.9379 22.5035 6.01707
Au 23.647 24.833 6.75594
Au 25.1625 27.0761 7.57684
Au 15.0087 26.2154 6.1486
Au 16.7366 28.5256 6.93041
Au 18.3563 30.5677 7.74446
Au 17.5135 24.5119 5.12444
Au 19.1401 26.8566 6.10779
Au 20.7916 29.1181 6.86207
Au 19.7146 23.0486 4.46417
Au 21.5763 25.3064 5.04942
Au 23.115 27.4273 5.77151
Au 16.976 27.151 4.56403
Au 18.8933 29.5184 5.37071
Au 19.2091 25.7097 3.64138
Au 20.8116 27.9341 4.29305
Au 18.6988 28.3378 3.04808
Au 3.13192 16.832 22.7674
Au 4.53527 19.0056 23.9536
Au 6.28814 21.2145 24.5514
Au 7.80951 23.44 25.2277
Au 9.5166 25.44 25.8772
Au 11.4536 27.4286 26.6691
Au 13.195 29.3362 27.4515
Au 14.5304 31.4624 28.3719
Au 16.2329 33.2963 29.2488
Au 18.1859 34.9584 29.8197
Au 5.2449 15.3186 21.8759
Au 6.73294 17.4012 22.8887
Au 8.40245 19.7353 23.3811
Au 10.0263 21.6408 24.1788
Au 11.6886 23.7725 25.0067
Au 13.4707 26.0084 25.7402
Au 15.3136 28.0462 26.5836
Au 16.9506 30.1413 27.374
Au 18.6072 32.1511 28.2877
Au 20.4539 33.9262 29.3268
Au 7.34157 13.6533 20.9238
Au 8.79846 15.8243 21.6933
Au 10.5192 17.9876 22.4027
Au 12.2311 20.2448 23.3338
Au 14.1878 22.3832 24.0652
Au 15.7309 24.627 24.8503
Au 17.5738 26.6208 25.644
Au 19.1229 28.8731 26.3627
Au 20.9627 30.8921 27.2288
Au 22.8008 32.8247 27.9477
Au 9.36243 12.248 20.0577
Au 11.1472 14.248 21.166
Au 12.6947 16.5031 21.6519
Au 14.4575 18.6791 22.2933
Au 16.4532 20.7573 23.3289
Au 17.9214 22.8981 24.3258
Au 19.8973 25.0886 24.857
Au 21.5382 27.2568 25.5301
Au 23.1155 29.2235 26.3394
Au 24.7795 31.4468 27.1903
Au 11.5228 10.5504 19.2795
Au 13.0752 12.5745 19.9887
Au 14.9287 14.9156 20.7257
Au 16.7517 17.1184 21.4737
Au 18.4609 19.1416 22.215
Au 20.3489 21.3665 23.2131
Au 22.1264 23.5481 24.0154
Au 23.9408 25.729 24.8221
Au 25.6173 27.7711 25.4565
Au 26.947 30.1184 26.189
Au 13.9156 9.12727 18.3955
Au 15.4436 11.155 19.2743
Au 17.1151 13.3052 19.7375
Au 18.9354 15.4186 20.5599
Au 20.694 17.8001 21.5025
Au 22.6736 19.9853 22.2622
Au 24.4751 22.1766 22.9554
Au 26.2027 24.3823 23.7383
Au 28.0786 26.3839 24.7763
Au 29.3539 28.6294 25.5805
Au 15.8938 7.55117 17.6251
Au 17.6844 9.63884 18.3773
Au 19.3962 11.7161 18.9863
Au 21.2413 14.0564 19.5964
Au 23.128 16.2995 20.4388
Au 24.9137 18.2717 21.3807
Au 26.6292 20.4769 21.974
Au 28.3483 22.8348 22.8402
Au 30.4136 25.1079 23.7406
Au 31.8897 27.1328 24.4069
Au 17.7006 5.86129 16.8075
Au 19.7823 7.97979 17.4212
Au 21.6945 10.1441 17.887
Au 23.5252 12.4628 18.8546
Au 25.2673 14.8327 19.5461
Au 27.1622 16.9644 20.2134
Au 28.9203 19.032 20.9812
Au 30.6762 21.0415 21.915
Au 32.5404 23.5331 22.8808
Au 34.0775 25.8027 23.5926
Au 20.3751 4.68806 15.9643
Au 22.3613 6.73903 16.5857
Au 24.1193 8.94495 17.0348
Au 25.9269 11.016 17.8979
Au 27.6823 13.2365 18.5787
Au 29.5781 15.2883 19.3407
Au 31.3783 17.3769 20.1572
Au 33.1494 19.6274 20.9057
Au 34.8701 22.013 21.773
Au 36.1864 24.1757 22.6691
Au 22.6946 3.78387 15.1151
Au 24.9419 5.55037 15.6535
Au 26.5547 7.5053 16.3899
Au 28.3535 9.85555 17.0948
Au 29.9944 12.0018 17.717
Au 31.6902 13.9424 18.5269
Au 33.3766 16.0361 19.1452
Au 35.1484 18.0345 20.0787
Au 36.815 20.0203 20.7868
Au 37.8308 22.4795 21.4923
Au 5.11792 16.2878 24.659
Au 6.71424 18.4366 25.5306
Au 8.22032 20.6643 26.1742
Au 10.0874 22.7198 26.9211
Au 11.8359 24.9086 27.6404
Au 13.5348 26.9727 28.5724
Au 15.4036 29.1009 29.4732
Au 17.1585 30.8941 30.3467
Au 18.7284 32.7376 31.1289
Au 7.14644 14.6183 23.8237
Au 8.94921 16.9706 24.6148
Au 10.4996 19.0611 25.2667
Au 12.3379 21.2993 26.0474
Au 14.0267 23.3931 27.0285
Au 15.6806 25.4909 27.7594
Au 17.4662 27.5862 28.5415
Au 19.3154 29.6463 29.1752
Au 20.9955 31.5667 29.9914
Au 9.1837 13.2227 22.901
Au 10.8415 15.2677 23.6257
Au 12.7833 17.3523 24.1803
Au 14.4756 19.5704 25.0392
Au 16.2401 21.7406 26.1721
Au 17.9417 24.135 26.8332
Au 19.8643 26.1344 27.5039
Au 21.5074 28.1352 28.3913
Au 23.097 30.2354 28.9327
Au 11.4518 11.6048 22.1187
Au 13.1183 13.72 22.7948
Au 14.9418 15.9533 23.3523
Au 16.7153 18.0739 24.1498
Au 18.5217 20.1316 25.0071
Au 20.1668 22.4147 25.788
Au 22.124 24.6761 26.6244
Au 23.7695 26.8146 27.6308
Au 25.4356 28.7442 28.2356
Au 13.706 10.0523 21.063
Au 15.2858 12.3648 21.8044
Au 17.2384 14.3487 22.4584
Au 18.9536 16.5095 23.1513
Au 20.7037 18.7457 24.1284
Au 22.4779 20.8612 24.8249
Au 24.3682 23.047 25.7299
Au 26.2653 25.2599 26.585
Au 27.8628 27.3197 27.3
Au 15.9421 8.40813 20.3627
Au 17.6268 10.6285 20.9914
Au 19.4967 12.8572 21.6784
Au 21.2845 15.0955 22.1062
Au 23.1484 17.2556 23.2031
Au 24.7976 19.4556 23.9637
Au 26.627 21.567 24.8103
Au 28.2434 23.6457 25.5809
Au 30.1862 25.9194 26.3489
Au 17.9392 6.73162 19.2414
Au 19.9439 9.27585 20.0243
Au 21.5737 11.1751 20.6217
Au 23.557 13.5266 21.4445
Au 25.3035 15.8373 22.2343
Au 27.1302 17.8671 23.0634
Au 28.9543 19.9589 23.8148
Au 30.7258 22.1847 24.5066
Au 32.3108 24.4072 25.4055
Au 20.4436 5.57804 18.3264
Au 22.1241 7.77162 19.0359
Au 23.9446 9.88627 19.657
Au 25.7034 12.1101 20.5142
Au 27.6337 14.2377 21.1484
Au 29.3839 16.2765 21.8359
Au 31.1843 18.4812 22.8749
Au 32.9536 20.7066 23.6409
Au 34.6672 22.8324 24.6627
Au 22.8113 4.48213 17.6329
Au 24.7628 6.31963 18.3497
Au 26.6187 8.58907 18.7127
Au 28.053 10.7232 19.651
Au 30.0664 12.734 20.4922
Au 31.8974 14.6747 21.2086
Au 33.3746 17.1408 22.0813
Au 35.1738 19.1021 22.8835
Au 36.6654 21.2947 23.5025
Au 7.37161 15.9226 26.16
Au 8.66509 17.9817 27.3909
Au 10.3882 20.1904 27.8527
Au 12.2005 22.2718 28.7231
Au 13.9564 24.4244 29.5214
Au 15.853 26.4516 30.5779
Au 17.5385 28.4454 31.306
Au 19.2374 30.3835 31.9128
Au 9.32635 13.9077 25.6423
Au 10.9641 16.3514 26.2192
Au 12.6045 18.4723 26.8901
Au 14.3572 20.5703 27.8861
Au 16.2355 22.891 28.7323
Au 18.0071 24.9599 29.5995
Au 19.728 26.9852 30.3335
Au 21.4308 29.0446 31.0863
Au 11.3847 12.5897 24.689
Au 13.1333 14.737 25.5303
Au 15.0644 17.1056 26.1564
Au 16.6558 19.1228 26.7648
Au 18.4456 21.3059 27.8586
Au 20.161 23.4837 28.3148
Au 21.8028 25.5888 29.3622
Au 23.7728 27.731 30.148
Au 13.5102 11.1746 23.72
Au 15.4092 13.2837 24.4814
Au 17.355 15.388 25.105
Au 19.1136 17.575 26.0702
Au 20.7078 19.8532 26.774
Au 22.4033 22.0314 27.4706
Au 24.2145 24.0672 28.2907
Au 25.9763 26.0967 29.0582
Au 15.7453 9.65995 22.8624
Au 17.6063 11.8628 23.6851
Au 19.5663 13.889 24.2598
Au 21.2446 16.0252 24.9038
Au 22.9589 18.1628 26.0096
Au 24.7752 20.5289 26.63
Au 26.7557 22.6713 27.6892
Au 28.4873 24.8638 28.2312
Au 18.1756 8.14464 21.9193
Au 19.7585 10.1759 22.8161
Au 21.8784 12.3835 23.2291
Au 23.3559 14.5479 24.1014
Au 25.3604 16.6517 24.9001
Au 26.9367 19.0375 25.6592
Au 28.8985 21.0427 26.5762
Au 30.4384 23.1015 27.4085
Au 20.2867 6.5408 20.9156
Au 22.0505 8.64701 21.6755
Au 23.9705 10.7301 22.2125
Au 25.7147 12.9633 23.1097
Au 27.7125 15.0258 23.8888
Au 29.4011 17.32 24.7418
Au 31.0682 19.6551 25.5114
Au 32.6625 21.7589 26.2239
Au 22.8338 5.47676 20.0778
Au 24.5033 7.59136 20.7093
Au 26.2093 9.6801 21.4576
Au 28.0842 11.7546 22.0546
Au 29.9857 13.5448 23.0149
Au 31.4125 15.7982 23.7253
Au 33.3612 18.2521 24.8119
Au 34.8537 20.2802 25.5404
Au 9.17899 15.4219 28.0441
Au 11.0087 17.5275 28.7551
Au 12.5333 19.664 29.7505
Au 14.3709 21.7095 30.5977
Au 15.9423 23.8923 31.3229
Au 18.0171 25.7728 32.2956
Au 19.9592 27.7646 32.9742
Au 11.4122 13.781 27.5108
Au 13.2737 15.9267 28.0791
Au 14.9471 18.0221 28.6847
Au 16.4373 20.2883 29.7235
Au 18.4574 22.1456 30.4343
Au 20.2782 24.2921 31.4398
Au 21.9246 26.4997 32.145
Au 13.6021 12.2124 26.3875
Au 15.3997 14.3593 27.0684
Au 17.3104 16.6195 27.7994
Au 18.7758 18.7831 28.752
Au 20.6283 20.8647 29.3998
Au 22.4178 22.7718 30.142
Au 24.2446 25.0033 30.8657
Au 15.7405 10.6363 25.5333
Au 17.458 12.7566 26.3043
Au 19.723 14.8255 27.106
Au 21.1914 17.1177 27.8046
Au 22.8214 19.3033 28.5746
Au 24.6592 21.5198 29.2646
Au 26.54 23.581 30.1309
Au 18.0192 9.10259 24.4935
Au 20.0467 11.173 25.2674
Au 21.7355 13.3965 26.034
Au 23.3362 15.5819 26.6861
Au 25.1726 17.7993 27.5404
Au 26.9846 19.9424 28.3491
Au 28.6698 22.1467 29.4655
Au 20.2662 7.66579 23.639
Au 22.0693 9.75039 24.207
Au 24.1364 11.7713 24.9215
Au 25.8181 14.1175 25.6825
Au 27.5449 16.3112 26.5167
Au 29.2439 18.5518 27.4238
Au 30.9825 20.555 28.4727
Au 22.6469 6.33978 22.7677
Au 24.3571 8.244 23.4752
Au 26.4236 10.5497 24.0636
Au 28.1563 12.5531 24.8481
Au 29.8202 14.6118 25.7256
Au 31.4844 16.9423 26.3078
Au 32.9177 19.0479 27.2429
Au 11.3538 14.9558 29.847
Au 13.064 17.024 30.5733
Au 14.7057 19.2562 31.4586
Au 16.6298 21.1921 32.4701
Au 18.3412 23.1548 32.9771
Au 20.2615 24.924 33.8811
Au 13.4695 13.2187 29.0739
Au 15.5806 15.4522 29.6248
Au 17.0235 17.5474 30.6802
Au 18.8501 19.6329 31.2919
Au 20.8939 21.7168 31.984
Au 22.5128 23.8556 32.868
Au 15.7798 11.6958 28.0857
Au 17.5875 13.8214 28.9232
Au 19.4527 16.1512 29.661
Au 21.2139 18.0833 30.3131
Au 23.039 20.2356 31.1668
Au 24.5823 22.5796 31.8849
Au 18.1058 10.2334 27.0129
Au 19.9265 12.1276 27.8352
Au 21.7323 14.4961 28.8041
Au 23.5138 16.6519 29.3791
Au 25.0181 18.6497 30.2102
Au 26.8589 20.895 30.9466
Au 20.3439 8.73434 26.2368
Au 22.3387 10.5314 26.8076
Au 24.1157 12.9007 27.7209
Au 25.7217 14.9838 28.4688
Au 27.4028 17.3365 29.2111
Au 29.1812 19.4296 30.3762
Au 22.5782 7.24462 25.3678
Au 24.5291 9.25298 25.9934
Au 26.3661 11.4271 26.598
Au 28.0981 13.7942 27.5254
Au 29.6878 15.8782 28.2842
Au 31.139 17.8643 29.0385
Au 13.486 14.5679 31.5586
Au 15.1304 16.4241 32.4206
Au 16.9852 18.5194 33.1321
Au 18.781 20.5328 33.9917
Au 20.5797 22.4894 34.6974
Au 15.6661 12.7776 30.7923
Au 17.4967 14.8161 31.5939
Au 19.1124 17.1039 32.4183
Au 21.1504 19.0662 33.1036
Au 22.817 21.1301 33.77
Au 17.8621 11.0951 29.6275
Au 19.8228 13.1836 30.4513
Au 21.5107 15.4817 31.3941
Au 23.3568 17.4891 32.1864
Au 25.0358 19.8089 32.8293
Au 20.4247 9.5176 28.8918
Au 22.1315 11.84 29.4713
Au 23.8437 13.9252 30.2981
Au 25.6614 15.9795 31.1299
Au 27.3235 17.9998 31.9908
Au 22.7397 8.2953 27.851
Au 24.6721 10.1674 28.5112
Au 26.2464 12.4326 29.3323
Au 27.8555 14.6478 30.1786
Au 29.5942 16.7863 30.9793
Au 15.4843 13.8094 33.2279
Au 17.3674 16.0452 34.1863
Au 19.1217 17.9306 34.9938
Au 21.0683 20.0304 35.5839
Au 17.8675 11.9834 32.3585
Au 19.716 14.08 33.2782
Au 21.2579 16.3776 34.0237
Au 23.392 18.6633 34.9314
Au 20.2288 10.5523 31.5173
Au 22.0429 12.4763 32.1556
Au 23.8487 14.9089 32.9581
Au 25.5243 17.1498 33.813
Au 22.8693 9.32733 30.2827
Au 24.4713 11.2683 31.0697
Au 26.201 13.5211 31.9074
Au 27.7962 15.3719 32.8671
Au 17.6535 13.204 34.6192
Au 19.6373 15.2651 35.7575
Au 21.497 17.403 36.4432
Au 20.2335 11.5973 33.9641
Au 21.9359 13.6756 34.7401
Au 23.69 15.9838 35.5932
Au 22.3828 9.9401 32.9945
Au 24.4653 12.2072 33.5622
Au 25.8438 14.5588 34.5339
Au 19.8223 12.7424 36.3353
Au 21.8459 14.7757 37.23
Au 22.4035 11.1993 35.2796
Au 24.0604 13.3439 36.2767
Au 21.9988 12.2189 37.5422
