923
 Atoms. Timestep: 50000
Au 7.5324 29.835 25.7309
Au 7.17078 25.9618 24.0438
Au 9.12215 27.9985 24.8252
Au 10.97 30.2964 25.7968
Au 7.73032 22.1105 22.5021
Au 9.54328 24.3839 23.3001
Au 11.2769 26.6014 24.0297
Au 13.1474 28.6889 24.8401
Au 14.8009 30.8175 25.6235
Au 8.07164 18.5141 20.5434
Au 9.81751 20.4466 21.6126
Au 11.639 22.8053 22.3605
Au 13.5684 25.0161 23.0022
Au 15.3216 27.0689 23.7478
Au 16.907 29.2272 24.7864
Au 18.5378 31.5065 25.5007
Au 8.83622 14.7828 19.1513
Au 10.4274 16.8159 20.0672
Au 12.3189 19.0361 20.774
Au 13.8847 21.1319 21.4383
Au 15.729 23.5251 22.2281
Au 17.4772 25.5437 23.0053
Au 19.291 27.6503 23.6821
Au 20.9146 29.886 24.4958
Au 22.8884 31.9025 25.4275
Au 9.66098 11.0822 17.4232
Au 11.0796 13.3764 18.4269
Au 12.7649 15.8222 19.0533
Au 14.6875 17.6003 19.9139
Au 16.4019 19.6172 20.6461
Au 18.0518 21.8994 21.2905
Au 19.9799 24.1917 22.0269
Au 21.7841 26.2674 22.8646
Au 23.4009 28.4638 23.4511
Au 24.9629 30.4751 24.4773
Au 26.8699 32.5347 25.0492
Au 10.6664 7.76438 15.6423
Au 11.899 9.77786 16.3741
Au 13.3991 11.9248 17.3351
Au 15.104 14.1151 18.0387
Au 16.993 16.1069 19.058
Au 18.7228 18.4183 19.5089
Au 20.413 20.4517 20.3573
Au 22.1598 22.5425 21.1657
Au 23.8982 24.614 21.9125
Au 25.5182 26.7846 22.697
Au 27.3822 28.9151 23.1595
Au 29.153 30.8516 24.0486
Au 30.3929 33.0722 24.9679
Au 13.9528 8.31773 15.7373
Au 15.665 10.3121 16.3638
Au 17.6389 12.5758 17.295
Au 19.211 14.5606 18.1818
Au 20.9486 16.6438 18.8798
Au 22.7881 18.85 19.4927
Au 24.5755 21.3024 20.1354
Au 26.287 23.2137 20.7277
Au 27.9709 25.2955 21.5823
Au 29.6172 27.4211 22.4795
Au 31.436 29.243 23.3285
Au 17.9911 8.89073 15.1766
Au 19.8273 10.7235 16.1595
Au 21.5188 13.1556 17.0924
Au 23.233 15.2154 17.7442
Au 24.7838 17.4442 18.4334
Au 26.6312 19.517 19.2969
Au 28.5542 21.6135 19.8892
Au 30.3783 23.6552 20.9089
Au 31.9428 25.8618 21.8266
Au 22.2728 9.43285 15.4416
Au 23.772 11.5556 16.2051
Au 25.4188 13.5784 16.893
Au 27.0334 15.754 17.7251
Au 29.1109 18.0025 18.2461
Au 30.8951 20.2079 19.239
Au 32.6499 22.3454 19.9317
Au 26.0425 10.0372 15.3825
Au 27.7907 11.9343 16.2733
Au 29.4358 14.3183 16.7898
Au 31.4522 16.5992 17.7367
Au 33.1652 18.6619 18.4012
Au 30.0119 10.7225 15.0867
Au 31.7198 13.0287 15.8751
Au 33.5009 14.9403 16.9112
Au 33.8633 11.8215 15.1851
Au 6.9377 28.435 22.9887
Au 9.14059 30.7281 23.9578
Au 7.6006 24.7412 21.5465
Au 9.09796 27.0218 22.1461
Au 10.9691 29.3026 23.067
Au 12.7347 31.235 24.0844
Au 7.69822 21.0856 19.8962
Au 9.70567 23.3444 20.684
Au 11.3742 25.5555 21.2426
Au 13.0839 27.6448 21.9971
Au 14.8244 29.7657 22.8999
Au 16.5143 31.7165 23.5544
Au 8.37447 17.4001 17.953
Au 10.021 19.5068 18.9241
Au 11.887 21.6864 19.7497
Au 13.5478 23.7714 20.5415
Au 15.4248 25.9432 21.1484
Au 17.1246 28.1116 21.9478
Au 18.7017 30.3359 22.868
Au 20.329 32.4361 23.7068
Au 9.22466 13.7157 16.4707
Au 10.5071 15.9986 17.2856
Au 12.2593 18.2923 18.0078
Au 14.3097 20.2373 18.8892
Au 15.8151 22.5554 19.7123
Au 17.7139 24.6173 20.4133
Au 19.5059 26.8347 21.1102
Au 21.1769 28.9452 22.028
Au 22.8884 31.1867 22.7196
Au 24.4867 33.132 23.5298
Au 9.7054 10.2008 14.758
Au 11.327 12.3019 15.2378
Au 12.8667 14.3418 16.2628
Au 14.5256 16.5547 17.0969
Au 16.6038 18.7085 17.9359
Au 18.117 20.9651 18.6346
Au 19.9817 23.133 19.4336
Au 21.7216 25.2656 20.1934
Au 23.3877 27.2053 20.9806
Au 25.2028 29.3988 21.49
Au 26.7356 31.6517 22.469
Au 28.4513 33.5811 23.0566
Au 11.8019 8.87794 13.7637
Au 13.5301 10.9809 14.4482
Au 15.3254 13.0356 15.3857
Au 16.8919 15.0497 16.3215
Au 18.676 17.1003 16.9214
Au 20.3802 19.4106 17.806
Au 21.995 21.7447 18.4301
Au 23.9452 23.7392 19.1958
Au 25.7064 25.8183 19.9564
Au 27.5432 27.9117 20.6926
Au 29.388 30.101 21.4648
Au 31.0108 32.037 22.6182
Au 15.9027 9.43221 13.6255
Au 17.5033 11.3613 14.579
Au 19.3025 13.4546 15.4519
Au 20.9052 15.7693 16.0393
Au 22.4703 17.9729 16.8645
Au 24.3635 20.2312 17.6874
Au 26.4233 22.2309 18.0438
Au 28.1086 24.2305 19.0474
Au 29.9584 26.3359 19.9672
Au 31.5453 28.2641 20.5918
Au 19.8474 9.73262 13.558
Au 21.586 11.9618 14.3589
Au 23.2785 14.3299 15.0017
Au 24.9862 16.3904 15.7845
Au 26.8754 18.4863 16.6255
Au 28.648 20.6343 17.3327
Au 30.3845 22.9542 17.9677
Au 32.0603 25.0027 19.1881
Au 23.8424 10.6488 13.5498
Au 25.4708 12.728 14.2565
Au 27.1912 14.8612 15.1699
Au 29.1111 16.9188 15.7832
Au 31.0718 19.139 16.5309
Au 32.5353 21.3638 17.2587
Au 27.7178 11.295 13.3973
Au 29.3527 13.1719 14.1522
Au 31.3768 15.5438 15.1539
Au 33.1098 17.6368 15.5006
Au 31.7101 12.0954 13.3793
Au 33.2887 14.3609 13.8538
Au 7.20561 27.4218 20.5183
Au 8.8389 29.6414 21.2279
Au 10.8745 31.9426 22.044
Au 7.52957 23.7221 18.7637
Au 9.17521 25.8929 19.607
Au 10.9933 28.2647 20.2345
Au 12.7141 30.3624 21.1123
Au 14.5078 32.3697 21.9339
Au 7.83873 19.9752 17.2937
Au 9.43233 22.1358 18.0229
Au 11.5279 24.2989 18.573
Au 13.2396 26.5018 19.2871
Au 15.0841 28.5186 20.0472
Au 16.6339 30.7598 20.8964
Au 18.4616 32.8416 21.8542
Au 8.505 16.4935 15.3839
Au 9.99497 18.6882 16.2244
Au 12.0718 20.9754 17.1501
Au 13.8531 22.9114 17.7303
Au 15.5277 25.0493 18.4635
Au 17.2751 27.1975 19.2112
Au 18.8686 29.4311 20.2539
Au 20.57 31.3797 20.9749
Au 22.2528 33.698 21.7389
Au 9.31373 12.8876 13.6001
Au 10.8271 15.0158 14.5655
Au 12.4288 17.096 15.384
Au 14.395 19.1667 16.0966
Au 15.9614 21.5267 16.7839
Au 17.6845 23.6249 17.7917
Au 19.5361 25.6254 18.3006
Au 21.1872 27.7453 19.2891
Au 22.8024 29.947 19.9837
Au 24.5267 32.1448 20.6271
Au 26.3532 33.9796 21.4737
Au 11.2733 11.252 12.6146
Au 13.1379 13.4878 13.494
Au 14.5117 15.6792 14.5144
Au 16.5109 17.5653 15.3564
Au 18.1921 19.893 15.9881
Au 19.9774 22.1071 16.6123
Au 21.7948 24.3209 17.4849
Au 23.5607 26.2396 18.1978
Au 25.1818 28.4692 19.0311
Au 27.0942 30.6103 19.7735
Au 28.8177 32.5283 20.6298
Au 13.8379 9.89456 11.8417
Au 15.3122 11.9827 12.5501
Au 17.0252 14.152 13.4761
Au 18.6971 15.9703 14.2254
Au 20.5197 18.4038 14.9975
Au 22.254 20.5443 15.8307
Au 23.9812 22.8243 16.4361
Au 25.9066 24.7784 17.4989
Au 27.535 26.8246 18.0887
Au 29.4323 28.9287 18.9358
Au 31.0828 30.9508 19.6015
Au 17.744 10.4345 11.8177
Au 19.3511 12.4456 12.6901
Au 20.8503 14.5785 13.2457
Au 22.6588 16.8366 14.2105
Au 24.5987 19.1291 15.1304
Au 26.3091 21.1191 15.4891
Au 28.0234 23.2559 16.3732
Au 29.9559 25.4581 17.0783
Au 31.6433 27.5084 17.9408
Au 21.6038 11.2263 11.5771
Au 23.3854 13.1748 12.3706
Au 25.0767 15.3598 13.2391
Au 26.8307 17.4502 13.9288
Au 28.6118 19.7101 14.6424
Au 30.4735 21.6835 15.5631
Au 32.0906 23.9523 16.1056
Au 25.4479 11.6907 11.6337
Au 27.3514 13.898 12.3645
Au 29.0103 15.8764 13.1463
Au 30.8241 18.2067 13.8703
Au 32.7394 20.1815 14.5561
Au 29.4431 12.3657 11.4259
Au 31.021 14.3518 12.2567
Au 32.6734 16.6097 12.7534
Au 7.26305 26.4661 18.0027
Au 8.917 28.6635 18.5599
Au 10.4551 31.004 19.3071
Au 12.4601 32.9456 20.1985
Au 7.57842 22.6671 15.9507
Au 9.29563 24.7987 17.0162
Au 11.0935 27.1969 17.6912
Au 12.9318 29.2272 18.5568
Au 14.5941 31.5435 19.1368
Au 16.36 33.566 19.9899
Au 8.04329 19.3839 14.6742
Au 9.5831 21.3054 15.3485
Au 11.3432 23.3322 15.9067
Au 13.1689 25.4315 16.633
Au 15.0981 27.6864 17.4985
Au 16.6495 29.9629 18.1092
Au 18.4724 32.018 19.0516
Au 20.242 34.2265 19.8363
Au 8.66504 15.5371 12.8954
Au 10.1772 17.5747 13.5728
Au 12.1466 19.5962 14.6629
Au 13.7586 21.9024 15.1169
Au 15.6943 24.3635 15.6854
Au 17.326 26.2175 16.4901
Au 18.8457 28.3882 17.342
Au 20.7759 30.4225 18.1697
Au 22.2475 32.6725 18.9253
Au 24.052 34.4744 19.7938
Au 10.6535 14.0249 11.7292
Au 12.5803 16.0448 12.5179
Au 14.223 18.2519 13.4309
Au 15.9667 20.4295 14.262
Au 17.658 22.6033 14.8987
Au 19.5541 24.643 15.6323
Au 21.0282 26.9839 16.5863
Au 22.9751 29.0405 17.1739
Au 24.6598 31.109 17.9493
Au 26.6025 33.0649 18.8512
Au 13.0882 12.6338 10.7682
Au 14.7833 14.6768 11.625
Au 16.5356 16.847 12.5153
Au 18.3192 18.9021 13.3677
Au 19.9597 21.1818 14.0038
Au 21.858 23.2271 14.6984
Au 23.5609 25.3387 15.4617
Au 25.3631 27.4548 16.3125
Au 26.9847 29.5651 17.1439
Au 28.8491 31.509 17.9218
Au 15.6259 10.998 9.94111
Au 17.1516 13.0424 10.882
Au 18.746 15.2853 11.5037
Au 20.5922 17.4828 12.4389
Au 22.3593 19.6242 13.1079
Au 24.2217 21.8375 13.9378
Au 25.8759 23.9735 14.6073
Au 27.6914 26.1416 15.4107
Au 29.3267 28.1729 16.3042
Au 30.9997 29.9267 17.0755
Au 19.1585 11.6988 9.72147
Au 20.8649 13.5514 10.4868
Au 22.8612 15.8311 11.6544
Au 24.6614 18.0565 12.2553
Au 26.2855 20.2763 12.932
Au 28.2718 22.3161 13.4908
Au 29.8029 24.4804 14.3737
Au 31.6828 26.5739 15.1177
Au 23.1606 12.2406 9.5826
Au 24.9323 14.3944 10.4113
Au 26.8909 16.5333 11.3043
Au 28.6437 18.5932 11.9602
Au 30.4191 20.7428 12.7067
Au 32.0815 22.9722 13.5507
Au 27.2218 13.0509 9.85367
Au 29.155 15.0566 10.2851
Au 30.6543 17.1614 11.0971
Au 32.4171 19.2291 11.9595
Au 7.38921 25.4622 15.3166
Au 8.81182 27.6749 16.045
Au 10.8002 29.8236 16.8069
Au 12.3046 32.049 17.4796
Au 14.0993 33.9863 18.2603
Au 7.67164 21.914 13.1536
Au 9.37144 23.8871 14.2328
Au 10.9033 26.1689 14.916
Au 12.8569 28.3564 15.6479
Au 14.3699 30.4479 16.2897
Au 16.1931 32.6674 17.2203
Au 18.186 34.5865 18.0026
Au 8.32615 18.2315 11.7783
Au 9.85968 20.3595 12.6625
Au 11.6791 22.5034 13.4109
Au 13.3658 24.4798 14.0039
Au 14.9839 26.6738 14.7152
Au 16.7566 28.8549 15.4614
Au 18.5008 31.0195 16.3254
Au 20.1927 33.0517 17.0941
Au 21.9922 35.0178 17.9291
Au 10.3446 16.6441 10.913
Au 12.0146 18.9017 11.7576
Au 14.0011 21.0903 12.2007
Au 15.5827 23.1102 13.1737
Au 17.3727 25.4024 13.8758
Au 19.1573 27.4793 14.575
Au 20.7617 29.5312 15.4577
Au 22.5222 31.5443 16.1009
Au 24.3 33.7263 17.1135
Au 12.6236 15.2333 9.94265
Au 14.449 17.3858 10.6513
Au 16.1603 19.5625 11.5266
Au 17.8418 21.6415 12.2826
Au 19.5675 23.8094 12.9187
Au 21.3397 25.9288 13.9335
Au 23.0262 27.9456 14.5915
Au 24.7964 30.1616 15.3597
Au 26.6419 32.2177 16.2546
Au 15.1169 13.4995 9.10233
Au 16.6541 15.8497 9.84795
Au 18.322 17.9734 10.655
Au 20.0681 20.2178 11.3982
Au 21.8614 22.3522 11.9711
Au 23.705 24.3715 12.8311
Au 25.3965 26.4643 13.5497
Au 27.07 28.6274 14.2779
Au 28.7339 30.8863 15.162
Au 17.1893 12.2637 8.04845
Au 18.7457 14.3885 8.76125
Au 20.675 16.3968 9.86503
Au 22.5066 18.4696 10.5249
Au 24.1464 20.6229 11.2789
Au 25.78 22.955 11.9776
Au 27.5057 24.9813 12.7342
Au 29.331 27.1066 13.5152
Au 30.7842 29.1201 14.3583
Au 21.1167 12.7617 7.87176
Au 22.7957 14.9544 8.97258
Au 24.5456 17.0371 9.56063
Au 26.418 19.0564 10.1478
Au 28.2107 21.2422 10.894
Au 29.8888 23.3717 11.7606
Au 31.7101 25.6372 12.6278
Au 25.2063 13.6305 7.84908
Au 26.8327 15.5828 8.68611
Au 28.6474 17.7766 9.39795
Au 30.5504 19.787 10.1473
Au 32.1406 21.8407 10.9592
Au 7.46209 24.5264 12.5652
Au 8.81655 26.7209 13.2951
Au 10.4492 28.8451 14.1541
Au 12.2041 30.9662 14.7797
Au 14.1626 33.2833 15.5074
Au 15.9583 34.915 16.0685
Au 7.8277 20.878 10.7507
Au 9.71875 22.9692 11.4946
Au 11.2648 25.1937 12.2312
Au 12.7193 27.2898 13.1129
Au 14.4467 29.4014 13.8727
Au 16.3067 31.6431 14.511
Au 18.0719 33.6124 15.1989
Au 19.6815 35.5729 15.9906
Au 10.0755 19.1814 9.87703
Au 11.6023 21.5019 10.5107
Au 13.3374 23.7423 11.2048
Au 15.0258 25.8829 11.8952
Au 16.8762 27.9885 12.7325
Au 18.5284 30.1159 13.6626
Au 20.3234 31.9814 14.2448
Au 22.1009 34.187 15.2854
Au 12.4264 17.6285 8.88365
Au 13.8745 19.8981 9.80682
Au 15.6796 22.1906 10.1975
Au 17.265 24.3593 11.1233
Au 19.1903 26.4003 11.9463
Au 20.8663 28.7546 12.5872
Au 22.6799 30.6104 13.5079
Au 24.4802 32.7436 14.3038
Au 14.5593 16.1174 8.15502
Au 16.2589 18.6846 8.79584
Au 17.9444 20.7094 9.50017
Au 19.6473 22.9588 10.243
Au 21.3593 25.1401 11.1136
Au 23.2993 27.1555 11.8249
Au 25.0093 29.1747 12.6405
Au 26.6293 31.2562 13.4279
Au 16.62 14.7638 7.09769
Au 18.4695 16.985 7.93942
Au 20.0152 19.0789 8.79687
Au 21.9011 21.2651 9.412
Au 23.7312 23.2086 10.1979
Au 25.3796 25.547 10.9007
Au 27.126 27.5483 11.5753
Au 28.8369 29.8295 12.5082
Au 18.9637 13.2518 6.20912
Au 20.8264 15.4268 7.11122
Au 22.3007 17.5571 7.87555
Au 24.128 19.5987 8.57809
Au 25.8745 21.694 9.25315
Au 27.5455 23.8689 10.1405
Au 29.3667 25.8814 10.8033
Au 31.0049 27.8908 11.2194
Au 23.0684 14.1061 6.2721
Au 24.6472 16.0839 6.96134
Au 26.366 18.2781 7.53922
Au 28.347 20.2878 8.32236
Au 30.2403 22.4612 9.12557
Au 31.5968 24.6405 10.1125
Au 7.61272 23.3902 10.1613
Au 9.10574 25.6091 10.8665
Au 10.3746 27.7577 11.4607
Au 12.2344 29.9413 12.2126
Au 14.0749 31.8581 12.942
Au 15.7166 34.0908 13.5055
Au 17.7711 35.8986 14.0693
Au 9.60685 21.8998 8.74376
Au 11.4287 23.9951 9.43744
Au 12.8884 26.5114 10.4409
Au 14.4796 28.6216 11.3508
Au 16.3691 30.4217 12.0481
Au 18.1594 32.7729 12.4177
Au 19.9854 34.6312 13.4217
Au 11.6608 20.2221 7.99724
Au 13.3896 22.3026 8.61834
Au 15.3258 24.7064 9.34625
Au 16.7186 26.8997 10.1375
Au 18.6916 28.9465 10.8515
Au 20.4172 31.2577 11.6861
Au 22.2369 33.1904 12.7975
Au 14.0603 18.9202 7.36351
Au 15.7204 21.2435 7.72344
Au 17.5923 23.319 8.3569
Au 19.0063 25.4387 9.41695
Au 21.0963 27.4961 10.1339
Au 22.7983 29.7445 10.8984
Au 24.3775 31.8113 11.7723
Au 16.3359 17.5268 6.37863
Au 18.1096 19.5145 6.86456
Au 19.6317 21.7048 7.79873
Au 21.4596 23.9718 8.69291
Au 23.3804 26.0141 9.22042
Au 24.9245 28.2572 9.92138
Au 26.8647 30.1931 10.7525
Au 18.38 15.8751 5.48635
Au 20.203 17.9408 6.12412
Au 21.7443 20.1894 6.81091
Au 23.6913 22.1859 7.603
Au 25.3864 24.3528 8.17476
Au 27.2234 26.4861 8.98911
Au 28.96 28.5757 9.94592
Au 20.7755 14.6188 4.61535
Au 22.4239 16.6763 5.09267
Au 24.2324 18.5986 5.95704
Au 26.0382 20.7051 6.7199
Au 27.8486 22.8585 7.74149
Au 29.5515 24.8837 8.24176
Au 31.2027 26.9132 8.90669
Au 7.54677 27.0662 26.5952
Au 9.25972 29.0324 27.5907
Au 7.75098 23.402 25.3073
Au 9.51806 25.3892 25.9472
Au 11.2884 27.4599 26.6273
Au 13.152 29.4666 27.3469
Au 8.18424 19.6767 23.6809
Au 9.83161 21.7866 24.2254
Au 11.87 23.9486 24.9747
Au 13.6769 26.1536 25.9237
Au 15.4262 28.0361 26.6135
Au 16.8425 30.3691 27.6288
Au 8.67809 15.5668 21.922
Au 10 17.8005 22.633
Au 12.1602 20.1783 23.2392
Au 13.9873 22.404 24.0444
Au 15.9006 24.4171 24.983
Au 17.6884 26.6549 25.7978
Au 19.2208 28.9021 26.5413
Au 20.8856 30.8405 27.0653
Au 9.31929 12.02 20.0878
Au 10.79 14.1702 21.0257
Au 12.7111 16.413 21.7096
Au 14.5591 18.5473 22.496
Au 16.2374 20.7714 23.3061
Au 18.1547 22.8324 23.9964
Au 19.8249 25.2495 24.9058
Au 21.4818 27.3748 25.5262
Au 23.2119 29.3331 26.3811
Au 25.1076 31.385 27.133
Au 10.3205 8.4621 18.3697
Au 11.5845 10.6063 19.1623
Au 13.2605 12.814 19.7702
Au 14.9821 14.7873 20.7395
Au 16.9605 17.0702 21.5895
Au 18.7682 19.4006 22.3736
Au 20.3312 21.4618 23.1192
Au 22.1154 23.6478 23.8169
Au 23.8833 25.7084 24.6324
Au 25.4806 27.8765 25.3297
Au 27.2647 30.1649 25.9723
Au 29.0931 31.9361 26.8836
Au 12.5906 7.11337 17.5979
Au 13.9263 9.34426 18.409
Au 15.7147 11.3855 18.9995
Au 17.3649 13.4324 19.9209
Au 19.2291 15.7305 20.6205
Au 20.9637 17.7807 21.4869
Au 22.6407 19.8816 22.1468
Au 24.3253 21.9847 22.8376
Au 26.1245 24.2723 23.5123
Au 27.8266 26.2497 24.2715
Au 29.4145 28.4582 25.1767
Au 31.1948 30.6378 25.7332
Au 16.3251 7.70133 17.5691
Au 17.9972 9.65425 17.871
Au 19.6827 11.8973 18.8819
Au 21.5463 13.9834 19.6807
Au 23.0801 16.2217 20.5286
Au 25.0014 18.2693 21.1652
Au 26.7418 20.4911 21.8693
Au 28.4745 22.5665 22.7139
Au 30.1376 24.9035 23.5284
Au 31.9866 26.8987 24.4036
Au 20.2739 8.12426 17.1902
Au 21.9621 10.183 17.8936
Au 23.7834 12.437 18.7194
Au 25.349 14.773 19.5828
Au 27.4149 16.8859 20.3169
Au 28.9791 19.0101 21.0673
Au 30.7325 21.1532 21.7938
Au 32.5941 23.0582 22.6963
Au 24.4468 8.91679 17.391
Au 26.0052 10.8156 17.9534
Au 27.7123 13.2438 18.6417
Au 29.5227 15.3653 19.4539
Au 31.3377 17.5226 20.3359
Au 33.0489 19.5822 21.0246
Au 28.4776 9.43422 17.1918
Au 30.1064 11.7862 17.7605
Au 31.6948 13.9823 18.7163
Au 33.3878 16.0079 19.5835
Au 32.2269 10.515 17.007
Au 33.9859 12.4734 17.7487
Au 7.99631 24.1446 27.8307
Au 9.49409 26.3965 28.5309
Au 11.5209 28.5023 29.1882
Au 8.02172 20.6037 26.3055
Au 10.2341 22.7224 26.7204
Au 11.6596 24.8165 27.7229
Au 13.4508 26.8244 28.4218
Au 14.9339 29.0041 29.3502
Au 8.67346 16.5767 24.6053
Au 10.1768 19.0706 25.3099
Au 12.3334 21.3081 25.907
Au 13.8526 23.5661 26.8835
Au 15.7969 25.3444 27.62
Au 17.3615 27.7496 28.4896
Au 19.1859 29.6828 29.1457
Au 9.31387 12.8422 22.7668
Au 10.8842 15.191 23.6686
Au 12.6205 17.5823 24.4154
Au 14.3757 19.8028 25.0742
Au 16.2028 21.803 25.9204
Au 18.2292 24.0055 26.8287
Au 19.7015 26.2979 27.68
Au 21.4703 28.2803 28.361
Au 23.1622 30.2814 29.0623
Au 10.0804 9.45312 20.926
Au 11.6171 11.4467 21.7743
Au 13.2412 13.5622 22.5032
Au 14.7175 15.8922 23.4528
Au 16.6309 18.1742 24.2958
Au 18.6473 20.1737 24.9616
Au 20.3031 22.4363 25.7764
Au 21.9596 24.579 26.4307
Au 23.6647 26.6553 27.2867
Au 25.294 28.6534 27.9819
Au 27.1877 30.439 28.7552
Au 12.1564 7.91485 20.2371
Au 13.9639 9.87643 21.1412
Au 15.5366 12.0486 21.7354
Au 17.141 14.4214 22.4754
Au 19.2061 16.5723 23.414
Au 20.9577 18.687 24.0487
Au 22.4849 21.0732 24.7128
Au 24.3905 23.0407 25.5971
Au 26.1174 25.1778 26.4174
Au 27.734 27.3463 27.2025
Au 29.4034 29.4565 27.7291
Au 14.5223 6.79279 19.5863
Au 16.3363 8.81018 20.0196
Au 18.0037 10.8122 20.7106
Au 19.5614 12.9643 21.5355
Au 21.3389 15.0134 22.4625
Au 23.1713 17.2939 23.1939
Au 24.8114 19.3557 23.7124
Au 26.3614 21.501 24.418
Au 28.1757 23.6703 25.3384
Au 29.9221 25.7245 26.0849
Au 31.5914 28.2059 26.5383
Au 18.4901 7.0955 19.2562
Au 20.0649 9.24864 19.9422
Au 22.0955 11.4116 20.6243
Au 23.6096 13.5008 21.5163
Au 25.2836 15.7205 22.2663
Au 26.9756 17.9034 22.9421
Au 28.9338 19.8879 23.8658
Au 30.7571 22.0029 24.422
Au 32.3739 24.2074 25.1812
Au 22.3158 7.77452 19.0573
Au 24.1576 9.83279 19.7766
Au 25.8436 11.9313 20.5474
Au 27.7199 14.1723 21.3234
Au 29.2684 16.4441 22.2623
Au 31.0742 18.5069 22.903
Au 32.9378 20.5679 23.6957
Au 26.5726 8.12749 19.1837
Au 28.2658 10.5642 19.6522
Au 29.9548 12.7306 20.4313
Au 31.601 14.7749 21.311
Au 33.3166 17.1217 22.1946
Au 30.6365 9.25438 18.9932
Au 32.1782 11.2911 19.6963
Au 33.6256 13.307 20.6779
Au 8.38766 21.6854 28.7913
Au 9.9357 23.5874 29.6163
Au 11.7564 25.678 30.3614
Au 13.3763 27.7014 31.2015
Au 8.74498 17.7743 27.2051
Au 10.2099 20.1102 27.9128
Au 12.1497 22.0684 28.787
Au 14.0302 24.344 29.6007
Au 15.5879 26.5071 30.4016
Au 17.5855 28.3987 31.0668
Au 9.11319 13.9602 25.3554
Au 10.9875 16.3024 26.3173
Au 12.5657 18.6292 26.8716
Au 14.2663 20.8224 27.8312
Au 16.0831 22.871 28.6414
Au 17.849 24.8833 29.4853
Au 19.8964 27.1236 30.4046
Au 21.6429 28.9162 31.2133
Au 9.90284 10.3697 23.6651
Au 11.4782 12.5239 24.3858
Au 13.1981 14.8582 25.3134
Au 14.9993 17.0233 26.1202
Au 16.5711 19.2486 27.008
Au 18.3015 21.3236 27.7319
Au 20.2765 23.4287 28.405
Au 21.951 25.6245 29.2956
Au 23.8439 27.6677 30.1674
Au 25.2249 29.7473 30.4926
Au 11.9942 9.0066 22.9164
Au 13.7987 11.0375 23.7064
Au 15.5411 13.2272 24.5203
Au 17.1933 15.5926 25.1996
Au 18.9128 17.7341 26.0396
Au 20.6236 19.7878 26.8019
Au 22.496 21.8563 27.4495
Au 24.2104 24.0462 28.3212
Au 25.8999 26.0723 29.1855
Au 27.5961 28.1 29.8261
Au 14.3648 7.18952 22.2027
Au 16.1202 9.3501 22.7947
Au 17.6065 11.8559 23.4634
Au 19.3396 14.0144 24.1993
Au 21.3686 16.161 25.2303
Au 22.919 18.415 26.0166
Au 24.7617 20.3948 26.5771
Au 26.5222 22.5644 27.4278
Au 28.2232 24.7745 28.1851
Au 30.0654 26.9095 28.8015
Au 16.6621 6.36727 21.116
Au 18.4942 8.19214 21.9036
Au 20.06 10.4337 22.7111
Au 21.8862 12.497 23.4124
Au 23.6587 14.7262 24.1408
Au 25.3434 16.7771 25.0313
Au 26.7996 18.9217 25.5178
Au 28.5642 20.9289 26.3699
Au 30.2636 23.0802 27.0118
Au 31.9209 25.1293 27.9354
Au 20.6832 6.70032 20.6895
Au 22.4054 8.70859 21.6777
Au 24.241 10.7537 22.4187
Au 25.9657 12.9656 23.1979
Au 27.4459 15.2652 24.0604
Au 29.2572 17.3032 24.8436
Au 31.2176 19.4557 25.6238
Au 32.6883 21.6761 26.4123
Au 24.6256 7.2667 20.9198
Au 26.3811 9.33604 21.492
Au 28.0266 11.4455 22.4029
Au 29.5733 13.7161 23.1972
Au 31.5248 15.9698 23.8464
Au 33.358 17.9638 24.7637
Au 28.863 8.17714 20.6272
Au 30.2883 10.0888 21.7011
Au 31.7098 12.205 22.5586
Au 33.6825 14.431 23.0808
Au 8.67648 18.8493 29.7559
Au 10.2176 20.811 30.7423
Au 12.1747 22.9593 31.3741
Au 13.655 24.9825 32.3921
Au 15.5109 26.815 32.9878
Au 9.28922 14.8243 27.9823
Au 10.8922 17.2308 28.7939
Au 12.5262 19.5616 29.7491
Au 14.4629 21.7128 30.4685
Au 15.9934 23.9743 31.5028
Au 17.9395 25.9059 32.2257
Au 19.6139 27.7886 33.1089
Au 9.79419 11.5101 26.2505
Au 11.4802 13.4386 27.0874
Au 13.2408 15.9701 27.9208
Au 14.6011 18.1456 28.8426
Au 16.5074 20.1812 29.6467
Au 18.2281 22.1724 30.3482
Au 20.0775 24.3414 31.256
Au 22.0073 26.5146 32.059
Au 23.9765 28.1747 32.7876
Au 11.8891 9.8877 25.556
Au 13.9003 12.0761 26.3698
Au 15.4768 14.3592 26.9193
Au 17.1505 16.5545 27.9103
Au 18.9083 18.8412 28.855
Au 20.6457 20.8241 29.4899
Au 22.5028 22.8942 30.1685
Au 24.2731 25.0344 31.0772
Au 26.0313 26.9783 31.851
Au 14.3356 8.53383 24.9662
Au 16.1792 10.5588 25.3489
Au 17.7595 12.9495 26.3089
Au 19.484 15.0794 26.9917
Au 21.2187 17.2028 27.9246
Au 22.8766 19.3147 28.601
Au 24.7948 21.3543 29.397
Au 26.5784 23.4301 30.0445
Au 28.119 25.6311 30.8598
Au 16.508 6.93316 23.7553
Au 18.2139 9.15207 24.6758
Au 19.7964 11.429 25.3434
Au 21.8117 13.4226 26.0121
Au 23.5082 15.4828 26.9396
Au 25.0273 17.7535 27.825
Au 26.9377 19.8247 28.4333
Au 28.7038 21.9646 29.0922
Au 30.2302 24.0702 29.8981
Au 18.6611 5.78283 22.8868
Au 20.5853 7.52549 23.4453
Au 22.0609 9.91013 24.4379
Au 24.0935 11.826 25.0846
Au 25.7225 14.0404 26.0495
Au 27.3552 16.0409 26.842
Au 28.8693 18.2544 27.4414
Au 30.6983 20.3406 28.1394
Au 32.2295 22.488 28.92
Au 22.8561 5.99669 22.7324
Au 24.4202 8.38766 23.5259
Au 26.4782 10.2933 24.4019
Au 27.919 12.6167 25.1491
Au 29.646 14.6199 25.8962
Au 31.3664 16.7207 26.5342
Au 33.1978 19.0499 27.3139
Au 26.8524 7.18523 22.5983
Au 28.6148 8.86559 23.5309
Au 30.0655 11.015 24.3413
Au 31.835 13.2642 25.0766
Au 33.6238 15.4211 25.6392
Au 9.0366 16.1165 30.3342
Au 10.6315 18.1522 31.4824
Au 12.391 20.4743 32.3939
Au 14.1922 22.5981 33.3734
Au 16.047 24.4974 34.2281
Au 17.7628 26.7291 34.8335
Au 9.61827 12.4228 28.9969
Au 11.4125 14.7116 29.554
Au 13.0417 16.9077 30.735
Au 14.6575 19.0917 31.4467
Au 16.4024 21.1973 32.3202
Au 18.2283 23.1353 33.0453
Au 20.3058 25.1152 33.7679
Au 22.0691 27.2982 34.6019
Au 11.9077 11.0355 28.095
Au 13.5925 13.2023 29.0814
Au 15.2469 15.5629 29.7412
Au 17.0587 17.5929 30.7156
Au 18.6107 19.6075 31.4423
Au 20.4768 21.8286 32.1816
Au 22.5276 23.7536 32.8998
Au 24.3199 25.629 33.7164
Au 14.1301 9.43877 27.4685
Au 15.9788 11.5948 28.0784
Au 17.484 13.9456 28.8257
Au 19.4909 15.9832 29.763
Au 21.0723 18.1307 30.6397
Au 22.7572 20.1345 31.3474
Au 24.7246 22.1074 31.9556
Au 26.462 24.2373 32.6476
Au 16.3467 7.9898 26.5071
Au 18.3036 10.1958 27.3835
Au 19.8626 12.3666 28.117
Au 21.6454 14.5331 28.7392
Au 23.2676 16.5464 29.8137
Au 25.2112 18.6506 30.5028
Au 27.0339 20.8725 30.9486
Au 28.6472 22.977 31.9521
Au 18.579 6.6466 25.4609
Au 20.3779 8.74629 26.3997
Au 22.1489 10.8779 26.9867
Au 23.8926 12.8605 27.7319
Au 25.5061 14.8874 28.8141
Au 27.2106 17.1384 29.3863
Au 29.0512 19.0163 30.136
Au 30.765 21.274 30.7713
Au 20.7146 5.28592 24.8426
Au 22.7079 7.25169 25.53
Au 24.6323 9.27177 26.1073
Au 26.251 11.3494 26.8851
Au 27.7293 13.3916 28.0554
Au 29.5288 15.6211 28.6498
Au 31.1426 17.8411 29.1964
Au 33.0185 19.9546 29.8735
Au 25.089 6.13632 24.516
Au 26.8113 7.6279 25.4709
Au 28.4251 9.66617 26.5609
Au 29.9092 12.0342 27.1173
Au 31.8154 14.0814 27.6091
Au 33.557 16.5454 28.2894
Au 9.69895 13.814 31.3272
Au 11.0231 15.6801 32.328
Au 12.7557 17.7069 33.1453
Au 14.3855 19.8662 33.9839
Au 16.1552 21.8495 35.086
Au 18.2975 24.0452 35.5341
Au 20.1481 26.171 36.1134
Au 11.7239 11.9638 30.6487
Au 13.1759 14.128 31.7804
Au 15.1349 16.4555 32.333
Au 16.9019 18.535 33.3907
Au 18.4362 20.7134 34.0849
Au 20.6899 22.6952 34.8679
Au 22.3483 24.907 35.5428
Au 14.0829 10.8213 29.8751
Au 15.6484 13.0933 30.7132
Au 17.4765 15.0379 31.5833
Au 19.2179 17.003 32.4396
Au 20.6453 19.3692 33.3301
Au 22.6946 21.2168 33.8449
Au 24.5916 23.1143 34.5483
Au 16.5398 9.0789 28.9493
Au 17.9202 11.3808 29.9342
Au 19.7468 13.5137 30.5916
Au 21.4559 15.4075 31.474
Au 23.3213 17.4969 32.4202
Au 24.9786 19.5332 32.971
Au 26.7997 21.6163 33.627
Au 18.966 7.79458 28.2726
Au 20.4131 9.75364 29.1126
Au 21.8618 11.7793 29.7147
Au 23.5896 13.7531 30.4541
Au 25.3377 15.8981 31.3627
Au 27.4081 18.1135 32.0321
Au 28.9407 20.0361 32.7469
Au 21.044 6.24402 27.3568
Au 22.6147 8.21127 27.9888
Au 24.1845 10.2511 28.7049
Au 25.7785 12.2815 29.6369
Au 27.6468 14.5723 30.5984
Au 29.5294 16.6822 31.2642
Au 31.1778 18.7639 31.7911
Au 23.085 4.78702 25.4018
Au 24.8943 6.81863 27.245
Au 26.3251 8.93844 28.1231
Au 28.1808 10.9298 29.018
Au 30.0035 13.0597 29.5261
Au 31.764 15.2211 30.1311
Au 33.3556 17.5633 30.4859
