923
 Atoms. Timestep: 50000
Au 21.9347 13.3913 35.8801
Au 21.7429 14.5202 33.6165
Au 21.3524 15.6423 30.8973
Au 21.1802 16.9203 28.459
Au 20.8152 17.9916 25.7815
Au 20.656 19.1292 23.0238
Au 20.4531 20.2186 20.3593
Au 20.3364 21.6062 17.6034
Au 19.7041 22.5726 15.0501
Au 19.5444 23.8391 12.3191
Au 19.2855 24.8306 9.68853
Au 19.1626 26.2922 7.32658
Au 18.58 27.2464 4.93326
Au 19.4131 13.8235 35.0159
Au 19.2117 15.1526 32.5709
Au 18.7399 16.3018 29.7119
Au 18.5457 17.3504 27.1719
Au 18.3966 18.712 24.5488
Au 18.2143 19.8115 21.9554
Au 18.0199 20.9971 19.3122
Au 17.6991 22.1623 16.761
Au 17.1966 23.1829 14.0249
Au 17.0373 24.4122 11.3342
Au 16.6918 25.7959 8.78691
Au 16.3537 26.7912 6.18523
Au 21.2651 16.3043 35.7102
Au 20.8946 17.3851 33.222
Au 20.5279 18.3045 30.6393
Au 20.1946 19.4192 28.0619
Au 20.1423 20.8704 25.3287
Au 19.6939 21.8502 22.7034
Au 19.6757 23.1062 20.1583
Au 19.3664 24.3305 17.3577
Au 18.9239 25.2823 14.6673
Au 18.7567 26.5546 12.1823
Au 18.5192 27.7192 9.63503
Au 18.2394 28.8592 7.06136
Au 23.805 15.3916 34.9857
Au 23.5816 16.5084 32.5667
Au 23.3974 17.7156 30.19
Au 22.9876 18.8601 27.4015
Au 22.7646 19.9175 24.7595
Au 22.384 21.1775 22.2205
Au 22.2673 22.2774 19.5356
Au 22.0201 23.6434 17.0113
Au 21.6687 24.7297 14.1188
Au 21.3322 25.8884 11.5635
Au 21.3553 27.0407 9.06606
Au 20.8375 28.0125 6.51128
Au 23.8332 12.8444 34.165
Au 23.6085 13.771 31.514
Au 23.2522 14.9331 28.9197
Au 23.0816 16.1654 26.2859
Au 22.7022 17.3154 23.5939
Au 22.4462 18.5617 20.9767
Au 22.1663 19.3284 18.3539
Au 21.9198 20.9538 15.6123
Au 21.6898 22.0348 12.8464
Au 21.4046 23.0355 10.0633
Au 20.9979 24.3219 7.38545
Au 20.8654 25.5992 5.08074
Au 21.0533 11.7076 33.8918
Au 20.8802 12.9314 31.4309
Au 20.4397 14.1116 28.7034
Au 20.3064 15.3005 26.2183
Au 19.8578 16.4173 23.4273
Au 19.388 17.6359 20.9709
Au 19.4684 18.7793 18.3001
Au 19.1175 20.005 15.6044
Au 18.854 21.0915 12.9032
Au 18.5311 22.3096 9.98526
Au 18.3762 23.5619 7.32867
Au 17.9091 24.6874 5.0399
Au 17.0638 14.404 33.916
Au 16.5912 15.6197 31.3246
Au 16.2204 16.9659 28.5959
Au 16.0557 18.0581 26.0035
Au 15.6838 19.3098 23.4246
Au 15.6328 20.4789 20.7563
Au 15.2273 21.6403 18.0574
Au 14.7431 22.7577 15.4566
Au 14.6132 23.7903 12.9388
Au 14.3922 25.0458 10.3937
Au 14.1915 26.0128 7.55307
Au 18.7261 16.6044 34.7947
Au 18.2351 17.8209 32.1701
Au 17.9488 19.0588 29.5753
Au 17.8226 20.1772 26.9692
Au 17.5795 21.34 24.3413
Au 17.0903 22.5801 21.6581
Au 17.0269 23.7707 19.1447
Au 16.7649 24.819 16.4822
Au 16.3402 25.7823 13.6874
Au 16.1367 27.1433 11.1886
Au 15.7869 28.3708 8.45286
Au 20.3663 19.1357 35.3494
Au 20.218 20.1699 32.9264
Au 19.854 21.1437 30.236
Au 19.5197 22.294 27.6762
Au 19.1404 23.6033 25.0175
Au 18.9642 24.7205 22.3077
Au 18.7584 25.8235 19.7016
Au 18.3888 26.9947 17.0127
Au 18.3726 28.0004 14.5873
Au 17.8896 29.2201 12.0431
Au 17.6582 30.4498 9.33002
Au 22.9647 18.2348 34.7901
Au 22.8554 19.2911 32.4757
Au 22.3963 20.4727 29.7555
Au 22.2435 21.6991 27.0532
Au 22.0175 22.7771 24.4582
Au 21.7376 24.0369 21.9308
Au 21.4755 25.0599 19.2844
Au 21.1713 26.1847 16.625
Au 21.0109 27.4508 13.9684
Au 20.6601 28.571 11.3712
Au 20.4114 29.6706 8.73535
Au 25.6587 17.3829 34.3332
Au 25.6766 18.5294 31.754
Au 25.2542 19.6181 29.1484
Au 24.9666 20.6882 26.6417
Au 24.5911 21.7528 23.8773
Au 24.2421 22.8973 21.1541
Au 24.1562 24.1753 18.6425
Au 24.0147 25.4266 16.0348
Au 23.6647 26.5741 13.3221
Au 23.3349 27.977 10.6229
Au 23.1724 28.841 8.09352
Au 25.8245 14.5611 33.0669
Au 25.5396 15.8356 30.738
Au 25.0881 17.062 28.0556
Au 24.855 18.1875 25.274
Au 24.5855 19.3023 22.6337
Au 24.3681 20.3978 19.9716
Au 23.9875 21.5441 17.4619
Au 23.7325 22.9558 14.7773
Au 23.3 24.0637 11.9483
Au 23.1753 25.1085 9.50045
Au 22.9314 26.2454 6.71195
Au 25.6402 11.9787 31.9398
Au 25.2934 13.0755 29.422
Au 25.2098 14.3626 26.8244
Au 24.7864 15.395 24.3073
Au 24.3638 16.5532 21.6391
Au 24.2847 17.658 18.9174
Au 23.9556 18.9925 16.3616
Au 23.6938 20.1078 13.5686
Au 23.4289 21.2958 10.8739
Au 23.2038 22.5867 8.20684
Au 22.7504 23.6894 5.55014
Au 22.8662 11.0631 32.0103
Au 22.5537 12.1691 29.1826
Au 22.366 13.4013 26.7034
Au 21.9825 14.6552 24.0544
Au 21.6125 15.7992 21.3668
Au 21.451 16.9145 18.8975
Au 21.0726 17.9826 16.06
Au 21.0426 19.4122 13.4624
Au 20.5874 20.3602 10.8001
Au 20.3063 21.5465 7.81859
Au 20.1774 22.7322 5.20835
Au 20.0361 10.1311 31.6031
Au 19.7727 11.2588 29.2313
Au 19.5788 12.5679 26.5749
Au 19.3462 13.6843 23.9012
Au 18.9385 14.845 21.3215
Au 18.7952 16.0338 18.6717
Au 18.3154 17.4409 16.0743
Au 18.1503 18.5333 13.3935
Au 17.9003 19.7842 10.6644
Au 17.6815 20.7833 7.85422
Au 17.4446 21.9258 5.29379
Au 18.521 12.3255 32.8358
Au 18.2607 13.3128 30.3558
Au 17.895 14.6461 27.6452
Au 17.6295 15.6688 24.8706
Au 17.1616 17.0825 22.5675
Au 17.0132 18.198 19.8643
Au 16.9046 19.4941 17.2146
Au 16.5251 20.6184 14.5632
Au 16.2893 21.6998 11.7522
Au 16.0764 23.0077 9.04107
Au 15.6683 24.1059 6.39817
Au 14.5099 14.9207 32.6333
Au 13.9054 16.2118 30.2795
Au 13.6527 17.3367 27.7709
Au 13.4637 18.5945 25.0959
Au 13.1473 19.6755 22.4472
Au 12.9194 20.8885 19.6833
Au 12.6529 22.1551 17.083
Au 12.1734 23.6497 14.5054
Au 12.0758 24.5946 11.7177
Au 11.8559 25.5 9.17268
Au 15.9883 17.2695 33.5712
Au 15.6679 18.1865 31.0534
Au 15.1911 19.671 28.4894
Au 15.074 20.8931 25.9227
Au 14.7132 21.9581 23.263
Au 14.5183 23.0986 20.4764
Au 14.2539 24.4728 17.9863
Au 14.0263 25.4725 15.3126
Au 13.7098 26.5911 12.7075
Au 13.4384 27.5491 10.0912
Au 17.7189 19.2744 34.6025
Au 17.5612 20.5859 31.9402
Au 17.0992 21.7073 29.3615
Au 16.9148 22.9691 26.5282
Au 16.6212 24.0728 23.9533
Au 16.2161 25.4032 21.3318
Au 16.1733 26.444 18.6582
Au 15.8512 27.5146 15.959
Au 15.3597 28.6747 13.4083
Au 15.4207 29.7298 10.7872
Au 19.5924 21.6894 34.996
Au 19.3931 23.013 32.6134
Au 19.0667 23.7156 30.0133
Au 18.8751 25.0139 27.4151
Au 18.535 26.3407 24.7201
Au 18.067 27.3018 21.9406
Au 18.0652 28.5286 19.5145
Au 17.6393 29.7674 16.9398
Au 17.2784 30.685 14.3123
Au 17.2863 31.88 11.7841
Au 22.4473 20.9822 34.649
Au 22.1137 22.0265 32.0397
Au 21.8612 23.2216 29.4553
Au 21.4643 24.4328 26.8458
Au 21.2951 25.43 24.1703
Au 20.9085 26.567 21.6205
Au 20.782 27.7683 18.9891
Au 20.5725 28.951 16.4025
Au 20.0408 30.2379 13.8111
Au 19.829 31.2105 11.0204
Au 25.002 20.1229 33.9066
Au 24.74 21.252 31.3976
Au 24.421 22.3922 28.8497
Au 24.2213 23.4762 26.187
Au 23.9257 24.7221 23.6264
Au 23.7246 25.7817 21.0432
Au 23.5831 27.069 18.3995
Au 23.0923 28.0237 15.6505
Au 22.758 29.3719 12.8923
Au 22.5271 30.5385 10.2532
Au 27.6753 19.4213 33.5119
Au 27.3692 20.4504 30.9654
Au 27.082 21.5873 28.2273
Au 26.679 22.7502 25.285
Au 26.6083 23.8101 22.6188
Au 26.4108 24.8496 20.2431
Au 26.0164 26.2174 17.7011
Au 25.7557 27.5301 14.9003
Au 25.4025 28.6694 12.3628
Au 25.2652 29.6104 9.8666
Au 27.5771 16.4864 32.401
Au 27.3887 17.724 29.5261
Au 26.9042 18.8443 27.0142
Au 26.7108 20.0663 24.457
Au 26.6232 21.1645 21.8074
Au 26.2505 22.2441 19.1137
Au 26.1869 23.4872 16.5068
Au 25.7928 24.6646 13.8483
Au 25.5755 25.9073 11.2633
Au 25.1343 26.9697 8.56597
Au 27.5542 13.9292 31.0527
Au 27.2233 15.1139 28.5581
Au 27.125 16.2212 25.7918
Au 26.5616 17.3779 23.2221
Au 26.3476 18.5981 20.5801
Au 26.269 19.733 18.034
Au 25.8046 20.8985 15.3751
Au 25.7151 22.2274 12.4907
Au 25.2661 23.3025 9.94502
Au 24.9914 24.3533 7.34195
Au 27.3283 11.1983 29.8797
Au 27.1045 12.4291 27.1314
Au 26.9002 13.5955 24.5363
Au 26.4548 14.7489 22.038
Au 26.2253 15.8462 19.5049
Au 26.1204 17.089 16.8051
Au 25.6749 18.3704 14.306
Au 25.4186 19.4855 11.45
Au 25.4426 20.723 8.80933
Au 25.0676 21.958 6.26544
Au 24.566 10.5216 29.7424
Au 24.5015 11.5161 27.0791
Au 24.231 12.6046 24.6639
Au 23.7086 13.8682 21.7938
Au 23.4249 14.9739 19.1143
Au 23.3635 16.2309 16.634
Au 22.8821 17.3283 14.1759
Au 22.683 18.5402 11.502
Au 22.3501 19.922 8.6521
Au 22.2138 20.9485 6.15836
Au 21.8225 9.46666 29.9357
Au 21.6941 10.489 27.234
Au 21.4849 11.7892 24.6308
Au 21.0069 12.8683 21.8133
Au 20.7786 14.0933 19.2043
Au 20.5416 15.2198 16.5541
Au 20.3522 16.4122 13.8981
Au 20.0166 17.7739 11.1276
Au 19.7361 18.9514 8.52664
Au 19.4859 19.9762 5.67588
Au 19.1769 8.57677 29.3855
Au 18.7155 9.71484 26.8929
Au 18.7858 11.0186 24.354
Au 18.4303 12.058 21.8535
Au 18.1076 13.2921 19.1299
Au 17.7905 14.481 16.5152
Au 17.495 15.7739 13.8099
Au 17.2151 16.8897 11.2177
Au 16.9885 18.0664 8.66696
Au 16.6352 19.2195 5.80463
Au 17.5694 10.5995 30.5975
Au 17.2424 11.8642 28.042
Au 16.8504 13.1552 25.3235
Au 16.56 14.0368 22.7126
Au 16.5132 15.5822 20.3516
Au 16.1658 16.5097 17.7156
Au 15.8709 17.8396 15.0833
Au 15.578 18.9927 12.2964
Au 15.3441 20.2108 9.41034
Au 15.1674 21.5283 6.94144
Au 15.7933 12.7586 31.9353
Au 15.5557 13.9643 29.378
Au 15.2104 15.1789 26.4893
Au 15.0029 16.5626 23.9815
Au 14.5522 17.61 21.3246
Au 14.4312 18.8238 18.5209
Au 14.205 19.9817 15.9894
Au 13.878 20.9946 13.2387
Au 13.6507 22.1692 10.5828
Au 13.4284 23.4454 8.01226
Au 11.6453 15.4269 31.5496
Au 11.1738 16.7322 29.0489
Au 11.2917 17.9831 26.239
Au 10.8781 19.1315 23.8912
Au 10.6286 20.2815 21.3661
Au 10.4209 21.5398 18.6417
Au 10.0912 22.7227 16.1366
Au 9.72104 23.7747 13.3028
Au 9.58031 24.8783 10.8086
Au 13.3869 17.5305 32.6028
Au 12.7557 18.7208 30.0352
Au 12.8626 20.0441 27.3558
Au 12.4751 21.3677 24.6148
Au 12.214 22.5622 22.0039
Au 11.8989 23.5785 19.6146
Au 11.6718 24.8954 16.9344
Au 11.2563 26.1997 14.104
Au 11.1646 27.3011 11.3689
Au 15.1637 19.7645 33.4627
Au 14.8586 20.9915 31.1405
Au 14.491 22.4217 28.1676
Au 14.1062 23.7686 25.5436
Au 13.7977 24.6363 22.8827
Au 13.6344 25.9185 20.3065
Au 13.5232 27.1276 17.6667
Au 13.2047 28.0811 15.0077
Au 12.8834 29.3001 12.419
Au 16.9877 21.9475 34.2092
Au 16.6788 23.2091 31.7206
Au 16.3578 24.4903 28.8393
Au 16.1949 25.7901 26.3165
Au 15.6501 26.6029 23.69
Au 15.4881 27.9803 21.0708
Au 15.3623 29.0293 18.4794
Au 14.9402 30.4473 15.8493
Au 14.5517 31.2322 13.3207
Au 18.7185 24.43 34.9523
Au 18.4343 25.4453 32.2305
Au 18.0546 26.6181 29.7392
Au 17.9616 27.6802 27.1638
Au 17.6509 28.7805 24.4166
Au 17.4898 30.1315 21.9887
Au 17.1246 31.0633 19.3795
Au 16.7952 32.4024 16.839
Au 16.3217 33.3035 14.0848
Au 21.6107 23.6636 34.2061
Au 21.1816 24.7729 31.6996
Au 20.9092 25.9398 29.1195
Au 20.6948 27.0577 26.3735
Au 20.4707 28.2692 23.7538
Au 20.0444 29.3511 21.349
Au 19.8609 30.4702 18.5823
Au 19.5293 31.7449 16.1039
Au 19.0791 32.9075 13.5659
Au 24.3834 22.9472 33.5596
Au 23.8665 24.0435 31.1805
Au 23.8116 25.249 28.3618
Au 23.4825 26.5376 25.8877
Au 23.2438 27.5286 23.2806
Au 22.9039 28.7383 20.6763
Au 22.514 29.8064 18.1638
Au 22.2586 30.8183 15.3438
Au 21.8803 32.1091 12.6036
Au 26.9873 21.957 33.2555
Au 26.6732 23.283 30.6913
Au 26.4472 24.2504 27.7617
Au 25.9737 25.5021 25.1553
Au 25.8539 26.6585 22.6135
Au 25.6424 27.7462 20.0298
Au 25.3068 28.9327 17.3425
Au 24.9119 30.1563 14.8422
Au 24.6829 31.3521 12.0523
Au 29.584 21.0329 32.385
Au 29.2205 22.2088 29.7343
Au 28.9303 23.4177 27.0641
Au 28.7058 24.4649 24.2952
Au 28.5447 25.6175 21.9008
Au 28.41 26.9646 19.3745
Au 27.8586 28.2462 16.7811
Au 27.7657 29.3479 14.1405
Au 27.3394 30.4908 11.4262
Au 29.4851 18.5076 31.5056
Au 29.3746 19.5191 28.6876
Au 28.8097 20.8636 26.0628
Au 28.6632 21.8988 23.3501
Au 28.7055 23.0482 20.7681
Au 28.2722 24.268 18.2902
Au 27.9507 25.5203 15.5921
Au 27.7317 26.7104 12.7137
Au 27.4207 27.7118 10.31
Au 29.5556 15.6945 30.116
Au 29.2572 16.9307 27.5723
Au 28.9072 18.1675 24.9608
Au 28.5794 19.1769 22.3245
Au 28.3781 20.4339 19.7774
Au 28.117 21.7707 17.1595
Au 27.8417 22.7282 14.5061
Au 27.7013 23.9106 11.6855
Au 27.253 25.257 9.06035
Au 29.1461 13.2109 28.9313
Au 28.9635 14.2788 26.3285
Au 28.8958 15.6156 23.6189
Au 28.6016 16.8496 20.9869
Au 28.3477 17.7343 18.3146
Au 27.9442 19.0293 15.7974
Au 27.7118 20.3032 13.1468
Au 27.4088 21.6117 10.4802
Au 27.361 22.7466 8.05799
Au 28.9466 10.7592 27.7835
Au 29.2674 11.5823 25.1868
Au 28.635 12.955 22.6119
Au 28.1924 14.1519 19.8865
Au 28.0355 15.155 17.2628
Au 27.9692 16.4025 14.689
Au 27.4834 17.629 12.3186
Au 27.4696 18.6086 9.61472
Au 27.204 19.9517 7.04162
Au 26.4093 9.64027 27.7281
Au 26.4261 10.7796 24.9759
Au 25.9094 11.9755 22.3544
Au 25.5591 13.0558 19.7745
Au 25.3123 14.1792 17.1108
Au 25.0549 15.5968 14.6326
Au 24.9783 16.833 12.1398
Au 24.6428 18.1176 9.34521
Au 24.3889 19.2434 6.7892
Au 23.8949 8.6716 27.5401
Au 23.4905 9.83656 25.086
Au 23.1092 11.1107 22.2249
Au 22.8485 12.1938 19.636
Au 22.6773 13.2834 16.9787
Au 22.3401 14.4557 14.4419
Au 22.2366 15.7763 11.8887
Au 22.0842 17.0046 9.22039
Au 21.6825 18.1582 6.6927
Au 21.134 7.93149 27.4328
Au 20.8395 9.17381 24.9811
Au 20.5814 10.0267 22.1993
Au 20.2313 11.3242 19.6188
Au 20.0336 12.584 16.8672
Au 19.5708 13.5968 14.2093
Au 19.4882 15.0068 11.8029
Au 19.0821 16.2078 8.94046
Au 18.6852 17.4853 6.32556
Au 18.4446 7.07544 27.3886
Au 18.208 8.11945 24.7622
Au 17.9239 9.4527 22.3555
Au 17.5908 10.5976 19.5268
Au 17.2774 11.6752 17.0204
Au 16.8322 12.9461 14.2364
Au 16.5145 14.2136 11.774
Au 16.1688 15.4432 9.12158
Au 15.8961 16.4393 6.50931
Au 16.709 8.95602 28.5326
Au 16.3992 10.2408 25.8151
Au 15.9758 11.5309 23.1702
Au 15.6599 12.8952 20.5824
Au 15.4109 13.8542 17.9646
Au 15.1622 15.1076 15.3123
Au 14.9364 16.3103 12.7303
Au 14.5166 17.4139 10.0782
Au 14.3997 18.5189 7.42735
Au 15.0034 11.2625 29.6057
Au 14.7461 12.4896 26.7874
Au 14.2414 13.7457 24.2314
Au 13.9647 14.8225 21.6903
Au 13.717 16.0215 18.9525
Au 13.4518 17.2146 16.5493
Au 13.3374 18.2438 13.8467
Au 12.9845 19.5282 11.1291
Au 12.6732 20.7031 8.6103
Au 13.2582 13.1066 30.6894
Au 12.8287 14.4938 27.9144
Au 12.7208 15.7511 25.3843
Au 12.2696 16.8473 22.7262
Au 12.2521 18.2884 20.2304
Au 11.8838 19.3207 17.5417
Au 11.6974 20.7687 14.9828
Au 11.4185 21.9053 12.3069
Au 10.9713 22.8826 9.72633
Au 9.12999 16.0661 30.5133
Au 8.78388 17.3592 27.9184
Au 8.59995 18.3205 25.3561
Au 8.32871 19.569 22.8375
Au 8.08927 20.6705 20.2742
Au 7.76992 21.9392 17.8552
Au 7.62843 23.1353 15.1299
Au 7.14677 24.1533 12.3952
Au 10.7673 18.0761 31.6209
Au 10.501 19.45 28.6918
Au 10.1435 20.7745 26.1148
Au 9.82594 22.0105 23.7423
Au 9.58255 22.8868 21.042
Au 9.40296 24.1875 18.4333
Au 9.20064 25.3319 15.5909
Au 8.98971 26.7076 13.0333
Au 12.5981 20.2629 32.4994
Au 12.1653 21.6217 29.6615
Au 11.8352 22.8704 26.9774
Au 11.6052 24.1101 24.384
Au 11.0964 25.0882 21.9508
Au 11.025 26.337 19.2116
Au 10.9875 27.57 16.5827
Au 10.7117 29.0652 13.8957
Au 14.3126 22.5684 33.3014
Au 14.1113 23.7056 30.6821
Au 13.843 25.178 28.0938
Au 13.4043 26.4705 25.4832
Au 13.0308 27.3998 22.6833
Au 12.8008 28.7187 20.0492
Au 12.6182 29.7518 17.4837
Au 12.3721 30.929 14.9954
Au 16.1843 24.6641 33.8551
Au 15.8787 25.688 31.3067
Au 15.4339 27.321 28.8648
Au 15.0999 28.4141 26.2149
Au 14.9479 29.5301 23.4974
Au 14.7096 30.7005 20.9893
Au 14.4905 31.7601 18.4321
Au 14.0701 33.1172 15.6514
Au 18.0069 26.725 34.4903
Au 17.5082 28.0465 32.0617
Au 17.4912 29.3375 29.5081
Au 16.9944 30.3185 26.9996
Au 16.9752 31.3949 24.4921
Au 16.7236 32.7393 21.9968
Au 16.4699 33.6623 19.4532
Au 16.0588 34.8492 16.8228
Au 20.557 26.3124 33.9962
Au 20.4116 27.4717 31.3176
Au 20.2442 28.6246 28.7364
Au 19.6521 29.8052 26.3984
Au 19.5877 30.9014 23.9228
Au 19.2017 32.0651 21.0287
Au 19.0937 33.1951 18.4688
Au 18.7054 34.312 15.987
Au 23.3771 25.5558 33.4007
Au 23.2819 26.6981 30.7081
Au 22.8092 27.9539 28.201
Au 22.5057 29.2545 25.6556
Au 22.2821 30.377 22.9762
Au 21.883 31.5581 20.5161
Au 21.8677 32.4724 17.7557
Au 21.3105 33.6023 15.1381
Au 26.2279 24.9699 32.7903
Au 26.0502 25.9908 30.1411
Au 25.711 27.0471 27.4783
Au 25.4338 28.3921 24.9045
Au 24.9449 29.5081 22.5137
Au 24.6309 30.6811 19.9996
Au 24.501 31.479 17.1269
Au 23.8314 32.8755 14.4329
Au 28.9155 23.7408 32.1664
Au 28.4947 25.0649 29.4265
Au 28.2243 26.2106 26.8545
Au 27.9593 27.24 24.3187
Au 27.7842 28.7325 21.7464
Au 27.3519 29.9162 19.3095
Au 27.1168 30.9411 16.5724
Au 26.6633 31.8386 13.8742
Au 31.3337 23.1529 31.0214
Au 31.0656 24.1766 28.5006
Au 30.9527 25.2898 25.9952
Au 30.7894 26.4044 23.4281
Au 30.2898 27.9246 21.1031
Au 29.9585 28.9083 18.4478
Au 29.7414 30.1339 15.9773
Au 29.5881 31.0617 13.1907
Au 31.3372 20.3704 30.4893
Au 31.0762 21.3742 27.6844
Au 30.885 22.564 25.028
Au 30.9339 23.6196 22.4382
Au 30.5067 24.9961 19.7123
Au 30.0873 26.396 17.0407
Au 29.8466 27.3743 14.6057
Au 29.4613 28.526 11.9291
Au 31.3151 17.5967 29.4282
Au 30.8637 18.78 26.6045
Au 30.8857 20.0432 23.787
Au 30.6769 21.1791 21.2956
Au 30.6527 22.2376 18.5645
Au 30.105 23.8319 16.2012
Au 29.7663 24.6605 13.4657
Au 29.4598 25.8922 10.8738
Au 31.3632 14.9276 28.1315
Au 30.9715 16.1449 25.339
Au 30.9523 17.5084 22.7404
Au 30.6854 18.554 19.89
Au 30.1799 19.8519 17.3716
Au 29.9324 21.054 14.8342
Au 29.6658 22.1123 12.2062
Au 29.5742 23.4241 9.72737
Au 31.1448 12.4772 26.9638
Au 30.7273 13.663 24.3356
Au 30.5577 14.7688 21.6457
Au 30.4732 15.8097 19.0402
Au 30.1569 17.113 16.3926
Au 29.8378 18.4627 13.8665
Au 29.3209 19.5152 11.1308
Au 29.2983 20.8518 8.60985
Au 31.3969 9.91663 25.637
Au 30.6965 11.3447 22.9412
Au 30.3114 12.3548 20.216
Au 30.1848 13.2646 17.7308
Au 30.0479 14.4519 15.3212
Au 29.9561 15.6066 12.8625
Au 29.2583 16.694 10.2093
Au 29.0453 18.1106 7.62797
Au 28.4017 9.0893 25.8147
Au 28.0491 10.101 23.0074
Au 27.6642 11.2072 20.258
Au 27.5279 12.3162 17.8322
Au 27.2005 13.6272 15.069
Au 26.9801 14.7651 12.4873
Au 26.6001 16.0935 9.88451
Au 26.4528 17.3998 7.1752
Au 25.7889 8.03172 25.4652
Au 25.2553 9.16908 22.9642
Au 24.9727 10.278 20.1358
Au 24.753 11.4226 17.5034
Au 24.5344 12.6922 14.8771
Au 24.1855 13.8933 12.3209
Au 23.9616 15.0936 9.75798
Au 23.8273 16.4534 7.20976
Au 22.9092 7.29449 25.4113
Au 22.6477 8.40013 22.6677
Au 22.2721 9.40432 20.0735
Au 22.0817 10.4123 17.4686
Au 21.733 11.5671 14.7185
Au 21.6172 13.0049 12.2735
Au 21.162 14.4988 9.6834
Au 20.9355 15.5334 7.01539
Au 20.2432 6.31019 25.3717
Au 19.9871 7.16813 22.696
Au 19.5584 8.54609 20.0327
Au 19.1895 9.75584 17.4147
Au 18.8888 10.7719 14.8453
Au 18.7094 12.1799 12.1155
Au 18.451 13.4294 9.63817
Au 17.9393 14.7556 6.92425
Au 17.5367 5.38436 25.0181
Au 17.1756 6.65786 22.5038
Au 16.6487 8.02089 20.009
Au 16.3425 9.09144 17.4898
Au 16.091 10.4171 14.9154
Au 15.7352 11.4871 12.156
Au 15.5081 12.7497 9.68342
Au 15.1857 13.7654 7.00201
Au 15.965 7.53947 26.0463
Au 15.3836 8.63144 23.584
Au 14.9899 10.054 21.0555
Au 14.8049 11.1048 18.5459
Au 14.5224 12.2913 15.8907
Au 14.2711 13.4254 13.2755
Au 13.8974 14.6559 10.7554
Au 13.622 15.8644 7.95419
Au 14.1059 9.90847 27.2779
Au 13.7568 10.8268 24.5547
Au 13.3343 12.1093 22.0858
Au 13.0538 13.163 19.5225
Au 12.8293 14.4979 16.7476
Au 12.5108 15.4751 14.2152
Au 12.257 16.7009 11.7189
Au 11.8527 18.1236 8.86361
Au 12.2561 11.907 28.2628
Au 11.992 12.6799 25.6314
Au 11.5116 14.1217 23.2061
Au 11.224 15.3962 20.6073
Au 11.1563 16.5942 18.1478
Au 10.9366 17.8552 15.4896
Au 10.7397 19.0082 12.9497
Au 10.4392 20.2005 10.2092
Au 10.6602 13.9201 29.4475
Au 10.2739 15.1398 26.7097
Au 9.92728 16.1559 24.0555
Au 9.76669 17.4164 21.6524
Au 9.62492 18.6566 19.0591
Au 9.32351 19.7422 16.3746
Au 9.08328 20.9787 14.036
Au 8.67652 22.0126 11.3583
Au 6.84104 16.843 29.622
Au 6.39026 17.7961 26.9989
Au 6.09488 18.5922 24.3309
Au 5.71907 19.9419 21.8857
Au 5.74676 21.2243 19.3467
Au 5.50015 22.4181 16.44
Au 5.22376 23.2975 13.9705
Au 8.47632 18.7834 30.2727
Au 7.97687 19.9469 27.4396
Au 7.58332 21.0164 24.9911
Au 7.30192 22.1814 22.4849
Au 7.08282 23.4446 19.9639
Au 7.11784 24.7864 17.3846
Au 6.85718 25.6377 14.4423
Au 10.1485 20.6949 31.1599
Au 9.64016 21.9967 28.6545
Au 9.48115 23.7217 26.0509
Au 8.79008 24.4506 23.1083
Au 8.77824 25.7363 20.6095
Au 8.60103 26.9728 17.9259
Au 8.5288 27.9927 15.3088
Au 11.8265 22.836 31.8615
Au 11.6286 24.083 29.3473
Au 11.3211 25.6455 26.9851
Au 10.8371 26.513 24.2672
Au 10.5083 27.709 21.4642
Au 10.221 29.0552 18.9994
Au 10.0286 30.0476 16.2641
Au 13.5843 25.138 32.8027
Au 13.4105 26.4433 30.4893
Au 12.9232 27.9842 27.8106
Au 12.5996 29.077 24.8235
Au 12.3576 30.3803 22.3564
Au 12.1119 31.2522 19.8783
Au 11.9989 32.3362 17.3473
Au 15.3073 27.285 33.3918
Au 15.0909 29.0209 31.1237
Au 14.6585 29.9882 28.3622
Au 14.5299 31.0547 25.9331
Au 14.205 32.1738 23.3394
Au 14.0588 33.3605 20.665
Au 13.7778 34.1898 18.0587
Au 17.011 29.1758 34.1599
Au 17.102 30.6894 31.8624
Au 17.1713 31.8836 29.3373
Au 16.1623 32.6993 27.0836
Au 16.3787 33.9013 24.5773
Au 15.7091 35.0673 22.1802
Au 15.7907 35.935 19.5741
Au 19.6856 28.8126 33.6494
Au 19.6488 30.0101 31.156
Au 19.6008 31.2595 28.3829
Au 18.9392 32.5649 26.0885
Au 18.7769 33.5405 23.4431
Au 18.2999 34.9047 20.9607
Au 18.126 35.7039 18.3882
Au 22.555 28.114 32.9246
Au 22.299 29.3924 30.5378
Au 22.2647 30.6681 27.9413
Au 21.6803 31.9702 25.3122
Au 21.3587 32.8387 22.8766
Au 20.8983 34.3201 20.2399
Au 21.0684 34.9272 17.6961
Au 25.5086 27.4824 32.279
Au 25.127 28.6464 29.802
Au 24.678 29.7022 27.2218
Au 24.2286 31.0365 24.7153
Au 24.1283 32.2771 22.1444
Au 23.8226 33.2881 19.5618
Au 23.5186 34.2451 16.9205
Au 28.1488 26.6423 31.5753
Au 27.7365 27.9824 29.2393
Au 27.532 28.784 26.6259
Au 27.3484 30.1648 24.1489
Au 26.713 31.2503 21.6174
Au 26.4914 32.3761 18.8434
Au 25.992 33.4272 16.2974
Au 30.8115 25.797 30.7227
Au 30.5797 26.8464 28.3006
Au 30.0961 28.0682 25.8722
Au 30.0122 29.2003 23.4841
Au 29.6034 30.583 20.6819
Au 29.388 31.8282 17.9771
Au 28.7803 32.5062 15.4139
Au 33.278 24.6297 29.7607
Au 33.0743 26.0458 27.427
Au 32.5263 27.4631 25.1366
Au 32.7314 28.0436 22.4569
Au 32.2068 29.4789 20.1163
Au 31.7456 30.6535 17.5437
Au 31.4554 31.6131 15.0237
Au 33.1893 22.1594 29.2152
Au 32.9474 23.4461 26.8532
Au 32.8452 24.7757 24.064
Au 32.5153 25.6002 21.3492
Au 32.1639 27.0184 19.0355
Au 31.9318 28.2894 16.4349
Au 31.5461 29.2601 14.0904
Au 32.9121 19.4186 28.2147
Au 32.88 20.7244 25.8028
Au 32.9782 21.9858 23.3468
Au 32.5311 22.9847 20.2755
Au 32.3395 24.4609 17.7808
Au 31.8475 25.5431 14.9586
Au 31.3704 26.6089 12.5617
Au 32.8048 16.9642 27.1324
Au 32.9488 18.3391 24.647
Au 32.7729 19.4782 21.7958
Au 32.5077 20.3645 19.2467
Au 32.0819 21.8264 16.435
Au 32.0139 22.7847 14.0266
Au 31.4357 23.8576 11.3804
Au 32.9426 14.556 25.9911
Au 32.7695 15.525 23.4782
Au 32.4313 16.6002 20.7042
Au 32.2306 17.8708 17.9636
Au 31.8932 19.2212 15.3972
Au 31.8659 20.3975 13.0497
Au 31.6175 21.2472 10.5961
Au 32.8424 11.9842 24.7492
Au 32.6544 13.0317 22.3475
Au 32.4713 13.8918 19.5327
Au 32.17 15.2227 16.8562
Au 31.9116 16.6492 14.4339
Au 31.5415 17.6084 11.8458
Au 30.9767 18.8515 9.46373
Au 32.8057 9.8662 22.885
Au 32.5919 10.9596 20.6279
Au 32.2067 11.8579 18.1002
Au 32.1388 12.6921 15.7415
Au 31.6436 13.7304 13.2342
Au 31.361 15.0051 10.684
Au 30.9589 16.361 8.32063
Au 30.1571 8.65081 23.7758
Au 29.9996 9.60418 20.9941
Au 29.6678 10.5407 18.3252
Au 29.3606 11.5878 15.6361
Au 29.1155 12.8652 13.1148
Au 28.8028 14.0229 10.4665
Au 28.3989 15.5084 7.98294
Au 27.4931 7.65389 23.6032
Au 27.0794 8.50516 20.829
Au 26.6552 9.59494 18.1019
Au 26.6729 10.9914 15.5046
Au 26.3184 12.1558 12.8678
Au 25.9898 13.2308 10.2369
Au 25.7756 14.6867 7.67139
Au 24.667 6.62098 23.4084
Au 24.1375 7.47694 20.6237
Au 24.0651 8.78309 17.9624
Au 23.8203 9.89472 15.1521
Au 23.6571 11.0697 12.9282
Au 23.2544 12.4501 10.1925
Au 22.754 13.7975 7.70731
Au 22.2118 5.7867 23.0393
Au 21.7365 6.62672 20.5006
Au 21.2972 7.80153 17.9038
Au 20.987 9.02472 15.2704
Au 20.6274 10.388 12.6413
Au 20.5535 11.7144 9.92787
Au 20.1018 12.8928 7.64495
Au 19.358 4.68582 23.3256
Au 18.9286 5.90011 20.4706
Au 18.4221 7.12658 18.0203
Au 18.1242 8.1648 15.2212
Au 17.8364 9.49067 12.7828
Au 17.53 10.6821 10.118
Au 17.292 12.071 7.69241
Au 16.7228 4.29864 22.4485
Au 16.2467 5.53884 20.2121
Au 15.5858 6.62112 17.7858
Au 15.2438 7.87139 15.3098
Au 15.0306 8.95948 12.6662
Au 15.0246 9.85249 10.1566
Au 14.7229 11.266 7.90942
Au 14.9413 5.98197 23.9365
Au 14.5429 7.31092 21.5052
Au 13.9307 8.4734 18.9162
Au 13.5972 9.62465 16.487
Au 13.4871 10.661 13.9389
Au 13.2257 11.7668 11.1648
Au 12.9146 13.2728 8.6396
Au 13.4589 8.11004 25.1483
Au 12.8581 9.41855 22.4698
Au 12.2845 10.4777 20.0794
Au 12.1258 11.8671 17.35
Au 11.7644 12.9258 14.7178
Au 11.4277 13.9895 12.1148
Au 11.4345 15.5534 9.73551
Au 11.5959 10.182 26.2076
Au 10.8146 11.5945 23.3184
Au 10.7335 12.713 20.8218
Au 10.3972 13.989 18.2187
Au 10.1961 14.9864 15.6991
Au 10.1111 16.1611 13.3116
Au 9.98507 17.6305 10.6552
Au 10.0285 12.5928 27.303
Au 9.39658 13.5673 24.8265
Au 8.9034 14.5914 22.0635
Au 8.66603 15.8648 19.6298
Au 8.62872 16.8504 16.9807
Au 8.36659 18.0911 14.4678
Au 8.25703 19.3656 12.0856
Au 8.16381 14.7332 28.2588
Au 7.59828 15.7737 25.6982
Au 7.45491 16.7543 23.1823
Au 7.28643 18.0706 20.683
Au 7.03118 19.1582 18.0206
Au 6.77941 20.4288 15.3801
Au 6.5088 21.4624 13.021
