923
 Atoms. Timestep: 50000
Au 20.3736 20.3666 20.2888
Au 23.074 20.675 20.4344
Au 21.1274 22.8853 21.1861
Au 19.6958 18.0301 19.4969
Au 17.6882 19.929 20.424
Au 21.3226 22.1779 18.5527
Au 21.6191 20.5236 22.7242
Au 19.2058 20.3697 17.9053
Au 19.4467 18.7906 22.2185
Au 21.915 19.3933 18.2869
Au 21.9331 18.2063 20.9779
Au 18.7008 22.689 19.8131
Au 18.9305 21.4748 22.3496
Au 25.8423 21.0664 20.3013
Au 22.0868 25.2112 22.2364
Au 18.8448 15.5678 18.4035
Au 15.0341 19.5918 20.3447
Au 22.3054 23.8558 16.6873
Au 22.8614 20.2456 25.1638
Au 18.1189 20.1725 15.2828
Au 18.2734 16.8043 23.9464
Au 23.2739 18.1039 16.3422
Au 23.5322 16.1056 21.6703
Au 17.1471 24.8091 19.3005
Au 17.3799 22.5533 24.5404
Au 23.8828 23.1083 21.2578
Au 24.2083 22.6241 18.501
Au 22.2606 24.6289 19.4809
Au 24.4166 20.7167 22.785
Au 22.282 22.8634 23.9751
Au 24.7386 19.7186 18.3963
Au 22.7327 21.0724 16.3409
Au 24.7951 18.6302 21.035
Au 23.1255 18.072 23.43
Au 23.4889 17.0403 18.8713
Au 19.5971 25.1431 20.8196
Au 19.792 24.4093 17.9711
Au 19.6302 23.9422 23.5423
Au 20.1902 21.4732 24.8463
Au 17.1146 23.7371 21.9655
Au 16.7931 17.5651 19.4507
Au 18.1868 17.8534 16.9462
Au 16.4334 20.1662 17.8235
Au 18.5319 16.1576 21.2905
Au 16.5797 18.1556 22.2573
Au 21.046 16.819 17.3439
Au 20.6829 19.2257 15.858
Au 21.1739 15.7888 20.0813
Au 20.7793 16.3736 23.0028
Au 16.0794 22.2198 19.6257
Au 17.6238 22.7151 17.2094
Au 16.1145 21.0978 22.4036
Au 17.9274 19.7722 24.2842
Au 20.2579 22.0622 15.9432
Au 20.6428 18.6673 24.8514
Au 28.6104 21.5713 20.4721
Au 22.9114 27.5579 23.2124
Au 17.8741 13.2713 17.4072
Au 12.3452 19.0237 20.4183
Au 23.3711 25.6842 14.8318
Au 23.818 20.3956 27.6854
Au 17.0759 20.3476 12.9448
Au 17.2202 15.2778 25.9114
Au 24.8009 17.1641 14.243
Au 25.2018 13.912 22.2857
Au 15.5418 26.9144 18.5653
Au 16.0137 23.62 26.6295
Au 26.6023 23.5617 21.3908
Au 24.8445 25.6223 22.4458
Au 26.9102 22.9682 18.6272
Au 25.1429 24.383 16.5385
Au 22.9624 27.009 20.3226
Au 23.2632 26.3689 17.5383
Au 25.0668 24.9807 19.6664
Au 27.1835 21.2883 22.9078
Au 25.5839 20.9315 25.3663
Au 23.115 25.3787 24.8566
Au 23.4353 22.769 26.3354
Au 25.0426 23.2395 23.8227
Au 27.5014 20.0108 18.3205
Au 26.2045 18.6891 16.2517
Au 23.9216 22.8091 14.5356
Au 24.3735 19.8563 14.3438
Au 25.6237 21.3993 16.3591
Au 27.5062 19.0288 21.1412
Au 26.291 16.396 21.6872
Au 24.2654 18.0943 26.1188
Au 24.7787 15.9594 24.3034
Au 25.8821 18.5185 23.6426
Au 24.985 16.0313 16.816
Au 25.0981 14.8981 19.5813
Au 26.4572 17.3437 19.0204
Au 20.4237 27.5559 21.643
Au 18.0194 27.2275 20.2242
Au 20.8859 26.1899 16.2409
Au 18.1449 26.5889 17.3047
Au 20.629 26.8665 18.8201
Au 20.7016 26.4265 24.4928
Au 18.3495 25.2049 25.5813
Au 21.2472 21.3319 27.4988
Au 18.6934 22.5584 27.0266
Au 21.0327 23.9772 26.1349
Au 15.6387 25.9527 21.4309
Au 15.7062 24.6567 24.1428
Au 17.9879 26.2434 22.9184
Au 15.9358 15.1171 18.3803
Au 14.1421 17.03 19.3081
Au 17.413 15.4052 15.9812
Au 17.0304 17.9779 14.3591
Au 13.644 19.5581 17.8666
Au 15.3362 20.0618 15.2178
Au 15.4291 17.8102 16.6656
Au 17.7612 13.64 20.3878
Au 17.4852 14.1892 23.0224
Au 13.8643 17.7305 22.2945
Au 15.5039 16.2776 24.0626
Au 15.629 15.6564 21.2409
Au 20.1582 14.3934 16.2645
Au 22.5643 15.6418 15.3464
Au 19.6062 19.0833 13.2461
Au 22.1866 18.1766 13.648
Au 19.6595 16.8333 14.8331
Au 20.408 13.2664 18.9829
Au 22.7414 13.5371 20.6998
Au 19.9337 14.4094 24.5898
Au 22.5194 14.2569 23.503
Au 20.1588 13.8075 21.854
Au 22.5353 14.5405 17.9016
Au 13.416 21.5787 19.7433
Au 14.2449 24.2796 19.042
Au 16.5604 22.6197 14.708
Au 15.8428 24.9028 16.64
Au 14.8357 22.2798 17.0491
Au 13.3238 20.6148 22.5007
Au 14.5979 22.0726 24.5868
Au 16.8001 17.8348 26.1206
Au 16.358 20.6893 26.3877
Au 15.1735 19.3387 24.3057
Au 14.4716 23.4292 21.8373
Au 21.0999 24.0531 14.2006
Au 19.0956 22.1376 13.534
Au 21.6978 20.9762 13.7501
Au 18.5949 24.4806 15.3226
Au 21.4973 18.4875 27.277
Au 19.4144 16.8731 26.6678
Au 22.0823 16.2849 25.4023
Au 19.0068 19.7898 26.7177
Au 31.1932 22.0314 20.4247
Au 23.9006 30.0004 24.2724
Au 17.0471 10.9473 16.2825
Au 9.61796 18.5525 20.256
Au 24.262 27.3177 13.0206
Au 24.9639 20.333 30.1435
Au 15.6676 20.3953 10.448
Au 16.3037 13.3929 27.7678
Au 26.2712 16.0963 12.2226
Au 26.7139 11.8085 22.8313
Au 14.1834 29.0944 17.9157
Au 14.6051 24.6659 28.7985
Au 29.3575 24.2446 21.4835
Au 27.6065 26.2033 22.3731
Au 25.7859 28.2788 23.128
Au 29.645 23.2836 18.6565
Au 27.8904 24.8998 16.6096
Au 26.0779 26.1708 14.7503
Au 23.9375 29.4171 21.4531
Au 24.1434 28.9126 18.5991
Au 24.3025 28.178 15.7549
Au 27.7832 25.5164 19.4024
Au 25.8781 27.6448 20.4235
Au 25.986 26.8763 17.4719
Au 29.855 21.5708 22.9852
Au 28.1897 21.4962 25.4541
Au 26.6422 20.916 27.8986
Au 24.1583 27.8169 25.8158
Au 24.3925 25.3253 27.3306
Au 24.7265 22.798 28.7427
Au 27.8293 23.6893 23.9415
Au 25.9732 25.927 25.0224
Au 26.4609 23.4238 26.4455
Au 30.2348 20.4752 18.3229
Au 29.0521 19.047 16.1987
Au 27.6883 17.6394 14.1959
Au 24.815 24.6552 12.5716
Au 25.3307 21.7693 12.4225
Au 25.9402 18.844 12.1891
Au 28.3623 22.0413 16.379
Au 26.5828 23.2581 14.4708
Au 27.2376 20.6516 14.2919
Au 30.2281 19.2919 21.1368
Au 29.0909 16.7567 21.6415
Au 28.0889 14.2472 22.3946
Au 25.4815 18.3458 28.504
Au 26.0274 16.0442 26.7386
Au 26.3905 13.8288 24.7478
Au 28.6895 18.9787 23.5828
Au 27.1342 18.7458 26.1339
Au 27.5646 16.4602 24.266
Au 26.5447 14.9168 14.7532
Au 26.7562 13.9961 17.4269
Au 26.5901 12.8436 20.0782
Au 29.3703 17.7115 18.9539
Au 27.8657 16.4243 16.8926
Au 27.959 15.1928 19.7071
Au 21.3293 29.7964 22.6398
Au 18.8806 29.6997 21.2227
Au 16.6371 29.5169 19.4701
Au 21.807 27.7783 14.0871
Au 19.3292 28.2832 15.4805
Au 16.6907 28.744 16.6019
Au 21.5521 29.3865 19.733
Au 21.7861 28.7477 16.9689
Au 19.0779 29.1569 18.1656
Au 21.6234 28.8376 25.4177
Au 19.1787 27.7287 26.5469
Au 16.7357 26.1798 27.6947
Au 22.3903 21.6389 29.93
Au 19.8671 22.5347 29.6395
Au 17.2612 23.5595 29.2067
Au 21.7907 26.4921 27.0152
Au 22.1122 24.1484 28.5199
Au 19.4022 25.1532 28.1279
Au 13.9804 28.1244 20.734
Au 14.2915 27.055 23.4009
Au 14.3593 25.7872 26.1562
Au 19.0342 28.6691 23.8872
Au 16.5186 28.4816 22.2609
Au 16.5484 27.2596 24.9557
Au 15.1179 12.6626 17.3845
Au 13.251 14.608 18.3104
Au 11.3497 16.5463 19.3036
Au 16.5625 13.0872 14.7207
Au 16.1555 15.4485 13.393
Au 15.9227 17.9061 11.9305
Au 10.9193 18.8718 17.7409
Au 12.6398 19.6233 15.3011
Au 14.1155 19.7786 12.735
Au 14.612 15.0429 15.7596
Au 12.6358 16.9783 16.8052
Au 14.0948 17.4374 14.3072
Au 16.9436 11.236 19.3236
Au 16.6188 11.6872 22.3114
Au 16.3893 12.6327 25.0817
Au 11.0744 17.3758 22.2878
Au 12.7624 15.9904 24.1854
Au 14.5334 14.4709 25.9291
Au 14.9794 13.1051 20.1979
Au 12.8872 15.1577 21.2344
Au 14.6458 13.8321 23.0407
Au 19.282 11.944 15.3776
Au 21.7938 13.2555 14.1555
Au 24.1575 14.641 13.4037
Au 18.2405 19.2463 10.7933
Au 20.9591 18.0725 11.144
Au 23.6435 17.0719 11.7076
Au 18.9978 14.204 13.6824
Au 18.5167 16.7024 12.2782
Au 21.2855 15.5788 12.7216
Au 19.3099 10.9677 18.0697
Au 21.8568 11.0463 19.574
Au 24.3623 11.3562 21.2279
Au 18.7444 12.8003 26.6892
Au 21.5924 12.5411 25.5282
Au 24.0703 11.9224 24.0709
Au 19.408 11.4576 20.9563
Au 19.0263 12.0195 23.7811
Au 21.7738 11.5655 22.4377
Au 21.7852 12.0911 16.7356
Au 24.2779 13.3809 15.9528
Au 24.1928 12.4834 18.4604
Au 10.5487 21.0956 19.8009
Au 11.5439 23.8799 18.9696
Au 12.8162 26.4866 18.4537
Au 15.1515 22.5228 12.2251
Au 14.7264 24.8752 13.9438
Au 14.3999 27.0639 16.0064
Au 12.0221 21.7085 17.0839
Au 13.6763 22.172 14.6149
Au 13.1428 24.3232 16.4059
Au 10.6139 20.1536 22.3798
Au 11.7881 21.7641 24.5433
Au 13.1908 23.2995 26.6682
Au 16.0067 16.1917 28.1315
Au 15.2478 18.9101 28.4652
Au 15.0572 21.8513 28.5869
Au 12.3286 18.943 24.4379
Au 13.8984 17.6187 26.1376
Au 13.5967 20.4234 26.6282
Au 11.6272 22.8769 21.8616
Au 12.8301 25.4484 21.277
Au 12.9649 24.3339 24.009
Au 22.1785 25.6935 12.2137
Au 19.9679 24.0256 11.6983
Au 17.9246 22.1824 10.8546
Au 22.7157 22.7686 11.9069
Au 20.4738 20.9573 11.3102
Au 23.1924 19.989 11.6898
Au 19.4872 26.3594 13.5117
Au 17.3313 24.3369 12.7926
Au 16.8995 26.7171 14.557
Au 22.7019 18.7906 29.8135
Au 20.7532 16.8505 29.3133
Au 18.4479 15.034 28.5312
Au 23.3262 16.2987 27.8226
Au 21.1564 14.5921 27.5513
Au 23.9145 14.1846 26.1119
Au 20.0435 19.8189 29.567
Au 17.9917 17.9627 28.7396
Au 17.6175 20.667 28.9015
Au 33.9357 22.4844 20.7083
Au 24.9127 32.4095 25.2919
Au 16.291 8.26824 15.5175
Au 6.88536 18.004 20.4188
Au 25.4225 29.1081 11.1272
Au 26.1159 20.4339 32.768
Au 14.4477 20.511 7.94264
Au 15.4433 11.5524 29.7107
Au 27.7015 15.1793 10.0052
Au 28.2799 9.55058 23.289
Au 12.4965 31.3283 17.2992
Au 13.0516 25.7844 30.8972
Au 32.2177 24.5374 21.4321
Au 30.4984 26.6167 22.2992
Au 28.5458 28.63 23.2274
Au 26.7421 30.6448 24.1902
Au 32.2352 23.9286 18.645
Au 30.6697 25.1337 16.7053
Au 28.907 26.6323 14.6341
Au 27.2711 28.0621 12.911
Au 24.9317 32.0196 22.4695
Au 25.0252 31.4136 19.6231
Au 25.0764 30.5118 16.5783
Au 25.3518 29.8262 13.8777
Au 30.4421 25.8963 19.4882
Au 28.8668 27.97 20.5225
Au 28.903 27.3389 17.5646
Au 26.8294 30.2004 21.4173
Au 26.9648 29.4564 18.5054
Au 27.2979 28.7039 15.7566
Au 32.5027 22.0542 23.198
Au 30.9649 21.7502 25.4642
Au 29.5382 21.1746 27.9178
Au 27.8006 20.7985 30.4513
Au 25.0934 30.3636 26.9401
Au 25.3209 27.7501 28.202
Au 25.7449 25.3093 29.7037
Au 25.8543 22.9638 31.1809
Au 30.6444 24.1216 24.0492
Au 28.7917 26.1141 24.8353
Au 29.3022 24.0062 26.5166
Au 27.0209 28.4302 25.857
Au 27.3985 25.923 27.3946
Au 27.7531 23.3422 28.7674
Au 32.884 21.0904 18.4108
Au 31.9283 19.549 16.2777
Au 30.5405 17.7559 14.218
Au 29.1761 16.4274 12.1277
Au 26.0717 26.4628 10.7142
Au 26.323 23.4204 10.5902
Au 26.882 20.5415 10.2731
Au 27.4255 17.9141 10.2557
Au 31.1599 22.2789 16.2907
Au 29.5288 23.6462 14.5038
Au 30.103 20.6596 14.3379
Au 27.6035 24.8639 12.5893
Au 28.4416 22.2202 12.263
Au 28.882 19.2909 12.2352
Au 33.0162 19.9464 21.3584
Au 31.9813 17.1964 21.8021
Au 30.8471 14.6866 22.3708
Au 29.647 12.0872 23.0256
Au 26.8799 18.4145 31.0092
Au 27.2423 16.0994 29.2989
Au 27.6717 13.9944 27.2761
Au 28.0007 11.8445 25.3736
Au 31.6587 19.4021 23.8124
Au 29.8316 18.9492 26.0063
Au 30.4566 16.7086 24.3285
Au 28.4536 18.6329 28.5427
Au 28.849 16.5023 26.7949
Au 29.3246 14.2659 24.72
Au 27.9077 13.811 12.5108
Au 28.2756 12.7237 15.329
Au 28.1989 11.8466 18.0398
Au 28.3113 10.7029 20.6388
Au 31.918 18.3543 19.0499
Au 30.9723 16.5924 16.8948
Au 30.7629 15.6107 19.7474
Au 29.4162 15.3177 14.8636
Au 29.6166 14.2889 17.5552
Au 29.6289 13.1986 20.285
Au 22.3124 32.2551 23.6299
Au 19.824 32.2752 22.1779
Au 17.394 31.9342 20.7328
Au 14.8714 31.6442 18.9508
Au 22.7717 29.6344 12.1909
Au 20.2674 30.0784 13.6161
Au 17.6916 30.5775 14.6751
Au 15.0351 31.0533 16.0241
Au 22.525 31.7766 20.7771
Au 22.5413 31.3847 17.8269
Au 19.8932 31.6599 19.2773
Au 22.6337 30.4551 14.9124
Au 20.1526 31.0013 16.1688
Au 17.5597 31.2437 17.6215
Au 22.3465 31.2868 26.4112
Au 20.139 29.9429 27.6984
Au 17.5552 28.6612 28.6876
Au 15.2792 27.246 29.8512
Au 23.601 21.7605 32.4882
Au 20.9665 22.5836 32.2021
Au 18.3129 23.5992 31.7499
Au 15.6737 24.6859 31.2647
Au 22.7647 29.0917 28.0368
Au 23.1128 26.6782 29.5678
Au 20.3076 27.5734 29.2611
Au 23.4361 24.3407 31.1034
Au 20.725 24.9867 30.6961
Au 17.9558 26.3187 30.5137
Au 12.5845 30.3326 20.0361
Au 12.6409 29.2122 22.7909
Au 12.7572 28.0703 25.5234
Au 12.9004 27.108 28.0976
Au 19.7964 31.0411 24.9963
Au 17.4458 30.9649 23.4125
Au 17.6615 29.9885 26.1242
Au 14.8747 30.6859 21.6746
Au 15.1152 29.558 24.4623
Au 15.1184 28.4983 27.153
Au 14.3265 10.2215 16.4003
Au 12.3261 12.1273 17.3336
Au 10.5147 14.1653 18.2576
Au 8.60201 15.9926 19.4027
Au 15.7348 10.4361 14.013
Au 15.1023 13.0397 12.3951
Au 15.0981 15.5844 10.8237
Au 14.481 17.9829 9.21351
Au 8.21971 18.6741 17.9073
Au 9.72218 19.1122 15.3608
Au 11.307 19.4438 12.9687
Au 12.8622 20.0895 10.3067
Au 13.8412 12.4952 14.8398
Au 11.7928 14.7389 15.6638
Au 13.2464 14.808 13.2672
Au 9.77983 16.4582 16.5635
Au 11.3058 16.9738 14.0196
Au 12.9252 17.2762 11.5709
Au 16.0695 8.72024 18.1644
Au 15.7277 9.41343 20.9846
Au 15.4414 9.97698 23.9457
Au 15.6322 10.6849 26.9794
Au 8.32683 16.6446 22.3378
Au 9.93402 15.431 24.2957
Au 11.888 14.1174 25.9983
Au 13.4648 12.773 27.8474
Au 14.0757 10.7747 19.1813
Au 12.2172 12.6272 20.1437
Au 13.9127 11.4206 22.1861
Au 10.1108 14.8766 21.3256
Au 11.8397 13.3188 23.0999
Au 13.5496 12.1716 24.9914
Au 18.4068 9.50397 14.171
Au 20.644 10.7573 13.1305
Au 23.2402 12.1105 12.0164
Au 25.549 13.5035 11.208
Au 16.9498 19.231 8.19899
Au 19.6954 18.0942 8.73825
Au 22.5624 17.0392 9.00214
Au 25.0922 16.0925 9.57039
Au 17.9736 11.8877 12.6525
Au 17.5988 14.3501 11.2749
Au 20.6127 13.0087 11.543
Au 17.3684 16.8785 9.59401
Au 20.0737 15.4551 10.2314
Au 22.813 14.6121 10.5938
Au 18.5249 8.48529 16.8908
Au 20.8214 8.73421 18.7646
Au 23.5461 8.85792 20.4439
Au 26.0076 9.2635 21.9001
Au 18.0464 11.0451 28.5106
Au 20.5696 10.6867 27.3035
Au 23.1753 10.397 26.097
Au 25.6958 9.87094 24.9206
Au 18.4431 9.01238 19.9484
Au 18.1833 9.36461 22.7916
Au 21.0224 9.20886 21.6336
Au 18.0556 10.2861 25.6851
Au 20.7972 9.7357 24.5191
Au 23.3681 9.30508 23.2307
Au 20.7905 9.76816 15.869
Au 23.3927 10.8911 14.6537
Au 23.487 9.97299 17.4163
Au 25.7452 12.2515 13.8384
Au 25.9764 11.2429 16.3409
Au 25.9045 10.1965 19.1017
Au 7.78973 20.7176 19.9188
Au 8.98548 23.3983 19.3396
Au 9.94892 26.1869 18.306
Au 11.3702 28.6575 17.9518
Au 14.0197 22.513 9.69582
Au 13.5523 24.6959 11.5631
Au 13.0611 27.1863 13.4732
Au 12.6947 29.1287 15.4058
Au 9.20334 21.2773 17.0749
Au 10.7868 21.9182 14.6329
Au 10.2365 23.9717 16.5971
Au 12.2698 22.0894 12.2627
Au 11.7881 24.4506 13.9366
Au 11.6221 26.531 15.9007
Au 7.77373 19.5869 22.634
Au 9.11621 21.3295 24.5139
Au 10.3307 22.8097 26.8357
Au 11.7828 24.4056 28.6723
Au 14.8024 14.5854 30.0021
Au 14.22 17.2119 30.4215
Au 13.9363 20.0526 30.7461
Au 13.4789 23.0077 30.6071
Au 9.52695 18.341 24.3784
Au 11.2475 17.03 26.3999
Au 10.8418 19.9708 26.6171
Au 13.0895 15.6458 28.1703
Au 12.5442 18.3911 28.4136
Au 12.119 21.3085 28.7455
Au 8.86243 22.3523 22.0088
Au 9.84142 25.1439 21.4023
Au 10.081 23.9954 24.0821
Au 11.2688 27.7666 20.6953
Au 11.2868 26.6587 23.5014
Au 11.3303 25.3503 26.078
Au 23.4662 27.4625 10.2731
Au 21.0664 25.8855 9.6211
Au 18.8277 23.9645 8.9806
Au 16.6853 22.2762 8.46689
Au 23.7857 24.6171 9.90722
Au 21.4938 22.8001 9.30503
Au 24.2725 21.7703 9.68511
Au 19.3683 20.8647 8.5573
Au 21.8622 19.7983 9.11078
Au 24.5923 18.9595 9.59025
Au 20.6194 27.9398 11.4562
Au 18.3251 26.2265 10.8902
Au 17.8793 28.4917 12.7737
Au 16.2556 24.5368 10.388
Au 15.712 26.8503 12.0201
Au 15.3366 28.9951 14.0821
Au 24.0684 18.677 32.1162
Au 21.6559 16.9012 31.8171
Au 19.7708 14.8074 31.065
Au 17.5923 13.2301 30.4177
Au 24.5526 16.5295 30.5872
Au 22.3348 14.6739 30.0167
Au 25.055 14.2789 28.701
Au 20.0441 12.7762 29.3598
Au 22.77 12.4106 28.2393
Au 25.4076 11.8942 26.9094
Au 21.4839 19.8323 32.108
Au 19.3338 17.7775 31.4557
Au 18.5496 20.7752 31.7286
Au 17.025 16.1754 30.7489
Au 16.5738 18.9276 30.9478
Au 15.9338 21.928 31.3783
Au 36.5619 22.9555 20.4863
Au 25.5804 34.705 26.0249
Au 15.6137 5.7863 14.6718
Au 4.25568 17.8015 20.3431
Au 26.1861 30.7445 9.17545
Au 27.3191 20.3535 35.0892
Au 13.2093 20.3387 5.63963
Au 14.4025 10.1196 31.6261
Au 29.2262 13.8555 7.85293
Au 29.8346 7.74227 24.0485
Au 11.2646 33.5014 16.6689
Au 11.8793 27.0498 32.8367
Au 34.9309 24.986 21.4191
Au 33.0308 26.8143 22.6968
Au 31.2472 28.8685 23.4821
Au 29.493 30.8934 24.3434
Au 27.4856 33.0548 25.0941
Au 34.8846 24.3606 18.5863
Au 33.3022 25.5099 16.7157
Au 31.4372 26.9741 14.8254
Au 29.9549 28.2547 12.8551
Au 28.2215 29.6973 11.0676
Au 25.8826 34.3751 23.1663
Au 25.9934 33.8463 20.4712
Au 26.1403 32.8977 17.7003
Au 26.0865 32.2053 14.8658
Au 26.3473 31.5127 11.9219
Au 33.2773 26.5563 19.7225
Au 31.5911 28.4117 20.4755
Au 31.6027 27.5989 17.8217
Au 29.6838 30.3827 21.5941
Au 29.7647 29.8004 18.5523
Au 29.9713 29.1242 15.7293
Au 27.897 32.5516 22.4498
Au 28.011 31.8595 19.586
Au 28.0058 31.1582 16.5614
Au 28.1141 30.5718 13.878
Au 35.2318 22.5423 22.9693
Au 33.7345 22.0867 25.5749
Au 32.2514 21.9996 28.0316
Au 30.4789 21.5929 30.507
Au 28.9246 20.9213 32.9374
Au 26.2154 32.6448 28.0055
Au 26.3138 30.1651 29.2903
Au 26.6583 27.6593 30.5561
Au 26.7475 25.3414 32.163
Au 26.938 22.8856 33.5106
Au 33.4326 24.4626 24.0372
Au 31.7298 26.5464 24.9594
Au 31.9022 24.3505 26.489
Au 29.9281 28.4592 25.7359
Au 30.2318 26.4371 27.5308
Au 30.3891 23.8998 29.0542
Au 27.8664 30.811 26.8677
Au 28.2565 28.3232 28.2997
Au 28.5488 25.8339 29.8587
Au 28.6986 23.3786 31.414
Au 35.3828 21.6764 18.5916
Au 34.5359 19.7038 16.43
Au 33.1073 18.0695 14.3508
Au 31.7275 16.7831 12.2267
Au 30.4278 15.4891 9.54953
Au 27.0378 28.1641 9.01286
Au 27.3465 25.369 8.59689
Au 27.8718 22.2893 8.61725
Au 28.3406 19.5369 8.25691
Au 28.7323 16.7211 8.07245
Au 33.7642 22.787 16.4411
Au 32.1379 24.0775 14.5517
Au 32.9571 21.3005 14.4233
Au 30.335 25.4301 12.7054
Au 31.0214 22.4554 12.4327
Au 31.4869 19.6883 12.0171
Au 28.8881 26.7348 10.7682
Au 29.1342 23.952 10.3755
Au 29.7345 21.0198 10.2008
Au 30.0735 18.1078 10.1541
Au 35.7119 20.469 21.1777
Au 34.5949 17.8461 22.0859
Au 33.3896 15.2181 22.6514
Au 32.2912 12.5878 22.999
Au 31.2932 9.90056 23.6648
Au 28.0158 18.3295 33.3385
Au 28.4266 15.9488 31.6074
Au 28.6196 14.0481 29.7294
Au 29.1716 11.8225 27.7337
Au 29.6092 9.70395 25.7833
Au 34.3798 19.9866 23.9049
Au 32.6587 19.5786 26.446
Au 33.3188 17.3238 24.4752
Au 31.1263 19.189 28.6082
Au 31.6628 17.011 26.8113
Au 31.8968 14.4948 25.0007
Au 29.5373 18.7431 31.0384
Au 30.1244 16.5534 29.1735
Au 30.4765 14.4346 27.3655
Au 30.9504 12.0486 25.5595
Au 29.2873 12.9897 10.4971
Au 29.5119 11.7294 13.2202
Au 29.8044 10.7376 15.8955
Au 29.6082 9.63759 18.583
Au 29.6737 8.58052 21.2284
Au 34.6327 18.8177 19.2445
Au 33.5722 17.2965 16.952
Au 33.4746 16.3634 19.831
Au 32.2782 15.6076 14.7114
Au 32.4046 14.3843 17.5159
Au 32.4455 13.3597 20.1949
Au 30.6927 14.2393 12.6732
Au 31.0124 13.1115 15.2225
Au 31.0777 11.9958 18.1291
Au 31.1374 10.9729 21.0359
Au 23.2902 34.7192 24.5252
Au 21.0689 34.5925 22.9715
Au 18.2248 34.3777 21.4588
Au 15.7281 34.0222 20.0212
Au 13.2732 33.7274 18.4763
Au 23.962 31.2786 10.5585
Au 21.3685 31.8032 11.988
Au 18.5717 32.1739 12.8317
Au 16.0149 32.5247 14.0489
Au 13.3423 33.0465 15.4934
Au 23.3982 34.2428 21.6755
Au 23.4583 33.643 18.9558
Au 20.8509 33.9886 20.2564
Au 23.5917 32.9725 16.1052
Au 20.928 33.3746 17.3332
Au 18.2796 33.7204 18.6931
Au 24.0373 32.1402 13.237
Au 21.0585 32.866 14.6088
Au 18.2853 33.0631 15.6943
Au 15.8226 33.541 17.126
Au 23.5637 33.5787 27.2504
Au 21.032 32.3104 28.3947
Au 18.536 31.1027 29.335
Au 16.2186 29.6125 30.7633
Au 13.9724 28.3947 31.7803
Au 24.9973 21.6685 35.0579
Au 22.2448 22.7632 34.5833
Au 19.5229 23.6542 34.2804
Au 16.8598 24.7982 33.6954
Au 14.2163 25.7612 33.2808
Au 23.6646 31.4437 29.0256
Au 24.0672 29.0775 30.4607
Au 21.1115 29.9987 30.1913
Au 24.1635 26.7306 32.157
Au 21.515 27.565 31.7514
Au 18.8959 28.7177 31.2845
Au 24.641 24.2525 33.5735
Au 21.8519 25.2348 33.3103
Au 19.2661 26.2443 32.8233
Au 16.5768 27.2191 32.4968
Au 11.0244 32.2469 19.3632
Au 11.1424 31.1695 22.0882
Au 11.1521 30.3731 24.7953
Au 11.4675 29.3005 27.5471
Au 11.663 28.2499 30.3188
Au 20.8058 33.4766 25.5545
Au 18.256 33.4113 24.1997
Au 18.5422 32.4502 26.8442
Au 15.9242 33.1754 22.6518
Au 15.8502 32.038 25.3712
Au 16.0207 30.862 27.9801
Au 13.3093 32.7918 21.0502
Au 13.3565 31.7425 23.7324
Au 13.5776 30.6982 26.397
Au 13.6737 29.758 29.2437
Au 13.6603 7.68711 15.5282
Au 11.765 9.61817 16.3648
Au 9.70097 11.7199 17.51
Au 7.95627 13.8489 18.083
Au 5.82052 15.8011 19.5001
Au 14.9105 8.02316 12.9929
Au 14.5175 10.5932 11.4818
Au 14.2382 13.1284 9.97269
Au 13.8295 15.4718 8.50584
Au 13.3943 17.9962 6.9427
Au 5.67327 18.2233 17.9825
Au 7.0437 18.7689 15.4272
Au 8.50159 19.3668 12.9981
Au 10.1797 19.9733 10.4518
Au 11.6296 20.0035 7.94315
Au 12.8858 10.0668 13.9025
Au 11.1664 12.2452 14.5102
Au 12.5942 12.3466 12.1531
Au 9.16116 14.1128 15.3251
Au 10.4063 14.7291 13.0812
Au 12.3147 14.8763 10.8735
Au 6.98688 16.2046 16.7598
Au 8.60598 16.744 14.2737
Au 10.0875 17.2678 11.647
Au 11.7071 17.4526 9.26558
Au 15.2393 6.13087 17.3336
Au 15.0689 6.99503 20.2185
Au 14.7227 7.66106 23.0941
Au 14.8581 8.32135 26.037
Au 14.708 9.1115 28.9018
Au 5.69105 16.1282 22.2919
Au 7.37351 14.954 24.36
Au 9.05981 13.4611 25.9931
Au 10.812 12.199 27.7722
Au 12.6624 11.0402 29.6516
Au 13.3094 8.04517 18.3131
Au 11.2745 10.3795 19.1291
Au 12.9623 8.885 21.3849
Au 9.56081 12.3641 20.2033
Au 11.1893 10.9272 22.1258
Au 12.8859 9.52418 24.1718
Au 7.44594 14.1767 21.0689
Au 8.90128 13.1583 23.1726
Au 10.9207 11.6553 25.165
Au 12.8752 10.1908 26.9708
Au 17.6367 7.20542 13.2748
Au 19.9442 8.30022 12.1188
Au 22.253 9.79494 11.1659
Au 24.534 11.3247 9.86288
Au 27.0001 12.7541 9.11245
Au 15.7336 19.2051 5.84443
Au 18.4188 18.0721 6.27397
Au 21.4141 17.1475 6.65402
Au 23.7432 16.1768 6.96618
Au 26.4412 15.0031 7.4787
Au 17.002 9.45601 11.7198
Au 16.7631 11.7762 10.2141
Au 19.469 10.7217 10.5588
Au 16.6338 14.3256 8.69897
Au 19.1331 13.2027 9.15851
Au 21.8839 12.1847 9.40495
Au 16.1177 16.8523 7.21095
Au 18.9353 15.6709 7.70011
Au 21.5056 14.7252 7.99029
Au 24.2863 13.6601 8.55884
Au 17.9872 5.97507 15.8165
Au 20.0814 6.47468 17.6569
Au 22.3674 6.5946 19.2626
Au 24.9761 6.80773 20.9962
Au 27.6268 7.0287 22.5522
Au 16.9817 9.49933 30.5303
Au 19.4657 8.93673 29.1863
Au 22.0068 8.43907 27.7497
Au 24.6955 8.21729 26.6354
Au 27.3263 7.7788 25.2659
Au 17.589 6.52924 18.7126
Au 17.2872 7.04159 21.651
Au 19.9142 6.74564 20.6928
Au 17.2128 7.67883 24.5914
Au 19.7065 7.35803 23.3469
Au 22.5708 6.93502 22.1657
Au 17.1977 8.32877 27.5472
Au 19.5417 7.97011 26.1224
Au 22.2066 7.53657 25.0701
Au 25.0052 7.25775 23.8796
Au 20.2493 7.37532 14.8464
Au 22.4198 8.6193 13.6907
Au 22.4646 7.59276 16.7481
Au 24.693 9.94936 12.4714
Au 24.9772 8.87562 15.3635
Au 24.8953 7.69409 18.3508
Au 27.1571 11.1721 11.838
Au 27.3408 10.0722 14.535
Au 27.3648 9.17158 17.1365
Au 27.4138 7.98106 19.866
Au 5.32981 20.1712 19.9009
Au 6.19128 22.856 19.2792
Au 7.41013 25.7187 18.5765
Au 8.41799 28.1899 17.8635
Au 9.89183 30.9175 17.3993
Au 12.6922 22.5483 7.17517
Au 12.6144 24.6898 9.18923
Au 12.1989 26.9587 10.9885
Au 11.5996 29.2225 12.9323
Au 11.0799 31.3625 14.9776
Au 6.69687 21.0804 17.4682
Au 8.13264 21.4926 14.5686
Au 7.70368 23.6877 16.7302
Au 9.30939 21.9217 12.2136
Au 9.03839 24.0167 13.9524
Au 8.6486 26.196 15.9379
Au 11.1348 22.3596 9.63722
Au 10.8027 24.3341 11.4309
Au 10.2905 26.7452 13.5441
Au 9.97177 28.8729 15.5362
Au 5.25577 19.0411 22.5631
Au 6.47434 20.7498 24.6309
Au 7.80162 22.1468 26.6409
Au 9.04069 23.9908 28.7412
Au 10.3868 25.4326 30.7193
Au 13.9277 12.7556 31.7057
Au 13.6237 15.391 32.3714
Au 12.9181 18.4433 32.3515
Au 12.3571 21.1868 32.4909
Au 11.8304 24.1255 32.7338
Au 6.87187 17.8554 24.6035
Au 8.75999 16.553 26.4869
Au 8.22453 19.4049 26.6155
Au 10.3715 15.107 28.2558
Au 9.71763 18.0049 28.6013
Au 9.15029 21.135 28.817
Au 12.1566 13.851 30.0543
Au 11.6782 16.6201 30.2998
Au 11.1357 19.6186 30.4651
Au 10.5902 22.7801 30.5609
Au 6.21286 21.9546 21.9062
Au 7.14347 24.5725 21.4147
Au 7.38367 23.5381 23.9975
Au 8.55484 27.3558 20.6205
Au 8.4558 26.3576 23.6314
Au 8.54892 24.9155 26.1267
Au 9.77205 29.8164 19.7739
Au 9.68791 28.6707 22.6789
Au 9.9569 27.8042 25.6356
Au 10.0413 26.7866 28.0916
Au 24.1432 29.1655 8.40864
Au 22.0487 27.5039 7.80383
Au 19.8581 25.6915 7.31876
Au 17.3771 23.9446 6.5365
Au 15.1488 22.2411 6.09557
Au 24.7692 26.4955 8.11045
Au 22.4536 24.8693 7.50392
Au 25.3431 23.5766 8.01221
Au 20.0542 22.6644 6.91714
Au 23.1186 21.7391 7.3523
Au 25.8776 20.6037 7.51002
Au 17.7066 21.0466 6.35698
Au 20.7166 19.7344 6.5005
Au 23.4971 18.8463 6.91839
Au 25.9644 17.9162 7.61326
Au 21.6011 29.7004 9.64222
Au 19.4627 28.0937 9.01281
Au 19.14 30.1538 10.9006
Au 17.3213 26.1674 8.21954
Au 16.9503 28.7041 10.2068
Au 16.3668 30.8052 11.9922
Au 15.0376 24.4753 7.99366
Au 14.7372 26.7851 9.49128
Au 14.0943 28.9234 11.5046
Au 13.4301 31.1061 13.5097
Au 25.2732 18.7682 34.6845
Au 23.2365 16.9763 34.1598
Au 20.9922 14.8835 33.6891
Au 18.7399 13.1016 32.9326
Au 16.5035 11.5086 32.2903
Au 25.9034 16.5606 32.9943
Au 23.5444 14.8673 32.5341
Au 26.1743 14.3817 31.0762
Au 21.5358 12.6724 32.0135
Au 24.0748 12.4453 30.6226
Au 26.6679 12.0769 29.5046
Au 19.168 10.8887 31.1985
Au 21.7826 10.5395 29.9135
Au 24.3478 10.0794 28.5156
Au 27.0142 9.87063 27.3401
Au 22.8712 19.9155 34.5177
Au 20.6362 17.9735 34.0424
Au 20.1302 20.8911 34.1817
Au 18.3224 16.021 33.1061
Au 17.9369 19.0615 33.6798
Au 17.453 21.943 33.7059
Au 16.143 14.3176 32.4925
Au 15.7779 17.1789 32.9757
Au 15.3156 19.9715 33.2446
Au 14.379 23.1468 33.2439
