976
 Atoms. Timestep: 50000
Au 5.83519 25.7448 24.2414
Au 7.31112 27.8204 25.0819
Au 8.94671 30.1598 25.7254
Au 10.816 31.9964 26.4914
Au 6.04779 22.0143 22.5783
Au 7.7246 24.1422 23.395
Au 9.23755 26.2175 24.2642
Au 10.8266 28.4546 24.831
Au 12.858 30.4616 25.7259
Au 14.4534 32.6012 26.5866
Au 6.56245 18.0905 20.751
Au 8.04263 20.398 21.759
Au 10.0034 22.5918 22.4374
Au 11.6628 24.6456 23.3078
Au 13.3065 26.8032 24.1472
Au 15.0945 28.877 24.8474
Au 16.7777 31.1781 25.6824
Au 18.9302 33.2693 26.4406
Au 6.95922 14.5627 19.0324
Au 8.72335 16.7553 19.9709
Au 10.3224 18.7096 20.8833
Au 12.159 21.1023 21.2253
Au 13.9611 23.255 22.3786
Au 15.5844 25.3273 23.2588
Au 17.2962 27.4504 23.904
Au 19.158 29.5901 24.6723
Au 21.1046 31.5157 25.393
Au 22.3527 33.7313 26.2539
Au 7.67368 10.7826 17.6489
Au 9.21714 12.7659 18.3368
Au 11.0142 14.9656 18.9776
Au 12.5185 17.1728 19.8535
Au 14.3985 19.554 20.4935
Au 16.1678 21.6761 21.2221
Au 17.7896 24.0828 22.0802
Au 19.5538 26.1016 22.9945
Au 21.2629 28.329 23.6695
Au 23.173 30.069 24.5151
Au 24.6964 32.1783 25.2857
Au 26.343 33.9626 26.2549
Au 9.79207 9.32594 16.7023
Au 11.4828 11.2357 17.4413
Au 13.3192 13.4992 18.1834
Au 15.1612 15.8773 18.9914
Au 16.822 18.0305 19.7542
Au 18.4842 20.0504 20.4665
Au 20.2096 22.2485 21.3465
Au 21.9076 24.6016 22.0028
Au 23.526 26.6203 22.8942
Au 25.5208 28.9159 23.3553
Au 27.2474 30.8479 24.383
Au 28.7815 32.8556 25.1801
Au 12.1121 8.01733 15.6554
Au 13.8114 9.98668 16.2906
Au 15.6587 11.9011 17.2717
Au 17.2271 14.0128 18.1262
Au 18.7953 16.2965 18.8346
Au 20.768 18.5711 19.5168
Au 22.5512 20.8064 20.1429
Au 24.0355 22.9875 20.9498
Au 25.8059 25.1929 21.983
Au 27.581 27.2693 22.6898
Au 29.4627 29.217 23.5369
Au 31.0378 31.3885 24.0434
Au 14.3929 6.41703 14.7509
Au 16.0409 8.51158 15.3586
Au 17.6841 10.5035 16.3446
Au 19.6584 12.5989 17.0815
Au 21.1129 14.9286 17.8915
Au 23.0608 16.9901 18.6986
Au 24.7135 19.2349 19.3143
Au 26.3645 21.1901 20.1706
Au 27.9069 23.5459 20.9597
Au 29.7184 25.6264 21.6484
Au 31.5111 27.6341 22.4911
Au 33.09 29.7392 23.1155
Au 18.0369 6.90329 14.4288
Au 19.9141 8.97792 15.2196
Au 21.7366 11.0891 16.2952
Au 23.3806 13.4921 17.0324
Au 25.2669 15.5172 17.7015
Au 26.9958 17.5636 18.3255
Au 28.6371 19.6442 19.2278
Au 30.3117 21.8143 20.2295
Au 32.2138 23.9894 20.7342
Au 33.9222 26.264 21.6903
Au 22.1302 7.61442 14.3047
Au 24.0475 9.67678 15.1894
Au 25.5795 11.883 16.0053
Au 27.5305 13.6576 16.8762
Au 28.9457 16.0319 17.5283
Au 30.7484 18.2274 18.4936
Au 32.5995 20.5133 18.956
Au 34.4227 22.7145 19.8038
Au 26.4723 8.33408 14.2414
Au 27.9017 10.4916 15.1797
Au 29.8589 12.1964 15.8428
Au 31.2546 14.421 16.8164
Au 32.9171 16.707 17.5308
Au 34.8043 18.6118 17.9435
Au 30.0522 9.24707 14.1642
Au 32.0131 10.9839 15.0415
Au 33.43 13.1393 15.8376
Au 34.9884 15.3424 16.5686
Au 5.67875 24.4673 21.7892
Au 7.10298 26.9387 22.4172
Au 8.75744 28.8192 23.2184
Au 10.6808 31.0785 23.7694
Au 12.5132 33.1096 24.7089
Au 6.09901 20.8055 19.8395
Au 7.71047 23.0227 20.719
Au 9.40205 25.2206 21.4785
Au 11.2079 27.4626 22.2564
Au 12.8709 29.4151 23.2073
Au 14.632 31.6156 23.6403
Au 16.4463 33.5809 24.7517
Au 6.5156 17.1258 18.1782
Au 8.21402 19.3276 18.8626
Au 9.7903 21.3926 19.9079
Au 11.6258 23.7986 20.4715
Au 13.4413 25.8105 21.3379
Au 15.1443 27.9564 22.1251
Au 16.8911 29.8773 22.9186
Au 18.659 32.0628 23.873
Au 20.4076 34.042 24.4187
Au 7.04823 13.2901 16.6145
Au 8.74061 15.4438 17.187
Au 10.4358 17.7232 18.1577
Au 12.1312 19.9052 18.7457
Au 13.9146 22.1655 19.3473
Au 15.7342 24.2056 20.5078
Au 17.231 26.6109 21.1134
Au 19.0699 28.5619 21.9928
Au 20.8935 30.7613 22.707
Au 22.7072 32.8054 23.2261
Au 24.3361 34.6062 24.2753
Au 9.36499 11.8415 15.6264
Au 11.1115 13.9035 16.4908
Au 12.889 16.1864 17.2046
Au 14.5347 18.4545 17.8966
Au 16.1937 20.5162 18.6708
Au 18.0254 22.581 19.5394
Au 19.5514 24.9593 20.3815
Au 21.3844 27.1412 21.1759
Au 23.246 29.1579 21.8191
Au 25.0592 31.3746 22.313
Au 26.8331 33.5273 23.5474
Au 11.6278 10.4506 14.6952
Au 13.4862 12.5715 15.5035
Au 15.2355 14.7566 16.3559
Au 16.9487 17.0215 16.994
Au 18.4949 19.1544 17.7395
Au 20.1609 21.3013 18.441
Au 21.784 23.5079 19.4064
Au 23.7126 25.8661 20.2481
Au 25.4966 27.7529 20.8592
Au 27.3805 30.1417 21.594
Au 28.9832 32.0072 22.5624
Au 13.8243 8.85478 13.7174
Au 15.5919 11.0011 14.3569
Au 17.1907 13.0274 15.3257
Au 18.9138 15.1536 16.1408
Au 20.7257 17.3499 16.7855
Au 22.5118 19.5603 17.6723
Au 24.2297 21.9515 18.3998
Au 25.877 24.0648 19.2719
Au 27.4878 26.1492 19.8777
Au 29.4048 28.3399 20.6071
Au 30.9963 30.4506 21.4856
Au 16.0725 7.57243 12.78
Au 17.9249 9.48325 13.5306
Au 19.4637 11.7246 14.45
Au 21.2932 14.1195 15.1979
Au 23.0633 16.02 15.8812
Au 24.8125 18.0501 16.5323
Au 26.504 20.2783 17.511
Au 28.039 22.3285 18.312
Au 29.9033 24.4321 19.0931
Au 31.7833 26.7157 20.0098
Au 33.1457 28.7948 20.7026
Au 20.0309 8.08328 12.7415
Au 21.8348 10.2885 13.4985
Au 23.5988 12.3581 14.2502
Au 25.3575 14.526 14.9934
Au 27.1191 16.899 15.6758
Au 28.6931 18.9112 16.5029
Au 30.359 21.0289 17.3518
Au 32.4162 23.1442 18.0449
Au 34.1612 25.2414 18.9971
Au 23.8588 8.81256 12.5368
Au 25.8394 10.8823 13.2523
Au 27.6014 13.0785 13.9797
Au 29.5658 14.8441 14.6838
Au 30.8817 17.1663 15.6721
Au 32.6393 19.5661 16.4655
Au 34.4873 21.6848 17.3287
Au 28.1685 9.66203 12.465
Au 29.8572 11.6868 12.9951
Au 31.7224 13.4812 13.8928
Au 33.0119 15.6777 15.0304
Au 34.7945 17.9734 15.5871
Au 5.81443 23.4182 18.8627
Au 7.15061 25.6818 19.8564
Au 8.89597 27.7421 20.5154
Au 10.8102 29.8994 21.1158
Au 12.4065 32.0977 22.0655
Au 14.6187 34.1753 22.7616
Au 6.14231 19.8648 17.2201
Au 7.90939 21.9098 17.9678
Au 9.53313 24.2326 18.8413
Au 11.3097 26.455 19.7377
Au 12.9804 28.5367 20.1255
Au 14.556 30.6089 21.159
Au 16.4576 32.5189 21.8677
Au 18.246 34.4476 22.4912
Au 6.62371 15.9948 15.8105
Au 8.29662 18.1122 16.1824
Au 9.96739 20.3382 16.8977
Au 11.5998 22.5203 17.7006
Au 13.4 24.7487 18.5422
Au 15.1286 27.0389 19.3627
Au 16.8089 29.191 20.1982
Au 18.6363 31.1632 21.0443
Au 20.3946 33.1191 21.602
Au 22.253 35.2098 22.4424
Au 8.85164 14.3866 14.6998
Au 10.54 16.6105 15.4479
Au 12.1652 18.6996 16.1489
Au 14.0591 20.9037 16.7089
Au 15.8464 23.3007 17.587
Au 17.3101 25.4674 18.4856
Au 19.3464 27.7331 19.3643
Au 20.9869 29.7175 20.0372
Au 22.785 31.9702 20.6557
Au 24.6276 33.8947 21.379
Au 11.2526 13.0385 13.6729
Au 12.9218 15.22 14.5413
Au 14.676 17.2324 15.3379
Au 16.4339 19.3732 15.8194
Au 17.9949 21.6546 16.695
Au 19.7099 23.9161 17.5738
Au 21.5739 26.0469 18.4383
Au 23.2962 28.4663 19.1113
Au 25.0851 30.5419 19.808
Au 26.9618 32.6232 20.5978
Au 13.3933 11.4763 12.8069
Au 15.0799 13.7075 13.355
Au 16.7885 15.7884 14.3251
Au 18.6503 18.0099 14.9942
Au 20.3633 20.1588 15.7044
Au 21.9998 22.3812 16.6977
Au 23.7458 24.5802 17.5028
Au 25.4334 26.6651 18.2424
Au 27.3831 29.1086 18.9169
Au 29.0052 31.3136 19.5926
Au 15.6402 10.0641 11.697
Au 17.2882 12.2662 12.5097
Au 19.106 14.2521 13.3145
Au 20.9366 16.7224 14.2304
Au 22.7516 18.7103 14.8366
Au 24.3047 20.8759 15.7341
Au 25.9298 22.9061 16.5047
Au 27.5661 25.1347 17.2248
Au 29.5472 27.2252 17.9705
Au 31.2689 29.3824 18.8126
Au 17.8447 8.76525 11.0729
Au 19.6287 10.7971 11.613
Au 21.3405 13.009 12.493
Au 23.0759 15.027 13.0902
Au 24.8212 17.0664 13.8659
Au 26.6514 19.4773 14.6538
Au 28.4375 21.5784 15.4986
Au 29.8347 23.7867 16.3425
Au 31.7669 25.7434 17.3218
Au 33.4895 27.7994 18.1172
Au 21.8364 9.3725 10.6677
Au 23.6552 11.3168 11.5903
Au 25.4188 13.5845 12.2249
Au 27.1696 15.7211 12.9292
Au 28.8344 17.6963 13.7436
Au 30.5005 19.9233 14.4524
Au 32.1148 22.1577 15.4694
Au 33.9392 24.4386 16.2561
Au 25.7341 9.85545 10.6717
Au 27.7047 12.1248 11.2104
Au 29.3116 14.3534 11.9663
Au 30.991 16.2099 12.8578
Au 32.6629 18.3332 13.8561
Au 34.3876 20.6422 14.8346
Au 5.69356 22.2336 16.2077
Au 7.39867 24.5 17.146
Au 9.04885 26.763 18.034
Au 10.8036 28.9174 18.4848
Au 12.5975 31.1974 19.244
Au 14.0889 33.2914 20.1725
Au 16.0681 35.0538 20.8441
Au 6.07418 18.6771 14.4617
Au 7.87506 20.8032 15.2248
Au 9.49441 23.0702 15.9316
Au 11.0972 25.4076 16.7868
Au 12.9683 27.4259 17.3987
Au 14.7539 29.4017 18.2873
Au 16.14 31.7421 19.0405
Au 18.1552 33.7058 19.8468
Au 20.1311 35.6234 20.8189
Au 8.21817 17.038 13.6759
Au 10.0173 19.1351 14.306
Au 11.7384 21.3616 15.087
Au 13.3632 23.5165 15.8864
Au 15.3065 25.882 16.6571
Au 17.1741 28.1456 17.5066
Au 18.6676 30.2993 18.2448
Au 20.5024 32.4314 18.9764
Au 22.3422 34.3182 19.8647
Au 10.5848 15.6858 12.709
Au 12.4601 17.6292 13.4649
Au 14.0772 19.8872 14.1884
Au 15.85 22.1252 15.0152
Au 17.5626 24.5444 15.812
Au 19.3742 26.6444 16.7086
Au 20.9428 28.8269 17.3698
Au 22.7091 31.0686 18.1284
Au 24.5138 33.1449 18.7275
Au 12.8674 14.3763 11.692
Au 14.5502 16.3645 12.5004
Au 16.5428 18.458 13.2058
Au 18.2338 20.7589 14.0176
Au 19.8868 22.9246 14.9158
Au 21.6046 25.067 15.6133
Au 23.3624 27.1881 16.4664
Au 25.1319 29.4425 17.1872
Au 26.7694 31.6039 17.8731
Au 14.9798 12.6823 10.8398
Au 16.8529 14.8751 11.5929
Au 18.6444 16.9356 12.1165
Au 20.4376 19.1881 13.0907
Au 22.0724 21.2695 13.8282
Au 23.908 23.5148 14.6598
Au 25.6005 25.7418 15.4743
Au 27.4787 28.0454 16.4553
Au 29.427 30.2865 17.1532
Au 17.2829 11.3689 9.85081
Au 19.1638 13.3179 10.4462
Au 20.7864 15.5854 11.3831
Au 22.6059 17.7394 12.1485
Au 24.4756 19.7784 13.0167
Au 26.0419 21.9514 13.6684
Au 27.7277 24.0313 14.4888
Au 29.5791 26.5035 15.542
Au 31.2103 28.6118 16.1052
Au 19.6332 10.0659 9.02252
Au 21.5378 11.9349 9.82875
Au 23.3641 13.967 10.4032
Au 24.9713 16.3278 11.258
Au 26.696 18.4958 12.1273
Au 28.5029 20.5951 12.728
Au 30.0511 22.8153 13.4325
Au 31.6265 24.7432 14.6417
Au 33.1796 26.8974 15.3335
Au 23.5765 10.5445 8.89247
Au 25.3458 12.3116 9.61476
Au 27.0363 14.6721 10.2727
Au 28.8102 16.9026 11.0536
Au 30.7147 18.8275 11.9535
Au 32.2248 21.184 12.8843
Au 33.8418 23.4696 13.8893
Au 5.84954 21.2809 13.5037
Au 7.18289 23.5851 14.4917
Au 8.74306 25.6596 15.1394
Au 10.5637 27.9618 15.8704
Au 12.4242 30.0907 16.4155
Au 13.9922 32.2924 17.1969
Au 15.8334 34.474 18.1147
Au 17.7807 36.0469 18.8073
Au 7.92475 19.6832 12.5614
Au 9.43877 22.06 13.2819
Au 11.1896 24.1237 14.0438
Au 12.8915 26.3357 14.9979
Au 14.787 28.5141 15.6121
Au 16.3954 30.8454 16.2406
Au 18.1638 32.8029 17.3065
Au 20.0824 34.9676 18.0321
Au 10.2605 18.16 11.8115
Au 11.7564 20.4055 12.4436
Au 13.5385 22.644 13.3291
Au 15.2458 24.7452 14.0859
Au 17.0718 27.1521 14.8613
Au 18.7969 29.2034 15.6901
Au 20.4208 31.4976 16.4164
Au 22.3807 33.6532 17.0204
Au 12.4939 16.7756 10.5283
Au 14.0165 19.0323 11.332
Au 16.0204 20.994 12.3434
Au 17.7092 23.5018 13.2424
Au 19.4236 25.5386 14.1199
Au 21.1728 27.7297 14.6415
Au 22.7936 30.0202 15.5811
Au 24.4139 32.1058 16.2744
Au 14.8175 15.2664 9.74571
Au 16.1956 17.5993 10.3225
Au 18.2358 19.6451 11.4588
Au 19.9688 21.8409 12.17
Au 21.5958 24.0486 12.9273
Au 23.4249 26.389 13.8444
Au 25.2712 28.5887 14.7384
Au 26.8353 30.8323 15.4779
Au 17.0029 13.8603 8.87568
Au 18.6174 15.8688 9.65009
Au 20.603 18.2153 10.3849
Au 22.2867 20.3072 11.3535
Au 23.9819 22.6497 12.02
Au 25.6265 24.7476 12.8096
Au 27.4503 27.2183 13.7532
Au 29.1046 29.34 14.5278
Au 19.3368 12.4339 7.82993
Au 21.1472 14.5101 8.55185
Au 22.7927 16.6045 9.52508
Au 24.4469 18.8809 10.1968
Au 26.2739 20.8101 11.0489
Au 27.8698 23.175 11.8439
Au 29.6109 25.5298 12.8081
Au 31.2733 27.6268 13.4002
Au 21.4787 11.104 7.29385
Au 23.3082 12.9943 7.90274
Au 25.0154 15.1961 8.50464
Au 26.771 17.467 9.27358
Au 28.5573 19.4686 10.1883
Au 30.2357 21.8445 10.9781
Au 31.9402 23.9649 11.7669
Au 33.227 25.96 12.8502
Au 7.50221 22.3744 11.6999
Au 8.83451 24.6879 12.4475
Au 10.7335 26.8433 13.3762
Au 12.5091 29.01 13.9022
Au 14.1184 31.0975 14.5494
Au 15.9311 33.4128 15.5729
Au 17.8102 35.2372 16.2445
Au 9.77207 20.9358 10.6905
Au 11.45 23.2235 11.4982
Au 13.1377 25.318 12.4042
Au 14.8518 27.4867 13.0724
Au 16.5636 29.5671 13.6946
Au 18.3286 32.0645 14.5062
Au 20.2426 34.1275 15.4811
Au 11.9243 19.3069 9.79189
Au 13.7708 21.5509 10.6215
Au 15.5169 23.8141 11.4929
Au 17.1552 26.0025 12.2263
Au 18.9212 28.1138 13.0173
Au 20.5774 30.333 13.7949
Au 22.267 32.5747 14.4834
Au 14.0863 18.0056 8.70786
Au 16.0552 20.233 9.56828
Au 17.6565 22.4398 10.4602
Au 19.3655 24.5823 11.2354
Au 21.0503 26.6908 12.0553
Au 23.0146 29.1071 12.8847
Au 24.8014 31.0238 13.6804
Au 16.5429 16.4075 7.76576
Au 18.3059 18.5409 8.56435
Au 19.9983 20.8634 9.68434
Au 21.7741 23.0794 10.3123
Au 23.4221 25.2193 11.1449
Au 25.2727 27.6379 11.8607
Au 26.9681 29.7327 12.7197
Au 18.7015 15.1449 6.98809
Au 20.5961 17.2458 7.72602
Au 22.3162 19.396 8.43383
Au 24.0993 21.5296 9.42099
Au 25.9068 23.5604 10.0227
Au 27.4772 25.9088 11.0623
Au 29.1748 28.3606 11.8466
Au 21.0684 13.6372 6.10375
Au 22.6383 15.6477 6.67619
Au 24.5054 17.9375 7.6242
Au 26.3709 19.8489 8.34318
Au 27.996 22.1741 9.34261
Au 29.6563 24.2948 10.1709
Au 31.2221 26.5628 10.9909
Au 9.20179 23.6075 10.0321
Au 10.8745 25.8655 10.7899
Au 12.7888 27.839 11.253
Au 14.3214 30.0371 12.0283
Au 16.0535 32.1911 12.9379
Au 18.0359 34.6237 13.5957
Au 11.766 22.0535 9.11431
Au 13.283 24.3595 9.71362
Au 14.9395 26.4457 10.2599
Au 16.6668 28.5294 11.0994
Au 18.2729 30.7365 12.0024
Au 20.1799 33.1095 12.9056
Au 13.6485 20.8321 7.88679
Au 15.4689 22.7383 8.66832
Au 17.2009 25.0546 9.50123
Au 18.8641 27.2962 10.2242
Au 20.6858 29.2615 11.1644
Au 22.5075 31.5435 11.763
Au 15.9616 19.2723 6.8364
Au 17.8666 21.2416 7.84405
Au 19.6136 23.6281 8.56754
Au 21.1469 25.7937 9.43984
Au 23.0006 27.981 10.1527
Au 24.81 30.1803 10.7375
Au 18.2862 17.6077 5.84812
Au 20.0068 19.9522 6.94441
Au 21.6749 22.0978 7.61589
Au 23.5634 24.1217 8.42408
Au 25.3335 26.1707 9.42293
Au 26.9983 28.7062 10.0954
Au 20.4493 16.1492 5.23033
Au 22.6383 18.3848 5.90418
Au 24.2499 20.6199 6.67642
Au 26.0797 22.7004 7.39533
Au 27.7899 24.8625 8.3509
Au 29.1599 26.9901 9.4673
Au 11.1337 24.6477 8.54994
Au 12.964 26.9397 8.62088
Au 14.5661 28.9356 9.46504
Au 16.1764 31.142 10.3607
Au 18.1804 33.2026 11.148
Au 13.0443 23.4519 7.11657
Au 15.0067 25.4252 7.68671
Au 16.7828 27.7311 8.32592
Au 18.257 29.9404 9.37981
Au 20.4199 32.0107 10.194
Au 15.5254 21.8411 6.19377
Au 17.3916 23.7944 6.93534
Au 19.0509 26.0679 7.80332
Au 20.6295 28.4612 8.51209
Au 22.6179 30.2567 9.30714
Au 17.8653 20.2368 5.21027
Au 19.5986 22.4443 5.93025
Au 21.2722 24.8815 6.8402
Au 23.0988 26.8148 7.63328
Au 24.7868 28.8217 8.27477
Au 20.3233 19.0636 4.55649
Au 22.0537 20.9146 5.21167
Au 23.8403 22.9327 6.24238
Au 25.4201 25.3831 6.80067
Au 27.1601 27.3923 7.71799
Au 6.04631 23.004 25.2174
Au 7.60443 24.9686 26.2856
Au 9.28226 27.2503 26.9115
Au 11.0525 29.4242 27.4081
Au 12.649 31.4946 28.3509
Au 6.16113 19.1699 23.3316
Au 7.97675 21.3792 24.3351
Au 9.58854 23.396 25.1638
Au 11.4234 25.6767 26.013
Au 13.0832 27.9306 26.7728
Au 14.8838 29.9962 27.4107
Au 16.8436 32.1282 28.233
Au 6.90937 15.6695 21.7605
Au 8.36481 17.7946 22.6415
Au 10.3557 19.9581 23.2896
Au 12.1369 22.0837 24.1373
Au 13.6224 24.2263 25.1643
Au 15.3642 26.3079 26.0034
Au 17.271 28.5509 26.4475
Au 19.0169 30.6833 27.2264
Au 21.0041 32.5162 28.2966
Au 7.5074 12.0245 20.2447
Au 8.97326 14.0091 20.96
Au 10.703 16.01 21.8203
Au 12.5719 18.305 22.3427
Au 14.1621 20.3565 23.0193
Au 15.9123 22.5803 24.1439
Au 17.7142 24.7914 24.9071
Au 19.5389 26.907 25.6407
Au 21.392 29.0167 26.3484
Au 23.0676 31.1325 27.1689
Au 24.8445 32.7785 28.0289
Au 9.49205 10.1811 19.3907
Au 11.1283 12.2338 20.0153
Au 13.1158 14.5356 20.8158
Au 14.6837 16.7323 21.5458
Au 16.4258 18.976 22.2518
Au 18.2596 21.2599 23.2196
Au 19.9256 23.4999 23.934
Au 21.7685 25.6431 24.6917
Au 23.8282 27.6458 25.5378
Au 25.5824 29.8339 26.4322
Au 27.4547 31.8068 27.3352
Au 12.097 8.84014 18.3662
Au 13.747 10.7201 19.1151
Au 15.3307 12.963 19.9887
Au 16.9993 15.2151 20.7357
Au 18.9658 17.4517 21.5338
Au 20.766 19.7233 22.1274
Au 22.2896 21.961 23.1245
Au 24.0857 24.0013 23.7561
Au 25.8771 26.0074 24.5344
Au 27.6255 28.1875 25.4556
Au 29.4525 30.309 26.2061
Au 14.3562 7.26181 17.3781
Au 15.8678 9.25157 18.4076
Au 17.6843 11.4032 19.1669
Au 19.4224 13.6571 19.8496
Au 21.0522 15.9072 20.5746
Au 22.9997 18.2101 21.4034
Au 24.4749 20.3001 22.1497
Au 26.2985 22.4303 22.7831
Au 28.1736 24.4904 23.6531
Au 29.9636 26.637 24.5125
Au 31.4972 28.9015 25.1011
Au 16.4296 5.78716 16.342
Au 18.1647 7.84046 17.0895
Au 19.8491 10.023 17.9084
Au 21.776 12.2324 18.867
Au 23.3912 14.3757 19.5608
Au 25.1657 16.4871 20.45
Au 26.7083 18.6568 21.1616
Au 28.3698 20.79 21.9524
Au 30.3402 22.8607 22.7582
Au 32.0642 25.0357 23.3337
Au 33.4913 26.9987 24.3339
Au 20.4873 6.54549 16.3901
Au 22.3682 8.51812 16.961
Au 24.0487 10.6266 18.0415
Au 25.7449 12.7364 18.7731
Au 27.3716 14.9087 19.5244
Au 29.0183 17.1565 20.1286
Au 30.8083 19.1721 21.1613
Au 32.676 21.3896 21.7015
Au 34.4213 23.552 22.4595
Au 24.5102 7.14919 15.952
Au 26.2005 9.05725 16.9413
Au 27.9205 11.0841 17.7644
Au 29.7052 13.2312 18.6526
Au 31.2394 15.5455 19.5063
Au 33.0401 17.8366 20.0718
Au 34.8214 19.8715 20.5759
Au 28.5155 7.86156 16.0824
Au 30.3373 9.65953 17.161
Au 31.9607 11.6107 17.7959
Au 33.5311 14.0815 18.5365
Au 35.0264 16.1062 19.2609
Au 6.46648 20.1616 26.1714
Au 7.85926 22.2817 27.179
Au 9.71942 24.5327 27.8495
Au 11.2972 26.9029 28.5264
Au 13.0331 28.8418 29.3784
Au 15.0179 30.8893 29.9841
Au 6.79762 16.4766 24.5826
Au 8.3073 18.7211 25.3085
Au 10.1979 20.7584 26.0711
Au 11.8958 22.9419 27.0138
Au 13.5667 25.2402 27.8236
Au 15.4681 27.5595 28.5285
Au 17.2204 29.6405 29.0658
Au 19.0479 31.7648 29.8639
Au 7.41488 13.1247 22.7343
Au 9.00591 15.1601 23.6673
Au 10.796 17.1616 24.2633
Au 12.4968 19.2433 25.2687
Au 14.1432 21.4981 26.0084
Au 15.9232 23.6519 26.7269
Au 17.6224 25.8383 27.572
Au 19.4076 27.8263 28.3341
Au 21.3351 29.9329 29.0677
Au 23.1871 31.9233 29.9292
Au 9.60289 11.3568 22.0044
Au 11.3526 13.3876 22.8118
Au 13.0433 15.6992 23.4504
Au 14.6578 17.7586 24.2218
Au 16.3805 19.8719 24.9821
Au 18.1961 22.1271 25.7204
Au 19.9464 24.4232 26.7444
Au 21.8513 26.5741 27.3886
Au 23.6979 28.6906 28.228
Au 25.6396 30.4104 28.9325
Au 11.7131 9.67753 21.0361
Au 13.4767 11.6993 21.7561
Au 15.2277 13.9399 22.5375
Au 16.9337 16.321 23.2135
Au 18.5904 18.7097 23.8318
Au 20.5581 20.7309 24.7742
Au 22.22 22.9852 25.6576
Au 24.1511 24.9206 26.6747
Au 25.8326 26.9709 27.4077
Au 27.666 29.0716 28.1299
Au 14.029 8.01333 20.1759
Au 15.864 10.2756 20.9605
Au 17.5579 12.4651 21.7452
Au 19.1943 14.7986 22.4123
Au 20.994 17.0534 23.1701
Au 22.834 19.0767 24.1444
Au 24.5464 21.2495 24.6004
Au 26.3502 23.4211 25.6817
Au 27.9925 25.468 26.4219
Au 29.7147 27.531 26.9902
Au 16.5219 6.70681 19.0789
Au 18.1833 8.78894 19.9893
Au 19.8446 10.9707 20.6889
Au 21.633 13.2699 21.459
Au 23.3956 15.5648 22.3007
Au 25.2705 17.4692 23.1693
Au 26.7343 19.7695 23.8481
Au 28.6024 21.8698 24.7029
Au 30.4351 23.9139 25.5107
Au 32.1474 25.9044 26.1823
Au 18.8679 5.44845 18.1439
Au 20.3764 7.54504 18.9695
Au 22.1315 9.42086 19.9473
Au 23.9026 11.8229 20.8525
Au 25.5977 13.8865 21.4653
Au 27.4371 15.886 22.2167
Au 29.0536 18.1559 22.9973
Au 30.7516 20.2178 23.7344
Au 32.7476 22.217 24.4248
Au 34.0659 24.3666 25.1432
Au 22.6451 5.80863 18.2026
Au 24.2781 7.96343 18.8605
Au 26.1632 10.152 19.7998
Au 27.8091 12.2481 20.6324
Au 29.6108 14.218 21.6029
Au 31.3057 16.6039 22.0267
Au 33.1041 18.7652 22.8132
Au 34.8541 20.743 23.1649
Au 26.2193 6.4762 17.8067
Au 28.1936 8.4504 18.7985
Au 29.8076 10.7535 19.6409
Au 31.7253 12.888 20.4695
Au 33.5073 15.1948 21.2395
Au 35.1499 17.2732 21.6129
Au 7.12277 17.4928 27.2815
Au 8.5263 19.6928 28.0647
Au 10.0603 21.7663 28.8976
Au 11.9154 24.0027 29.6801
Au 13.6543 26.1345 30.5259
Au 15.2151 28.2936 31.0487
Au 17.221 30.1877 31.5468
Au 7.41301 13.8089 25.3734
Au 9.10407 15.9845 26.2028
Au 10.6362 18.0365 27.062
Au 12.3956 20.2854 28.0793
Au 14.1977 22.8126 28.8292
Au 15.7478 24.8711 29.5353
Au 17.3744 26.9099 30.4839
Au 19.5195 28.8873 30.8809
Au 21.1168 31.0549 31.4156
Au 9.50786 12.2042 24.3634
Au 11.235 14.3961 25.4085
Au 12.8993 16.5174 26.0932
Au 14.6299 18.6848 26.9719
Au 16.3832 21.061 27.637
Au 18.1305 23.1803 28.3951
Au 19.8943 25.3552 29.3624
Au 21.8619 27.3812 30.0489
Au 23.7756 29.3691 30.765
Au 11.6889 10.5193 23.695
Au 13.2651 12.8467 24.4229
Au 15.1717 15.0489 25.5141
Au 16.9878 17.3274 25.9767
Au 18.7794 19.5623 26.7523
Au 20.4533 21.5377 27.465
Au 22.1757 23.9819 28.3387
Au 24.0235 25.9757 29.3502
Au 25.9745 27.9766 30.1735
Au 14.0318 9.33201 22.7688
Au 15.5571 11.3239 23.6584
Au 17.4531 13.5743 24.3317
Au 19.1316 15.9222 24.9399
Au 20.8654 18.0452 25.7386
Au 22.748 20.3843 26.6054
Au 24.4167 22.3558 27.3909
Au 26.5611 24.4583 28.3441
Au 28.3815 26.4577 29.1239
Au 16.2899 7.66391 21.8748
Au 17.9395 9.72302 22.8855
Au 19.7132 12.0435 23.5367
Au 21.3488 14.2907 24.3042
Au 23.2553 16.395 24.9551
Au 25.039 18.6114 25.7871
Au 26.7241 20.7394 26.6619
Au 28.5647 22.9032 27.4359
Au 30.3872 24.9024 28.107
Au 18.5163 6.30215 20.8777
Au 20.1666 8.39028 21.7101
Au 22.0162 10.7365 22.4956
Au 23.7984 12.7759 23.4789
Au 25.6022 14.9088 24.0931
Au 27.268 16.9703 25.0021
Au 28.9841 19.1536 25.7033
Au 30.8196 21.0565 26.4175
Au 32.5267 23.3355 27.0333
Au 20.6492 4.83303 19.8731
Au 22.3323 6.70712 20.7924
Au 24.2602 9.01888 21.6068
Au 25.9591 10.9079 22.4922
Au 27.6783 13.2413 23.3704
Au 29.3729 15.4372 24.0422
Au 31.0934 17.4019 24.8025
Au 32.895 19.5162 25.3641
Au 34.4359 21.8017 26.3615
Au 24.6579 5.36835 19.8688
Au 26.5319 7.34005 20.4917
Au 28.0662 9.50546 21.6425
Au 30.064 11.6171 22.3672
Au 31.7091 13.94 23.2835
Au 33.3005 16.1548 23.8184
Au 35.0656 18.1955 24.4679
Au 7.84819 14.9036 28.2489
Au 9.06349 17.185 29.0412
Au 10.6623 19.2027 29.7648
Au 12.3017 21.6271 30.6365
Au 14.0836 23.6904 31.4419
Au 15.844 25.6914 32.4596
Au 17.4833 27.7129 33.1448
Au 19.4682 29.4546 33.5047
Au 9.44842 13.1988 27.1457
Au 11.1097 15.2463 28.0867
Au 12.7899 17.6306 28.9564
Au 14.6112 19.9504 29.6784
Au 16.3192 22.1733 30.4374
Au 17.9237 24.2222 31.2014
Au 19.7617 26.4719 31.9929
Au 21.72 28.369 32.8896
Au 11.5238 11.7168 26.1231
Au 13.3997 13.8363 27.1785
Au 15.0775 16.0959 27.8852
Au 16.8026 18.4914 28.7671
Au 18.7017 20.6032 29.4671
Au 20.2409 22.8192 30.2648
Au 22.2017 24.7695 31.0595
Au 23.9566 27.0267 31.8622
Au 13.9244 10.0738 25.7145
Au 15.5638 12.3719 26.2121
Au 17.3728 14.6176 26.9716
Au 19.0382 16.8285 27.7692
Au 20.7523 18.9633 28.4424
Au 22.6221 21.2041 29.2617
Au 24.448 23.2831 29.9857
Au 26.1196 25.4097 30.8382
Au 16.1603 8.72756 24.5271
Au 17.8031 10.8236 25.4375
Au 19.518 13.1849 26.1979
Au 21.335 15.3582 26.7263
Au 23.1028 17.5992 27.5809
Au 24.975 19.4175 28.4261
Au 26.7075 21.7981 29.2142
Au 28.5416 23.7355 30.0915
Au 18.5322 7.00187 23.6228
Au 20.1145 9.32144 24.4838
Au 21.8143 11.6619 25.2124
Au 23.7242 13.66 26.0395
Au 25.319 16.0538 26.7281
Au 27.3634 17.9815 27.6098
Au 28.9815 20.2463 28.382
Au 30.7514 22.2645 29.131
Au 20.6816 5.68271 22.7257
Au 22.4834 7.80837 23.4945
Au 24.1837 9.94612 24.3168
Au 26.0317 12.1 25.2704
Au 27.6451 14.382 26.1219
Au 29.4938 16.4282 26.7553
Au 31.186 18.5719 27.6016
Au 33.0182 20.7383 28.4211
Au 22.7842 4.44657 21.8092
Au 24.632 6.37284 22.4184
Au 26.3582 8.42785 23.3813
Au 28.1397 10.6329 24.2888
Au 29.7594 12.7619 24.9687
Au 31.9825 14.9567 25.8848
Au 33.6347 17.1366 26.6041
Au 34.9136 19.3792 27.0944
Au 9.57866 14.4175 30.1009
Au 11.1872 16.4741 30.9928
Au 12.823 18.7914 31.3894
Au 14.619 21.1396 32.2283
Au 16.2826 23.1243 33.283
Au 18.0584 25.3183 33.9598
Au 19.9196 27.1771 34.6077
Au 11.4793 12.647 29.0021
Au 13.1882 14.7513 29.7553
Au 14.9454 17.1597 30.6772
Au 16.8872 19.4497 31.3621
Au 18.4497 21.664 32.1793
Au 20.2247 23.9765 32.895
Au 22.1894 25.839 33.6461
Au 13.7719 11.256 28.1764
Au 15.4402 13.4014 28.903
Au 17.1756 15.796 29.6654
Au 19.0978 17.9667 30.3329
Au 20.8289 20.1039 31.0502
Au 22.6522 22.1392 32.057
Au 24.3749 24.3834 32.7986
Au 15.9011 9.82301 27.1338
Au 17.8491 11.8818 28.0629
Au 19.3558 14.2673 28.6865
Au 21.4199 16.3998 29.2983
Au 23.0485 18.5123 30.261
Au 25.0544 20.7117 31.037
Au 26.6929 22.9355 31.8411
Au 18.2585 8.25084 26.3163
Au 20.0339 10.5816 27.035
Au 21.8394 12.6294 27.8525
Au 23.606 14.7307 28.5495
Au 25.3406 16.8476 29.4684
Au 27.1447 19.2712 30.3
Au 28.7851 21.1432 31.0686
Au 20.5872 6.75221 25.4103
Au 22.3508 8.93084 26.2847
Au 24.1814 11.2131 27.1124
Au 25.92 13.3168 27.8697
Au 27.6719 15.277 28.6115
Au 29.2705 17.6127 29.5078
Au 31.0508 19.8089 30.2605
Au 22.8429 5.34977 24.4359
Au 24.5436 7.41902 25.3815
Au 26.1098 9.41182 26.308
Au 28.2982 11.641 26.8709
Au 29.9452 13.8827 27.5803
Au 31.6494 16.1588 28.5614
Au 33.1747 18.1425 29.1369
Au 11.7728 13.8735 31.8288
Au 13.3912 16.2385 32.5462
Au 14.9799 18.4922 33.2906
Au 16.8189 20.5662 33.905
Au 18.4556 22.3971 34.9916
Au 20.2073 24.4377 35.5165
Au 13.7284 12.3202 30.8539
Au 15.4205 14.6157 31.4483
Au 17.2234 16.8206 32.2465
Au 19.0428 18.8721 33.0786
Au 20.5806 21.0351 33.7469
Au 22.4537 23.0685 34.4917
Au 16.1983 10.9062 29.903
Au 17.7419 13.0324 30.6113
Au 19.3294 15.3187 31.3012
Au 21.1508 17.4009 32.1446
Au 22.9157 19.5855 32.8884
Au 24.8521 21.7671 33.7265
Au 18.2201 9.30494 29.0507
Au 20.0327 11.4316 29.8269
Au 21.6642 13.845 30.5483
Au 23.4471 15.8248 31.2272
Au 25.1254 18.102 31.993
Au 27.1179 20.1892 32.928
Au 20.3819 7.91301 27.8262
Au 22.143 9.95441 28.9564
Au 23.9559 11.9994 29.8384
Au 25.746 14.3484 30.6987
Au 27.3417 16.4771 31.3044
Au 29.0987 18.6245 32.1657
Au 22.5599 6.33229 27.1219
Au 24.3804 8.36874 27.9873
Au 26.1728 10.6284 28.8315
Au 28.3403 12.649 29.412
Au 29.718 14.7718 30.4084
Au 31.4068 17.1381 31.1767
Au 14.0065 13.5419 33.3228
Au 15.7269 15.7632 34.0433
Au 17.2404 17.653 34.8606
Au 18.9923 19.8668 35.6829
Au 20.9675 21.7979 36.2952
Au 15.928 12.1603 32.3862
Au 17.5773 14.1001 33.1987
Au 19.4378 16.1543 34.0828
Au 21.1477 18.5411 34.8971
Au 23.0262 20.625 35.3876
Au 18.2414 10.4514 31.7312
Au 20.0057 12.8725 32.4055
Au 21.8302 14.9213 33.2153
Au 23.3269 16.9676 34.0436
Au 25.0319 18.991 34.6212
Au 20.1834 8.77511 30.5732
Au 22.0456 11.1552 31.807
Au 23.933 13.1669 32.1615
Au 25.3845 15.4033 33.2107
Au 27.1102 17.4771 33.7756
Au 22.3465 7.37406 29.5454
Au 23.9963 9.51457 30.7634
Au 26.1539 11.7034 31.2815
Au 27.7708 13.974 32.0721
Au 29.4303 16.0178 32.7339
